<event>
 7    1  0.2942034E-011  0.5052887E+02  0.7816164E-02  0.1300439E+00
        -11   -1    0    0    0    0  0.00000000000E+00  0.00000000000E+00  0.45593999997E+02  0.45594000000E+02  0.51100000000E-03 0.  1.
         11   -1    0    0    0    0 -0.00000000000E+00 -0.00000000000E+00 -0.45593999997E+02  0.45594000000E+02  0.51100000000E-03 0. -1.
    9900012    2    1    2    0    0  0.16338607118E+01  0.23751089036E+02  0.32960302189E+02  0.50528865090E+02  0.30000015927E+02 0.  0.
         12    1    1    2    0    0 -0.16338607118E+01 -0.23751089036E+02 -0.32960302189E+02  0.40659134910E+02  0.00000000000E+00 0. -1.
         11    1    3    3    0    0 -0.11764268480E+02  0.11953255373E+02  0.52752475694E+01  0.17581426679E+02  0.51100000000E-03 0. -1.
        -11    1    3    3    0    0  0.80395227700E+01  0.71155783484E+01  0.16097253069E+02  0.19349081069E+02  0.51100000000E-03 0.  1.
         12    1    3    3    0    0  0.53586064218E+01  0.46822553151E+01  0.11587801551E+02  0.13598357342E+02  0.00000000000E+00 0. -1.
</event>
<event>
 7    1  0.2942034E-011  0.5052886E+02  0.7816164E-02  0.1300439E+00
        -11   -1    0    0    0    0  0.00000000000E+00  0.00000000000E+00  0.45593999997E+02  0.45594000000E+02  0.51100000000E-03 0.  1.
         11   -1    0    0    0    0 -0.00000000000E+00 -0.00000000000E+00 -0.45593999997E+02  0.45594000000E+02  0.51100000000E-03 0. -1.
    9900012    2    1    2    0    0 -0.12661286301E+02 -0.38634312504E+02 -0.49749130525E+00  0.50528858702E+02  0.29999996511E+02 0.  0.
         12    1    1    2    0    0  0.12661286301E+02  0.38634312504E+02  0.49749130525E+00  0.40659141298E+02  0.00000000000E+00 0. -1.
         11    1    3    3    0    0 -0.73953999637E+01 -0.36854785192E+01 -0.29058721624E+00  0.82679582564E+01  0.51100000000E-03 0. -1.
        -11    1    3    3    0    0  0.81510098778E+01 -0.59251026312E+01  0.17431762243E+01  0.10226654723E+02  0.51100000000E-03 0.  1.
        -12    1    3    3    0    0 -0.13416896216E+02 -0.29023731354E+02 -0.19500803133E+01  0.32034245722E+02  0.00000000000E+00 0.  1.
</event>
<event>
 7    1  0.2942034E-011  0.5052885E+02  0.7816164E-02  0.1300439E+00
        -11   -1    0    0    0    0  0.00000000000E+00  0.00000000000E+00  0.45593999997E+02  0.45594000000E+02  0.51100000000E-03 0.  1.
         11   -1    0    0    0    0 -0.00000000000E+00 -0.00000000000E+00 -0.45593999997E+02  0.45594000000E+02  0.51100000000E-03 0. -1.
    9900012    2    1    2    0    0  0.95641727331E+01 -0.83226975240E+01  0.38631925676E+02  0.50528851269E+02  0.29999973916E+02 0.  0.
         12    1    1    2    0    0 -0.95641727331E+01  0.83226975240E+01 -0.38631925676E+02  0.40659148731E+02  0.00000000000E+00 0. -1.
         11    1    3    3    0    0  0.58139682555E+00 -0.33532601551E+01 -0.33408591999E+01  0.47690372604E+01  0.51100000000E-03 0. -1.
        -11    1    3    3    0    0  0.11179105836E+02 -0.57157825906E-01  0.17988100051E+02  0.21178938076E+02  0.51100000000E-03 0.  1.
         12    1    3    3    0    0 -0.21963299286E+01 -0.49122795430E+01  0.23984684825E+02  0.24580875932E+02  0.00000000000E+00 0. -1.
</event>
<event>
 7    1  0.2942034E-011  0.5052888E+02  0.7816164E-02  0.1300439E+00
        -11   -1    0    0    0    0  0.00000000000E+00  0.00000000000E+00  0.45593999997E+02  0.45594000000E+02  0.51100000000E-03 0.  1.
         11   -1    0    0    0    0 -0.00000000000E+00 -0.00000000000E+00 -0.45593999997E+02  0.45594000000E+02  0.51100000000E-03 0. -1.
    9900012    2    1    2    0    0 -0.38060055891E+02 -0.45385233799E+01 -0.13564598014E+02  0.50528875954E+02  0.30000048951E+02 0.  0.
         12    1    1    2    0    0  0.38060055891E+02  0.45385233799E+01  0.13564598014E+02  0.40659124046E+02  0.00000000000E+00 0. -1.
         11    1    3    3    0    0 -0.17565526660E+02 -0.26005063500E+01  0.66948743838E+01  0.18977136333E+02  0.51100000000E-03 0.  1.
        -11    1    3    3    0    0 -0.19018412132E+02 -0.20246911893E+01 -0.22076494526E+02  0.29209090798E+02  0.51100000000E-03 0. -1.
         12    1    3    3    0    0 -0.14761170988E+01  0.86674159356E-01  0.18170221275E+01  0.23426488237E+01  0.00000000000E+00 0. -1.
</event>
<event>
 7    1  0.2942034E-011  0.5052886E+02  0.7816164E-02  0.1300439E+00
        -11   -1    0    0    0    0  0.00000000000E+00  0.00000000000E+00  0.45593999997E+02  0.45594000000E+02  0.51100000000E-03 0.  1.
         11   -1    0    0    0    0 -0.00000000000E+00 -0.00000000000E+00 -0.45593999997E+02  0.45594000000E+02  0.51100000000E-03 0. -1.
    9900012    2    1    2    0    0 -0.27837674997E+02  0.29446548016E+01  0.29488280815E+02  0.50528857774E+02  0.29999993690E+02 0.  0.
         12    1    1    2    0    0  0.27837674997E+02 -0.29446548016E+01 -0.29488280815E+02  0.40659142226E+02  0.00000000000E+00 0. -1.
         11    1    3    3    0    0 -0.33069824842E+00  0.10000183697E+02  0.13142270459E+02  0.16517636283E+02  0.51100000000E-03 0.  1.
        -11    1    3    3    0    0 -0.21222231896E+02 -0.75774463208E+01  0.16109362497E+02  0.27700403963E+02  0.51100000000E-03 0. -1.
         12    1    3    3    0    0 -0.62847448523E+01  0.52191742514E+00  0.23664785874E+00  0.63108175276E+01  0.00000000000E+00 0. -1.
</event>
<event>
 7    1  0.2942034E-011  0.5052886E+02  0.7816164E-02  0.1300439E+00
        -11   -1    0    0    0    0  0.00000000000E+00  0.00000000000E+00  0.45593999997E+02  0.45594000000E+02  0.51100000000E-03 0.  1.
         11   -1    0    0    0    0 -0.00000000000E+00 -0.00000000000E+00 -0.45593999997E+02  0.45594000000E+02  0.51100000000E-03 0. -1.
    9900012    2    1    2    0    0 -0.26033161167E+02 -0.63177080646E+01  0.30586381828E+02  0.50528859959E+02  0.30000000331E+02 0.  0.
         12    1    1    2    0    0  0.26033161167E+02  0.63177080646E+01 -0.30586381828E+02  0.40659140041E+02  0.00000000000E+00 0. -1.
         11    1    3    3    0    0  0.75361297173E+00 -0.64582246120E+01  0.21163765576E+01  0.68378101498E+01  0.51100000000E-03 0. -1.
        -11    1    3    3    0    0 -0.25021015949E+02  0.70545657291E+01  0.22755798683E+02  0.34549160781E+02  0.51100000000E-03 0.  1.
        -12    1    3    3    0    0 -0.17657581906E+01 -0.69140491817E+01  0.57142065870E+01  0.91418890277E+01  0.00000000000E+00 0.  1.
</event>
<event>
 7    1  0.2942034E-011  0.5052886E+02  0.7816164E-02  0.1300439E+00
        -11   -1    0    0    0    0  0.00000000000E+00  0.00000000000E+00  0.45593999997E+02  0.45594000000E+02  0.51100000000E-03 0.  1.
         11   -1    0    0    0    0 -0.00000000000E+00 -0.00000000000E+00 -0.45593999997E+02  0.45594000000E+02  0.51100000000E-03 0. -1.
    9900012    2    1    2    0    0 -0.37006986438E+01 -0.20839345653E+02  0.34715882377E+02  0.50528856048E+02  0.29999988444E+02 0.  0.
         12    1    1    2    0    0  0.37006986438E+01  0.20839345653E+02 -0.34715882377E+02  0.40659143952E+02  0.00000000000E+00 0. -1.
         11    1    3    3    0    0  0.22841754775E+00  0.17199580454E+01  0.64138768163E+01  0.66444146717E+01  0.51100000000E-03 0. -1.
        -11    1    3    3    0    0 -0.14673778866E+01 -0.25213765347E+02  0.30538262840E+02  0.39629189474E+02  0.51100000000E-03 0.  1.
        -12    1    3    3    0    0 -0.24617383050E+01  0.26544616489E+01 -0.22362572796E+01  0.42552519019E+01  0.00000000000E+00 0.  1.
</event>
<event>
 7    1  0.2942034E-011  0.5052887E+02  0.7816164E-02  0.1300439E+00
        -11   -1    0    0    0    0  0.00000000000E+00  0.00000000000E+00  0.45593999997E+02  0.45594000000E+02  0.51100000000E-03 0.  1.
         11   -1    0    0    0    0 -0.00000000000E+00 -0.00000000000E+00 -0.45593999997E+02  0.45594000000E+02  0.51100000000E-03 0. -1.
    9900012    2    1    2    0    0 -0.32220462626E+02  0.48408975221E+01  0.24322264250E+02  0.50528867706E+02  0.30000023880E+02 0.  0.
         12    1    1    2    0    0  0.32220462626E+02 -0.48408975221E+01 -0.24322264250E+02  0.40659132294E+02  0.00000000000E+00 0. -1.
         11    1    3    3    0    0 -0.16591556829E+01  0.25078033131E+01 -0.60006914640E+01  0.67119425910E+01  0.51100000000E-03 0. -1.
        -11    1    3    3    0    0 -0.22522476143E+02  0.50064880179E+01  0.23571936724E+02  0.32984284971E+02  0.51100000000E-03 0.  1.
        -12    1    3    3    0    0 -0.80388308000E+01 -0.26733938090E+01  0.67510189900E+01  0.10832640144E+02  0.00000000000E+00 0.  1.
</event>
<event>
 7    1  0.2942034E-011  0.5052886E+02  0.7816164E-02  0.1300439E+00
        -11   -1    0    0    0    0  0.00000000000E+00  0.00000000000E+00  0.45593999997E+02  0.45594000000E+02  0.51100000000E-03 0. -1.
         11   -1    0    0    0    0 -0.00000000000E+00 -0.00000000000E+00 -0.45593999997E+02  0.45594000000E+02  0.51100000000E-03 0.  1.
    9900012    2    1    2    0    0 -0.16060223883E+01  0.80182338052E+01 -0.39828314849E+02  0.50528855334E+02  0.29999986272E+02 0.  0.
         12    1    1    2    0    0  0.16060223883E+01 -0.80182338052E+01  0.39828314849E+02  0.40659144666E+02  0.00000000000E+00 0. -1.
         11    1    3    3    0    0  0.72083942271E+01  0.11582395800E+02 -0.13429774180E+02  0.19143449913E+02  0.51100000000E-03 0. -1.
        -11    1    3    3    0    0 -0.36134909893E+01 -0.26433001178E+01 -0.25665376337E+02  0.26052944084E+02  0.51100000000E-03 0.  1.
         12    1    3    3    0    0 -0.52009256261E+01 -0.92086187745E+00 -0.73316433243E+00  0.53324613364E+01  0.00000000000E+00 0. -1.
</event>
<event>
 7    1  0.2942034E-011  0.5052887E+02  0.7816164E-02  0.1300439E+00
        -11   -1    0    0    0    0  0.00000000000E+00  0.00000000000E+00  0.45593999997E+02  0.45594000000E+02  0.51100000000E-03 0. -1.
         11   -1    0    0    0    0 -0.00000000000E+00 -0.00000000000E+00 -0.45593999997E+02  0.45594000000E+02  0.51100000000E-03 0.  1.
    9900012    2    1    2    0    0  0.14909544370E+02  0.42182276636E+00 -0.37824497970E+02  0.50528867023E+02  0.30000021804E+02 0.  0.
         12    1    1    2    0    0 -0.14909544370E+02 -0.42182276636E+00  0.37824497970E+02  0.40659132977E+02  0.00000000000E+00 0. -1.
         11    1    3    3    0    0  0.23682781330E+01  0.94159106432E+01 -0.37015463206E+01  0.10390840196E+02  0.51100000000E-03 0. -1.
        -11    1    3    3    0    0  0.13114785784E+02 -0.72205088519E+01 -0.15971598741E+02  0.21891215610E+02  0.51100000000E-03 0.  1.
        -12    1    3    3    0    0 -0.57351954734E+00 -0.17735790249E+01 -0.18151352908E+02  0.18246811217E+02  0.00000000000E+00 0.  1.
</event>
<event>
 7    1  0.2942034E-011  0.5052886E+02  0.7816164E-02  0.1300439E+00
        -11   -1    0    0    0    0  0.00000000000E+00  0.00000000000E+00  0.45593999997E+02  0.45594000000E+02  0.51100000000E-03 0.  1.
         11   -1    0    0    0    0 -0.00000000000E+00 -0.00000000000E+00 -0.45593999997E+02  0.45594000000E+02  0.51100000000E-03 0. -1.
    9900012    2    1    2    0    0  0.16863743400E+01 -0.77740865572E+01  0.39873364325E+02  0.50528862493E+02  0.30000008035E+02 0.  0.
         12    1    1    2    0    0 -0.16863743400E+01  0.77740865572E+01 -0.39873364325E+02  0.40659137507E+02  0.00000000000E+00 0. -1.
         11    1    3    3    0    0 -0.68541912575E+01  0.15064652743E+01  0.38910769097E+01  0.80243289561E+01  0.51100000000E-03 0. -1.
        -11    1    3    3    0    0  0.11514410583E+02 -0.99185729212E+01  0.15176357180E+02  0.21477466270E+02  0.51100000000E-03 0.  1.
        -12    1    3    3    0    0 -0.29738449855E+01  0.63802108963E+00  0.20805930235E+02  0.21027067267E+02  0.00000000000E+00 0.  1.
</event>
<event>
 7    1  0.2942034E-011  0.5052885E+02  0.7816164E-02  0.1300439E+00
        -11   -1    0    0    0    0  0.00000000000E+00  0.00000000000E+00  0.45593999997E+02  0.45594000000E+02  0.51100000000E-03 0.  1.
         11   -1    0    0    0    0 -0.00000000000E+00 -0.00000000000E+00 -0.45593999997E+02  0.45594000000E+02  0.51100000000E-03 0. -1.
    9900012    2    1    2    0    0  0.29693450019E+02 -0.24861315623E+02 -0.12384696964E+02  0.50528847187E+02  0.29999961510E+02 0.  0.
         12    1    1    2    0    0 -0.29693450019E+02  0.24861315623E+02  0.12384696964E+02  0.40659152813E+02  0.00000000000E+00 0. -1.
         11    1    3    3    0    0  0.10894116683E+02 -0.86890849444E+01 -0.20185018425E+01  0.14080352461E+02  0.51100000000E-03 0.  1.
        -11    1    3    3    0    0 -0.48216340821E+01 -0.75904278169E+01  0.63445216621E+00  0.90147257017E+01  0.51100000000E-03 0. -1.
        -12    1    3    3    0    0  0.23620967419E+02 -0.85818028618E+01 -0.11000647288E+02  0.27433769025E+02  0.00000000000E+00 0.  1.
</event>
<event>
 7    1  0.2942034E-011  0.5052883E+02  0.7816164E-02  0.1300439E+00
        -11   -1    0    0    0    0  0.00000000000E+00  0.00000000000E+00  0.45593999997E+02  0.45594000000E+02  0.51100000000E-03 0.  1.
         11   -1    0    0    0    0 -0.00000000000E+00 -0.00000000000E+00 -0.45593999997E+02  0.45594000000E+02  0.51100000000E-03 0. -1.
    9900012    2    1    2    0    0 -0.66612330535E+01 -0.34320517692E+02  0.20758085276E+02  0.50528830496E+02  0.29999910776E+02 0.  0.
         12    1    1    2    0    0  0.66612330535E+01  0.34320517692E+02 -0.20758085276E+02  0.40659169504E+02  0.00000000000E+00 0. -1.
         11    1    3    3    0    0  0.83106782999E+01 -0.54243051648E+01 -0.18278093813E+01  0.10091151952E+02  0.51100000000E-03 0. -1.
        -11    1    3    3    0    0 -0.44080660673E+01 -0.16198760184E+02  0.89833176345E+01  0.19040243537E+02  0.51100000000E-03 0.  1.
        -12    1    3    3    0    0 -0.10563845286E+02 -0.12697452343E+02  0.13602577023E+02  0.21397435007E+02  0.00000000000E+00 0.  1.
</event>
<event>
 7    1  0.2942034E-011  0.5052885E+02  0.7816164E-02  0.1300439E+00
        -11   -1    0    0    0    0  0.00000000000E+00  0.00000000000E+00  0.45593999997E+02  0.45594000000E+02  0.51100000000E-03 0. -1.
         11   -1    0    0    0    0 -0.00000000000E+00 -0.00000000000E+00 -0.45593999997E+02  0.45594000000E+02  0.51100000000E-03 0.  1.
    9900012    2    1    2    0    0 -0.35932073944E+02 -0.15024181550E+02  0.11675884622E+02  0.50528852802E+02  0.29999978578E+02 0.  0.
         12    1    1    2    0    0  0.35932073944E+02  0.15024181550E+02 -0.11675884622E+02  0.40659147198E+02  0.00000000000E+00 0. -1.
         11    1    3    3    0    0  0.11716024711E+01 -0.81951186335E+01 -0.22424419204E+00  0.82814797884E+01  0.51100000000E-03 0. -1.
        -11    1    3    3    0    0 -0.22594241510E+02 -0.10576163295E+02  0.10912606127E+02  0.27229395002E+02  0.51100000000E-03 0.  1.
        -12    1    3    3    0    0 -0.14509434905E+02  0.37471003787E+01  0.98752268679E+00  0.15017978012E+02  0.00000000000E+00 0.  1.
</event>
<event>
 7    1  0.2942034E-011  0.5052886E+02  0.7816164E-02  0.1300439E+00
        -11   -1    0    0    0    0  0.00000000000E+00  0.00000000000E+00  0.45593999997E+02  0.45594000000E+02  0.51100000000E-03 0.  1.
         11   -1    0    0    0    0 -0.00000000000E+00 -0.00000000000E+00 -0.45593999997E+02  0.45594000000E+02  0.51100000000E-03 0. -1.
    9900012    2    1    2    0    0  0.17828006835E+02 -0.36228687669E+02  0.47759474576E+01  0.50528864347E+02  0.30000013669E+02 0.  0.
         12    1    1    2    0    0 -0.17828006835E+02  0.36228687669E+02 -0.47759474576E+01  0.40659135653E+02  0.00000000000E+00 0. -1.
         11    1    3    3    0    0  0.55024091160E+01  0.12700585310E+01  0.76072982415E+01  0.94742040060E+01  0.51100000000E-03 0. -1.
        -11    1    3    3    0    0 -0.27613052469E+00 -0.54942496106E+01 -0.37305629219E+01  0.66468132835E+01  0.51100000000E-03 0.  1.
         12    1    3    3    0    0  0.12601728244E+02 -0.32004496589E+02  0.89921213801E+00  0.34407847058E+02  0.00000000000E+00 0. -1.
</event>
<event>
 7    1  0.2942034E-011  0.5052887E+02  0.7816164E-02  0.1300439E+00
        -11   -1    0    0    0    0  0.00000000000E+00  0.00000000000E+00  0.45593999997E+02  0.45594000000E+02  0.51100000000E-03 0.  1.
         11   -1    0    0    0    0 -0.00000000000E+00 -0.00000000000E+00 -0.45593999997E+02  0.45594000000E+02  0.51100000000E-03 0. -1.
    9900012    2    1    2    0    0 -0.29174624896E+02 -0.23971364003E+02 -0.15079121242E+02  0.50528869077E+02  0.30000028047E+02 0.  0.
         12    1    1    2    0    0  0.29174624896E+02  0.23971364003E+02  0.15079121242E+02  0.40659130923E+02  0.00000000000E+00 0. -1.
         11    1    3    3    0    0 -0.16378825441E+01 -0.23578807346E+01  0.69877813747E+01  0.75545581994E+01  0.51100000000E-03 0. -1.
        -11    1    3    3    0    0 -0.17912672659E+02 -0.20425488211E+02 -0.16733466451E+02  0.31907261088E+02  0.51100000000E-03 0.  1.
        -12    1    3    3    0    0 -0.96240696929E+01 -0.11879950570E+01 -0.53334361660E+01  0.11067049790E+02  0.00000000000E+00 0.  1.
</event>
<event>
 7    1  0.2942034E-011  0.5052885E+02  0.7816164E-02  0.1300439E+00
        -11   -1    0    0    0    0  0.00000000000E+00  0.00000000000E+00  0.45593999997E+02  0.45594000000E+02  0.51100000000E-03 0. -1.
         11   -1    0    0    0    0 -0.00000000000E+00 -0.00000000000E+00 -0.45593999997E+02  0.45594000000E+02  0.51100000000E-03 0.  1.
    9900012    2    1    2    0    0  0.34109594688E+02  0.50398422418E+01 -0.21547665659E+02  0.50528851523E+02  0.29999974688E+02 0.  0.
         12    1    1    2    0    0 -0.34109594688E+02 -0.50398422418E+01  0.21547665659E+02  0.40659148477E+02  0.00000000000E+00 0. -1.
         11    1    3    3    0    0  0.24905676565E+02  0.70750025968E+01 -0.25430871845E+02  0.36291564170E+02  0.51100000000E-03 0.  1.
        -11    1    3    3    0    0  0.50024434214E+01 -0.45849252491E+01 -0.14984754466E+01  0.69492020152E+01  0.51100000000E-03 0. -1.
         12    1    3    3    0    0  0.42014747016E+01  0.25497648941E+01  0.53816816327E+01  0.72880853370E+01  0.00000000000E+00 0. -1.
</event>
<event>
 7    1  0.2942034E-011  0.5052888E+02  0.7816164E-02  0.1300439E+00
        -11   -1    0    0    0    0  0.00000000000E+00  0.00000000000E+00  0.45593999997E+02  0.45594000000E+02  0.51100000000E-03 0.  1.
         11   -1    0    0    0    0 -0.00000000000E+00 -0.00000000000E+00 -0.45593999997E+02  0.45594000000E+02  0.51100000000E-03 0. -1.
    9900012    2    1    2    0    0 -0.14882837274E+02  0.14873052692E+02  0.34791625555E+02  0.50528883550E+02  0.30000072039E+02 0.  0.
         12    1    1    2    0    0  0.14882837274E+02 -0.14873052692E+02 -0.34791625555E+02  0.40659116450E+02  0.00000000000E+00 0. -1.
         11    1    3    3    0    0  0.37080470147E+01 -0.36920652927E+01  0.28524756079E+00  0.52404508605E+01  0.51100000000E-03 0. -1.
        -11    1    3    3    0    0 -0.68611100301E+01  0.13283174417E+02  0.11246924230E+02  0.18708577133E+02  0.51100000000E-03 0.  1.
         12    1    3    3    0    0 -0.11729774259E+02  0.52819435674E+01  0.23259453764E+02  0.26579855557E+02  0.00000000000E+00 0. -1.
</event>
<event>
 7    1  0.2942034E-011  0.5052886E+02  0.7816164E-02  0.1300439E+00
        -11   -1    0    0    0    0  0.00000000000E+00  0.00000000000E+00  0.45593999997E+02  0.45594000000E+02  0.51100000000E-03 0. -1.
         11   -1    0    0    0    0 -0.00000000000E+00 -0.00000000000E+00 -0.45593999997E+02  0.45594000000E+02  0.51100000000E-03 0.  1.
    9900012    2    1    2    0    0 -0.31571633812E+02 -0.25719581236E+01  0.25490835473E+02  0.50528859290E+02  0.29999998299E+02 0.  0.
         12    1    1    2    0    0  0.31571633812E+02  0.25719581236E+01 -0.25490835473E+02  0.40659140710E+02  0.00000000000E+00 0. -1.
         11    1    3    3    0    0 -0.12002043027E+02  0.14360938887E+01  0.20250507645E+02  0.23583775411E+02  0.51100000000E-03 0. -1.
        -11    1    3    3    0    0 -0.61838140508E+01 -0.96517060069E+01 -0.11272562211E+00  0.11463319431E+02  0.51100000000E-03 0.  1.
        -12    1    3    3    0    0 -0.13385776734E+02  0.56436539946E+01  0.53530534497E+01  0.15481764448E+02  0.00000000000E+00 0.  1.
</event>
<event>
 7    1  0.2942034E-011  0.5052885E+02  0.7816164E-02  0.1300439E+00
        -11   -1    0    0    0    0  0.00000000000E+00  0.00000000000E+00  0.45593999997E+02  0.45594000000E+02  0.51100000000E-03 0. -1.
         11   -1    0    0    0    0 -0.00000000000E+00 -0.00000000000E+00 -0.45593999997E+02  0.45594000000E+02  0.51100000000E-03 0.  1.
    9900012    2    1    2    0    0 -0.67977818292E+01 -0.39480773499E+02 -0.69444212306E+01  0.50528852196E+02  0.29999976736E+02 0.  0.
         12    1    1    2    0    0  0.67977818292E+01  0.39480773499E+02  0.69444212306E+01  0.40659147804E+02  0.00000000000E+00 0. -1.
         11    1    3    3    0    0 -0.80007586098E+01 -0.10035562031E+02  0.57103870690E+01  0.14047532323E+02  0.51100000000E-03 0. -1.
        -11    1    3    3    0    0  0.88928647119E+01 -0.19044127356E+02 -0.56177990680E+01  0.21755953120E+02  0.51100000000E-03 0.  1.
        -12    1    3    3    0    0 -0.76898879313E+01 -0.10401084112E+02 -0.70370092316E+01  0.14725366754E+02  0.00000000000E+00 0.  1.
</event>
<event>
 7    1  0.2942034E-011  0.5052878E+02  0.7816164E-02  0.1300439E+00
        -11   -1    0    0    0    0  0.00000000000E+00  0.00000000000E+00  0.45593999997E+02  0.45594000000E+02  0.51100000000E-03 0. -1.
         11   -1    0    0    0    0 -0.00000000000E+00 -0.00000000000E+00 -0.45593999997E+02  0.45594000000E+02  0.51100000000E-03 0.  1.
    9900012    2    1    2    0    0 -0.34358262829E+02 -0.44260914151E+01 -0.21285951894E+02  0.50528778932E+02  0.29999754039E+02 0.  0.
         12    1    1    2    0    0  0.34358262829E+02  0.44260914151E+01  0.21285951894E+02  0.40659221068E+02  0.00000000000E+00 0. -1.
         11    1    3    3    0    0 -0.42047142481E+01  0.58300152613E+01 -0.68705712043E+01  0.99435128998E+01  0.51100000000E-03 0. -1.
        -11    1    3    3    0    0 -0.28767348865E+02 -0.12416252080E+02 -0.18031761724E+02  0.36150630805E+02  0.51100000000E-03 0.  1.
        -12    1    3    3    0    0 -0.13861997159E+01  0.21601454034E+01  0.36163810338E+01  0.44346352272E+01  0.00000000000E+00 0.  1.
</event>
<event>
 7    1  0.2942034E-011  0.5052886E+02  0.7816164E-02  0.1300439E+00
        -11   -1    0    0    0    0  0.00000000000E+00  0.00000000000E+00  0.45593999997E+02  0.45594000000E+02  0.51100000000E-03 0.  1.
         11   -1    0    0    0    0 -0.00000000000E+00 -0.00000000000E+00 -0.45593999997E+02  0.45594000000E+02  0.51100000000E-03 0. -1.
    9900012    2    1    2    0    0  0.26873910168E+02  0.22206670755E+02  0.20924199504E+02  0.50528863283E+02  0.30000010434E+02 0.  0.
         12    1    1    2    0    0 -0.26873910168E+02 -0.22206670755E+02 -0.20924199504E+02  0.40659136717E+02  0.00000000000E+00 0. -1.
         11    1    3    3    0    0  0.23266973450E+01  0.32265389411E+01 -0.63991822713E+01  0.75348263467E+01  0.51100000000E-03 0. -1.
        -11    1    3    3    0    0  0.25510581187E+02  0.17279257888E+02  0.27086690590E+02  0.41025008386E+02  0.51100000000E-03 0.  1.
        -12    1    3    3    0    0 -0.96336836382E+00  0.17008739252E+01  0.23669118537E+00  0.19690285500E+01  0.00000000000E+00 0.  1.
</event>
<event>
 7    1  0.2942034E-011  0.5052887E+02  0.7816164E-02  0.1300439E+00
        -11   -1    0    0    0    0  0.00000000000E+00  0.00000000000E+00  0.45593999997E+02  0.45594000000E+02  0.51100000000E-03 0. -1.
         11   -1    0    0    0    0 -0.00000000000E+00 -0.00000000000E+00 -0.45593999997E+02  0.45594000000E+02  0.51100000000E-03 0.  1.
    9900012    2    1    2    0    0  0.39066041969E+02 -0.83843873023E+01  0.75307094617E+01  0.50528866087E+02  0.30000018957E+02 0.  0.
         12    1    1    2    0    0 -0.39066041969E+02  0.83843873023E+01 -0.75307094617E+01  0.40659133913E+02  0.00000000000E+00 0. -1.
         11    1    3    3    0    0  0.31098495590E+02 -0.12794881072E+02  0.13707499805E+02  0.36314197785E+02  0.51100000000E-03 0.  1.
        -11    1    3    3    0    0  0.74643663130E+01  0.10704098076E+01 -0.74544159869E+01  0.10603341906E+02  0.51100000000E-03 0. -1.
         12    1    3    3    0    0  0.50318006634E+00  0.33400839616E+01  0.12776256434E+01  0.36113263955E+01  0.00000000000E+00 0. -1.
</event>
<event>
 7    1  0.2942034E-011  0.5052897E+02  0.7816164E-02  0.1300438E+00
        -11   -1    0    0    0    0  0.00000000000E+00  0.00000000000E+00  0.45593999997E+02  0.45594000000E+02  0.51100000000E-03 0.  1.
         11   -1    0    0    0    0 -0.00000000000E+00 -0.00000000000E+00 -0.45593999997E+02  0.45594000000E+02  0.51100000000E-03 0. -1.
    9900012    2    1    2    0    0  0.23366448816E+02 -0.33247563489E+02 -0.13285537470E+01  0.50528973164E+02  0.30000344427E+02 0.  0.
         12    1    1    2    0    0 -0.23366448816E+02  0.33247563489E+02  0.13285537470E+01  0.40659026836E+02  0.00000000000E+00 0. -1.
         11    1    3    3    0    0  0.10149877058E+02 -0.16264833311E+01 -0.43798930025E+01  0.11173581131E+02  0.51100000000E-03 0. -1.
        -11    1    3    3    0    0  0.11758547701E+02 -0.29571582540E+02  0.88529252225E+01  0.33032048426E+02  0.51100000000E-03 0.  1.
        -12    1    3    3    0    0  0.14580240573E+01 -0.20494976175E+01 -0.58015859670E+01  0.63233436067E+01  0.00000000000E+00 0.  1.
</event>
<event>
 7    1  0.2942034E-011  0.5052886E+02  0.7816164E-02  0.1300439E+00
        -11   -1    0    0    0    0  0.00000000000E+00  0.00000000000E+00  0.45593999997E+02  0.45594000000E+02  0.51100000000E-03 0.  1.
         11   -1    0    0    0    0 -0.00000000000E+00 -0.00000000000E+00 -0.45593999997E+02  0.45594000000E+02  0.51100000000E-03 0. -1.
    9900012    2    1    2    0    0  0.31272710956E+02 -0.25962332736E+02 -0.10679359148E+01  0.50528860084E+02  0.30000000710E+02 0.  0.
         12    1    1    2    0    0 -0.31272710956E+02  0.25962332736E+02  0.10679359148E+01  0.40659139916E+02  0.00000000000E+00 0. -1.
         11    1    3    3    0    0  0.77538738617E+01 -0.18003320815E+02 -0.89335728677E+01  0.21541839398E+02  0.51100000000E-03 0. -1.
        -11    1    3    3    0    0  0.22271956253E+01  0.49301856104E+00  0.55037020897E+01  0.59577012855E+01  0.51100000000E-03 0.  1.
        -12    1    3    3    0    0  0.21291641469E+02 -0.84520304826E+01  0.23619348632E+01  0.23029319400E+02  0.00000000000E+00 0.  1.
</event>
<event>
 7    1  0.2942034E-011  0.5052887E+02  0.7816164E-02  0.1300439E+00
        -11   -1    0    0    0    0  0.00000000000E+00  0.00000000000E+00  0.45593999997E+02  0.45594000000E+02  0.51100000000E-03 0. -1.
         11   -1    0    0    0    0 -0.00000000000E+00 -0.00000000000E+00 -0.45593999997E+02  0.45594000000E+02  0.51100000000E-03 0.  1.
    9900012    2    1    2    0    0 -0.79467250643E+01 -0.31604778355E+02 -0.24313632923E+02  0.50528865724E+02  0.30000017855E+02 0.  0.
         12    1    1    2    0    0  0.79467250643E+01  0.31604778355E+02  0.24313632923E+02  0.40659134276E+02  0.00000000000E+00 0. -1.
         11    1    3    3    0    0 -0.63777529374E+01 -0.42106893656E+01 -0.13045234522E+01  0.77528974688E+01  0.51100000000E-03 0. -1.
        -11    1    3    3    0    0  0.38978153249E+01 -0.16672581767E+02 -0.25276129603E+02  0.30529504992E+02  0.51100000000E-03 0.  1.
        -12    1    3    3    0    0 -0.54667874519E+01 -0.10721507223E+02  0.22670201326E+01  0.12246463263E+02  0.00000000000E+00 0.  1.
</event>
<event>
 7    1  0.2942034E-011  0.5052885E+02  0.7816164E-02  0.1300439E+00
        -11   -1    0    0    0    0  0.00000000000E+00  0.00000000000E+00  0.45593999997E+02  0.45594000000E+02  0.51100000000E-03 0. -1.
         11   -1    0    0    0    0 -0.00000000000E+00 -0.00000000000E+00 -0.45593999997E+02  0.45594000000E+02  0.51100000000E-03 0.  1.
    9900012    2    1    2    0    0  0.18017548259E+02 -0.34974775661E+02 -0.10261556299E+02  0.50528849548E+02  0.29999968686E+02 0.  0.
         12    1    1    2    0    0 -0.18017548259E+02  0.34974775661E+02  0.10261556299E+02  0.40659150452E+02  0.00000000000E+00 0. -1.
         11    1    3    3    0    0 -0.17933297161E+01 -0.16971188981E+02  0.25335326673E+01  0.17252712103E+02  0.51100000000E-03 0. -1.
        -11    1    3    3    0    0  0.11554207491E+02 -0.89833793408E+01 -0.14879724666E+02  0.20871200768E+02  0.51100000000E-03 0.  1.
        -12    1    3    3    0    0  0.82566704847E+01 -0.90202073398E+01  0.20846356996E+01  0.12404936676E+02  0.00000000000E+00 0.  1.
</event>
<event>
 7    1  0.2942034E-011  0.5052886E+02  0.7816164E-02  0.1300439E+00
        -11   -1    0    0    0    0  0.00000000000E+00  0.00000000000E+00  0.45593999997E+02  0.45594000000E+02  0.51100000000E-03 0.  1.
         11   -1    0    0    0    0 -0.00000000000E+00 -0.00000000000E+00 -0.45593999997E+02  0.45594000000E+02  0.51100000000E-03 0. -1.
    9900012    2    1    2    0    0  0.34667631081E+02  0.19439746925E+02  0.85684087766E+01  0.50528855466E+02  0.29999986675E+02 0.  0.
         12    1    1    2    0    0 -0.34667631081E+02 -0.19439746925E+02 -0.85684087766E+01  0.40659144534E+02  0.00000000000E+00 0. -1.
         11    1    3    3    0    0  0.93251510630E+01 -0.41189888708E+00 -0.15141778391E+01  0.94562591880E+01  0.51100000000E-03 0. -1.
        -11    1    3    3    0    0 -0.19617106944E+01  0.10063197396E+02  0.57209503329E+01  0.11740763334E+02  0.51100000000E-03 0.  1.
        -12    1    3    3    0    0  0.27304190712E+02  0.97884484159E+01  0.43616362828E+01  0.29331832945E+02  0.00000000000E+00 0.  1.
</event>
<event>
 7    1  0.2942034E-011  0.5052886E+02  0.7816164E-02  0.1300439E+00
        -11   -1    0    0    0    0  0.00000000000E+00  0.00000000000E+00  0.45593999997E+02  0.45594000000E+02  0.51100000000E-03 0.  1.
         11   -1    0    0    0    0 -0.00000000000E+00 -0.00000000000E+00 -0.45593999997E+02  0.45594000000E+02  0.51100000000E-03 0. -1.
    9900012    2    1    2    0    0  0.12106277915E+02  0.24078408811E+02  0.30443942436E+02  0.50528863673E+02  0.30000011621E+02 0.  0.
         12    1    1    2    0    0 -0.12106277915E+02 -0.24078408811E+02 -0.30443942436E+02  0.40659136327E+02  0.00000000000E+00 0. -1.
         11    1    3    3    0    0  0.27539553360E+01  0.10136632274E+02 -0.32526803298E+01  0.10996159031E+02  0.51100000000E-03 0. -1.
        -11    1    3    3    0    0  0.83697994523E+01  0.88196000440E+01  0.31693350991E+02  0.33945653405E+02  0.51100000000E-03 0.  1.
        -12    1    3    3    0    0  0.98252312659E+00  0.51221764927E+01  0.20032717748E+01  0.55870512366E+01  0.00000000000E+00 0.  1.
</event>
<event>
 7    1  0.2942034E-011  0.5052886E+02  0.7816164E-02  0.1300439E+00
        -11   -1    0    0    0    0  0.00000000000E+00  0.00000000000E+00  0.45593999997E+02  0.45594000000E+02  0.51100000000E-03 0. -1.
         11   -1    0    0    0    0 -0.00000000000E+00 -0.00000000000E+00 -0.45593999997E+02  0.45594000000E+02  0.51100000000E-03 0.  1.
    9900012    2    1    2    0    0  0.16690693282E+02  0.47095305990E+00 -0.37072422708E+02  0.50528861243E+02  0.30000004234E+02 0.  0.
         12    1    1    2    0    0 -0.16690693282E+02 -0.47095305990E+00  0.37072422708E+02  0.40659138757E+02  0.00000000000E+00 0. -1.
         11    1    3    3    0    0 -0.63492807377E+01 -0.44322012409E+01 -0.11666421994E+02  0.14002256108E+02  0.51100000000E-03 0. -1.
        -11    1    3    3    0    0  0.19823421507E+02 -0.51933267984E+00 -0.20645657063E+02  0.28626576856E+02  0.51100000000E-03 0.  1.
         12    1    3    3    0    0  0.32165525128E+01  0.54224869806E+01 -0.47603436512E+01  0.79000282785E+01  0.00000000000E+00 0. -1.
</event>
<event>
 7    1  0.2942034E-011  0.5052886E+02  0.7816164E-02  0.1300439E+00
        -11   -1    0    0    0    0  0.00000000000E+00  0.00000000000E+00  0.45593999997E+02  0.45594000000E+02  0.51100000000E-03 0.  1.
         11   -1    0    0    0    0 -0.00000000000E+00 -0.00000000000E+00 -0.45593999997E+02  0.45594000000E+02  0.51100000000E-03 0. -1.
    9900012    2    1    2    0    0  0.41910025964E+01  0.10894061134E+02  0.38947665214E+02  0.50528859621E+02  0.29999999303E+02 0.  0.
         12    1    1    2    0    0 -0.41910025964E+01 -0.10894061134E+02 -0.38947665214E+02  0.40659140379E+02  0.00000000000E+00 0. -1.
         11    1    3    3    0    0  0.79544361526E+01 -0.26407533945E+01  0.11043700810E+01  0.84537723256E+01  0.51100000000E-03 0. -1.
        -11    1    3    3    0    0 -0.74620818151E+01  0.12400343748E+02  0.31056731382E+02  0.34263271217E+02  0.51100000000E-03 0.  1.
        -12    1    3    3    0    0  0.36986482590E+01  0.11344707807E+01  0.67865637506E+01  0.78118160780E+01  0.00000000000E+00 0.  1.
</event>
<event>
 7    1  0.2942034E-011  0.5052886E+02  0.7816164E-02  0.1300439E+00
        -11   -1    0    0    0    0  0.00000000000E+00  0.00000000000E+00  0.45593999997E+02  0.45594000000E+02  0.51100000000E-03 0.  1.
         11   -1    0    0    0    0 -0.00000000000E+00 -0.00000000000E+00 -0.45593999997E+02  0.45594000000E+02  0.51100000000E-03 0. -1.
    9900012    2    1    2    0    0 -0.17478401873E+02  0.88517075115E+01  0.35627499304E+02  0.50528856322E+02  0.29999989278E+02 0.  0.
         12    1    1    2    0    0  0.17478401873E+02 -0.88517075115E+01 -0.35627499304E+02  0.40659143678E+02  0.00000000000E+00 0. -1.
         11    1    3    3    0    0 -0.13127334146E+02  0.42886953367E+01  0.45569743335E+01  0.14542552211E+02  0.51100000000E-03 0. -1.
        -11    1    3    3    0    0  0.29305207379E+00  0.50743543345E+01  0.30895532059E+02  0.31310842417E+02  0.51100000000E-03 0.  1.
        -12    1    3    3    0    0 -0.46441198011E+01 -0.51134215978E+00  0.17499291200E+00  0.46754616938E+01  0.00000000000E+00 0.  1.
</event>
<event>
 7    1  0.2942034E-011  0.5052886E+02  0.7816164E-02  0.1300439E+00
        -11   -1    0    0    0    0  0.00000000000E+00  0.00000000000E+00  0.45593999997E+02  0.45594000000E+02  0.51100000000E-03 0.  1.
         11   -1    0    0    0    0 -0.00000000000E+00 -0.00000000000E+00 -0.45593999997E+02  0.45594000000E+02  0.51100000000E-03 0. -1.
    9900012    2    1    2    0    0  0.57429016875E+01 -0.15702014533E+02  0.37062537736E+02  0.50528857318E+02  0.29999992305E+02 0.  0.
         12    1    1    2    0    0 -0.57429016875E+01  0.15702014533E+02 -0.37062537736E+02  0.40659142682E+02  0.00000000000E+00 0. -1.
         11    1    3    3    0    0 -0.78676266205E+01 -0.39021129184E+01  0.14058162562E+02  0.16575824829E+02  0.51100000000E-03 0. -1.
        -11    1    3    3    0    0  0.11410483421E+02 -0.10540730474E+01  0.42407973155E+01  0.12218615471E+02  0.51100000000E-03 0.  1.
        -12    1    3    3    0    0  0.22000448870E+01 -0.10745828568E+02  0.18763577858E+02  0.21734417019E+02  0.00000000000E+00 0.  1.
</event>
<event>
 7    1  0.2942034E-011  0.5052885E+02  0.7816164E-02  0.1300439E+00
        -11   -1    0    0    0    0  0.00000000000E+00  0.00000000000E+00  0.45593999997E+02  0.45594000000E+02  0.51100000000E-03 0.  1.
         11   -1    0    0    0    0 -0.00000000000E+00 -0.00000000000E+00 -0.45593999997E+02  0.45594000000E+02  0.51100000000E-03 0. -1.
    9900012    2    1    2    0    0 -0.21298313837E+02  0.11858680158E+01  0.34614183609E+02  0.50528853893E+02  0.29999981894E+02 0.  0.
         12    1    1    2    0    0  0.21298313837E+02 -0.11858680158E+01 -0.34614183609E+02  0.40659146107E+02  0.00000000000E+00 0. -1.
         11    1    3    3    0    0 -0.20620866487E+02 -0.55460454824E+01  0.17880953654E+02  0.27851521664E+02  0.51100000000E-03 0.  1.
        -11    1    3    3    0    0 -0.65534814284E+00  0.10905959036E+02  0.10344389903E+02  0.15045790987E+02  0.51100000000E-03 0. -1.
        -12    1    3    3    0    0 -0.22099206468E-01 -0.41740455380E+01  0.63888400512E+01  0.76315412419E+01  0.00000000000E+00 0.  1.
</event>
<event>
 7    1  0.2942034E-011  0.5052885E+02  0.7816164E-02  0.1300439E+00
        -11   -1    0    0    0    0  0.00000000000E+00  0.00000000000E+00  0.45593999997E+02  0.45594000000E+02  0.51100000000E-03 0.  1.
         11   -1    0    0    0    0 -0.00000000000E+00 -0.00000000000E+00 -0.45593999997E+02  0.45594000000E+02  0.51100000000E-03 0. -1.
    9900012    2    1    2    0    0  0.27104001024E+02  0.24908288569E+02  0.17266054370E+02  0.50528851651E+02  0.29999975080E+02 0.  0.
         12    1    1    2    0    0 -0.27104001024E+02 -0.24908288569E+02 -0.17266054370E+02  0.40659148349E+02  0.00000000000E+00 0. -1.
         11    1    3    3    0    0  0.38396353920E+00  0.41213562944E+01 -0.42248198163E+01  0.59145674775E+01  0.51100000000E-03 0. -1.
        -11    1    3    3    0    0  0.85761136712E+01  0.57735845844E+00  0.14021705669E+02  0.16446619672E+02  0.51100000000E-03 0.  1.
        -12    1    3    3    0    0  0.18143923814E+02  0.20209573816E+02  0.74691685170E+01  0.28167664502E+02  0.00000000000E+00 0.  1.
</event>
<event>
 7    1  0.2942034E-011  0.5052886E+02  0.7816164E-02  0.1300439E+00
        -11   -1    0    0    0    0  0.00000000000E+00  0.00000000000E+00  0.45593999997E+02  0.45594000000E+02  0.51100000000E-03 0. -1.
         11   -1    0    0    0    0 -0.00000000000E+00 -0.00000000000E+00 -0.45593999997E+02  0.45594000000E+02  0.51100000000E-03 0.  1.
    9900012    2    1    2    0    0  0.49662031063E+00 -0.21881641352E+02 -0.34265327108E+02  0.50528862014E+02  0.30000006577E+02 0.  0.
         12    1    1    2    0    0 -0.49662031063E+00  0.21881641352E+02  0.34265327108E+02  0.40659137986E+02  0.00000000000E+00 0. -1.
         11    1    3    3    0    0  0.72767643736E+01 -0.45509906644E+01 -0.20404175914E+02  0.22135790267E+02  0.51100000000E-03 0. -1.
        -11    1    3    3    0    0 -0.91509489775E+01 -0.58211892100E+01 -0.87710641455E+00  0.10880966268E+02  0.51100000000E-03 0.  1.
        -12    1    3    3    0    0  0.23708049146E+01 -0.11509461478E+02 -0.12984044779E+02  0.17512105478E+02  0.00000000000E+00 0.  1.
</event>
<event>
 7    1  0.2942034E-011  0.5052887E+02  0.7816164E-02  0.1300439E+00
        -11   -1    0    0    0    0  0.00000000000E+00  0.00000000000E+00  0.45593999997E+02  0.45594000000E+02  0.51100000000E-03 0. -1.
         11   -1    0    0    0    0 -0.00000000000E+00 -0.00000000000E+00 -0.45593999997E+02  0.45594000000E+02  0.51100000000E-03 0.  1.
    9900012    2    1    2    0    0 -0.12974233917E+02  0.32202954726E+02 -0.21161371722E+02  0.50528871972E+02  0.30000036846E+02 0.  0.
         12    1    1    2    0    0  0.12974233917E+02 -0.32202954726E+02  0.21161371722E+02  0.40659128028E+02  0.00000000000E+00 0. -1.
         11    1    3    3    0    0  0.26790076156E+01  0.25703478980E+02 -0.59108207856E+01  0.26510068202E+02  0.51100000000E-03 0. -1.
        -11    1    3    3    0    0 -0.11532103024E+02  0.41347255351E+01 -0.60490347047E+01  0.13662949042E+02  0.51100000000E-03 0.  1.
         12    1    3    3    0    0 -0.41211385080E+01  0.23647502114E+01 -0.92015162322E+01  0.10355854727E+02  0.00000000000E+00 0. -1.
</event>
<event>
 7    1  0.2942034E-011  0.5052886E+02  0.7816164E-02  0.1300439E+00
        -11   -1    0    0    0    0  0.00000000000E+00  0.00000000000E+00  0.45593999997E+02  0.45594000000E+02  0.51100000000E-03 0.  1.
         11   -1    0    0    0    0 -0.00000000000E+00 -0.00000000000E+00 -0.45593999997E+02  0.45594000000E+02  0.51100000000E-03 0. -1.
    9900012    2    1    2    0    0  0.26100083344E+02 -0.10444236993E+01  0.31158636710E+02  0.50528858186E+02  0.29999994942E+02 0.  0.
         12    1    1    2    0    0 -0.26100083344E+02  0.10444236993E+01 -0.31158636710E+02  0.40659141814E+02  0.00000000000E+00 0. -1.
         11    1    3    3    0    0  0.21849228192E+02 -0.35764066440E+01  0.31990141459E+02  0.38904352043E+02  0.51100000000E-03 0.  1.
        -11    1    3    3    0    0  0.20261661857E+01 -0.28191726789E+01 -0.37715713422E+01  0.51261910476E+01  0.51100000000E-03 0. -1.
        -12    1    3    3    0    0  0.22246889661E+01  0.53511556236E+01  0.29400665934E+01  0.64983150953E+01  0.00000000000E+00 0.  1.
</event>
<event>
 7    1  0.2942034E-011  0.5052886E+02  0.7816164E-02  0.1300439E+00
        -11   -1    0    0    0    0  0.00000000000E+00  0.00000000000E+00  0.45593999997E+02  0.45594000000E+02  0.51100000000E-03 0. -1.
         11   -1    0    0    0    0 -0.00000000000E+00 -0.00000000000E+00 -0.45593999997E+02  0.45594000000E+02  0.51100000000E-03 0.  1.
    9900012    2    1    2    0    0 -0.71718690195E+01  0.31122673948E+02 -0.25161665942E+02  0.50528856233E+02  0.29999989005E+02 0.  0.
         12    1    1    2    0    0  0.71718690195E+01 -0.31122673948E+02  0.25161665942E+02  0.40659143767E+02  0.00000000000E+00 0. -1.
         11    1    3    3    0    0  0.15237827204E+01  0.13681432914E+02  0.37470866865E+01  0.14266891016E+02  0.51100000000E-03 0. -1.
        -11    1    3    3    0    0  0.17154343119E+00  0.10767029930E+02 -0.15090126475E+02  0.18538346149E+02  0.51100000000E-03 0.  1.
         12    1    3    3    0    0 -0.88671951711E+01  0.66742111038E+01 -0.13818626154E+02  0.17723619067E+02  0.00000000000E+00 0. -1.
</event>
<event>
 7    1  0.2942034E-011  0.5052886E+02  0.7816164E-02  0.1300439E+00
        -11   -1    0    0    0    0  0.00000000000E+00  0.00000000000E+00  0.45593999997E+02  0.45594000000E+02  0.51100000000E-03 0.  1.
         11   -1    0    0    0    0 -0.00000000000E+00 -0.00000000000E+00 -0.45593999997E+02  0.45594000000E+02  0.51100000000E-03 0. -1.
    9900012    2    1    2    0    0  0.19978495152E+02 -0.28770259321E+02  0.20646975119E+02  0.50528859927E+02  0.30000000235E+02 0.  0.
         12    1    1    2    0    0 -0.19978495152E+02  0.28770259321E+02 -0.20646975119E+02  0.40659140073E+02  0.00000000000E+00 0. -1.
         11    1    3    3    0    0  0.21893600951E+02 -0.15635159981E+02  0.40530097073E+01  0.27206890271E+02  0.51100000000E-03 0. -1.
        -11    1    3    3    0    0 -0.41940936049E+00 -0.13300602598E+02  0.10236740104E+02  0.16789067333E+02  0.51100000000E-03 0.  1.
        -12    1    3    3    0    0 -0.14956964391E+01  0.16550325895E+00  0.63572253072E+01  0.65329023239E+01  0.00000000000E+00 0.  1.
</event>
<event>
 7    1  0.2942034E-011  0.5052886E+02  0.7816164E-02  0.1300439E+00
        -11   -1    0    0    0    0  0.00000000000E+00  0.00000000000E+00  0.45593999997E+02  0.45594000000E+02  0.51100000000E-03 0.  1.
         11   -1    0    0    0    0 -0.00000000000E+00 -0.00000000000E+00 -0.45593999997E+02  0.45594000000E+02  0.51100000000E-03 0. -1.
    9900012    2    1    2    0    0 -0.67686342140E+01 -0.31436425979E+02  0.24881764445E+02  0.50528862167E+02  0.30000007042E+02 0.  0.
         12    1    1    2    0    0  0.67686342140E+01  0.31436425979E+02 -0.24881764445E+02  0.40659137833E+02  0.00000000000E+00 0. -1.
         11    1    3    3    0    0 -0.13011379668E+02 -0.12498370380E+02  0.19827669475E+01  0.18150389199E+02  0.51100000000E-03 0. -1.
        -11    1    3    3    0    0  0.50930344883E+01 -0.12020141270E+02  0.21611653054E+02  0.25248491924E+02  0.51100000000E-03 0.  1.
        -12    1    3    3    0    0  0.11497109660E+01 -0.69179143295E+01  0.12873444434E+01  0.71299810443E+01  0.00000000000E+00 0.  1.
</event>
<event>
 7    1  0.2942034E-011  0.5052886E+02  0.7816164E-02  0.1300439E+00
        -11   -1    0    0    0    0  0.00000000000E+00  0.00000000000E+00  0.45593999997E+02  0.45594000000E+02  0.51100000000E-03 0. -1.
         11   -1    0    0    0    0 -0.00000000000E+00 -0.00000000000E+00 -0.45593999997E+02  0.45594000000E+02  0.51100000000E-03 0.  1.
    9900012    2    1    2    0    0 -0.14417614486E+02  0.12968689045E+02 -0.35736694731E+02  0.50528857691E+02  0.29999993437E+02 0.  0.
         12    1    1    2    0    0  0.14417614486E+02 -0.12968689045E+02  0.35736694731E+02  0.40659142309E+02  0.00000000000E+00 0. -1.
         11    1    3    3    0    0 -0.28289140589E+01 -0.56707301346E+01 -0.49169057439E+01  0.80209661119E+01  0.51100000000E-03 0. -1.
        -11    1    3    3    0    0  0.74860738539E+00  0.96919499425E+01 -0.23839297477E+02  0.25745026921E+02  0.51100000000E-03 0.  1.
        -12    1    3    3    0    0 -0.12337307812E+02  0.89474692375E+01 -0.69804915101E+01  0.16762864658E+02  0.00000000000E+00 0.  1.
</event>
<event>
 7    1  0.2942034E-011  0.5052886E+02  0.7816164E-02  0.1300439E+00
        -11   -1    0    0    0    0  0.00000000000E+00  0.00000000000E+00  0.45593999997E+02  0.45594000000E+02  0.51100000000E-03 0. -1.
         11   -1    0    0    0    0 -0.00000000000E+00 -0.00000000000E+00 -0.45593999997E+02  0.45594000000E+02  0.51100000000E-03 0.  1.
    9900012    2    1    2    0    0 -0.96161975477E+01  0.39289516094E+02 -0.41265890635E+01  0.50528855057E+02  0.29999985433E+02 0.  0.
         12    1    1    2    0    0  0.96161975477E+01 -0.39289516094E+02  0.41265890635E+01  0.40659144943E+02  0.00000000000E+00 0. -1.
         11    1    3    3    0    0 -0.90989816523E+01  0.13293394146E+02  0.52964800439E+01  0.16957549828E+02  0.51100000000E-03 0. -1.
        -11    1    3    3    0    0 -0.23495976252E+01  0.27902974491E+02 -0.11436865358E+02  0.30247288869E+02  0.51100000000E-03 0.  1.
        -12    1    3    3    0    0  0.18323817298E+01 -0.19068525436E+01  0.20137962509E+01  0.33240163608E+01  0.00000000000E+00 0.  1.
</event>
<event>
 7    1  0.2942034E-011  0.5052885E+02  0.7816164E-02  0.1300439E+00
        -11   -1    0    0    0    0  0.00000000000E+00  0.00000000000E+00  0.45593999997E+02  0.45594000000E+02  0.51100000000E-03 0.  1.
         11   -1    0    0    0    0 -0.00000000000E+00 -0.00000000000E+00 -0.45593999997E+02  0.45594000000E+02  0.51100000000E-03 0. -1.
    9900012    2    1    2    0    0 -0.39461905966E+02  0.61434180977E+01  0.76277834970E+01  0.50528847408E+02  0.29999962182E+02 0.  0.
         12    1    1    2    0    0  0.39461905966E+02 -0.61434180977E+01 -0.76277834970E+01  0.40659152592E+02  0.00000000000E+00 0. -1.
         11    1    3    3    0    0 -0.24244673106E+02 -0.52164856632E+01  0.41502930544E+01  0.25144399563E+02  0.51100000000E-03 0. -1.
        -11    1    3    3    0    0 -0.56171711302E+01  0.93278875155E+01  0.89980202504E+01  0.14125383736E+02  0.51100000000E-03 0.  1.
         12    1    3    3    0    0 -0.96000617301E+01  0.20320162454E+01 -0.55205298079E+01  0.11259064109E+02  0.00000000000E+00 0. -1.
</event>
<event>
 7    1  0.2942034E-011  0.5052884E+02  0.7816164E-02  0.1300439E+00
        -11   -1    0    0    0    0  0.00000000000E+00  0.00000000000E+00  0.45593999997E+02  0.45594000000E+02  0.51100000000E-03 0. -1.
         11   -1    0    0    0    0 -0.00000000000E+00 -0.00000000000E+00 -0.45593999997E+02  0.45594000000E+02  0.51100000000E-03 0.  1.
    9900012    2    1    2    0    0  0.20849130056E+02  0.30958740737E+02 -0.16125670664E+02  0.50528842281E+02  0.29999946596E+02 0.  0.
         12    1    1    2    0    0 -0.20849130056E+02 -0.30958740737E+02  0.16125670664E+02  0.40659157719E+02  0.00000000000E+00 0. -1.
         11    1    3    3    0    0  0.97017718731E+01  0.16188615013E+02 -0.24056135231E+01  0.19025840591E+02  0.51100000000E-03 0. -1.
        -11    1    3    3    0    0 -0.39126595961E+01  0.39117873489E+01 -0.11554495399E+02  0.12810829386E+02  0.51100000000E-03 0.  1.
        -12    1    3    3    0    0  0.15060017779E+02  0.10858338375E+02 -0.21655617426E+01  0.18692172304E+02  0.00000000000E+00 0.  1.
</event>
<event>
 7    1  0.2942034E-011  0.5052886E+02  0.7816164E-02  0.1300439E+00
        -11   -1    0    0    0    0  0.00000000000E+00  0.00000000000E+00  0.45593999997E+02  0.45594000000E+02  0.51100000000E-03 0.  1.
         11   -1    0    0    0    0 -0.00000000000E+00 -0.00000000000E+00 -0.45593999997E+02  0.45594000000E+02  0.51100000000E-03 0. -1.
    9900012    2    1    2    0    0  0.25701086349E+02  0.29941090146E+02  0.98056486923E+01  0.50528862467E+02  0.30000007954E+02 0.  0.
         12    1    1    2    0    0 -0.25701086349E+02 -0.29941090146E+02 -0.98056486923E+01  0.40659137533E+02  0.00000000000E+00 0. -1.
         11    1    3    3    0    0  0.12373093971E+02  0.10442901530E+00  0.76114137378E+01  0.14527146285E+02  0.51100000000E-03 0. -1.
        -11    1    3    3    0    0  0.95333735824E+01  0.16095683307E+02  0.83351021912E+01  0.20479994184E+02  0.51100000000E-03 0.  1.
         12    1    3    3    0    0  0.37946187957E+01  0.13740977823E+02 -0.61408672367E+01  0.15521721997E+02  0.00000000000E+00 0. -1.
</event>
<event>
 7    1  0.2942034E-011  0.5052886E+02  0.7816164E-02  0.1300439E+00
        -11   -1    0    0    0    0  0.00000000000E+00  0.00000000000E+00  0.45593999997E+02  0.45594000000E+02  0.51100000000E-03 0.  1.
         11   -1    0    0    0    0 -0.00000000000E+00 -0.00000000000E+00 -0.45593999997E+02  0.45594000000E+02  0.51100000000E-03 0. -1.
    9900012    2    1    2    0    0  0.18524596652E+02 -0.20191289583E+02  0.30038591563E+02  0.50528857864E+02  0.29999993965E+02 0.  0.
         12    1    1    2    0    0 -0.18524596652E+02  0.20191289583E+02 -0.30038591563E+02  0.40659142136E+02  0.00000000000E+00 0. -1.
         11    1    3    3    0    0 -0.52026135715E+01 -0.11943810968E+02  0.13196110066E+02  0.18543438989E+02  0.51100000000E-03 0. -1.
        -11    1    3    3    0    0  0.81773588739E+01 -0.82346202852E+01  0.80255311565E+01  0.14109830616E+02  0.51100000000E-03 0.  1.
         12    1    3    3    0    0  0.15549851349E+02 -0.12858329406E-01  0.88169503405E+01  0.17875588260E+02  0.00000000000E+00 0. -1.
</event>
<event>
 7    1  0.2942034E-011  0.5052886E+02  0.7816164E-02  0.1300439E+00
        -11   -1    0    0    0    0  0.00000000000E+00  0.00000000000E+00  0.45593999997E+02  0.45594000000E+02  0.51100000000E-03 0.  1.
         11   -1    0    0    0    0 -0.00000000000E+00 -0.00000000000E+00 -0.45593999997E+02  0.45594000000E+02  0.51100000000E-03 0. -1.
    9900012    2    1    2    0    0 -0.33517775211E+02  0.22853578869E+02 -0.27273170893E+01  0.50528861043E+02  0.30000003627E+02 0.  0.
         12    1    1    2    0    0  0.33517775211E+02 -0.22853578869E+02  0.27273170893E+01  0.40659138957E+02  0.00000000000E+00 0. -1.
         11    1    3    3    0    0 -0.27550140966E+02  0.42746429028E+01  0.25675437330E+01  0.27997769917E+02  0.51100000000E-03 0.  1.
        -11    1    3    3    0    0 -0.17252939610E+01  0.43686956776E+00 -0.33563673705E+01  0.37990388861E+01  0.51100000000E-03 0. -1.
         12    1    3    3    0    0 -0.42423402831E+01  0.18142066399E+02 -0.19384934518E+01  0.18732052241E+02  0.00000000000E+00 0. -1.
</event>
<event>
 7    1  0.2942034E-011  0.5052883E+02  0.7816164E-02  0.1300439E+00
        -11   -1    0    0    0    0  0.00000000000E+00  0.00000000000E+00  0.45593999997E+02  0.45594000000E+02  0.51100000000E-03 0. -1.
         11   -1    0    0    0    0 -0.00000000000E+00 -0.00000000000E+00 -0.45593999997E+02  0.45594000000E+02  0.51100000000E-03 0.  1.
    9900012    2    1    2    0    0  0.90619823948E+01 -0.39370056106E+02 -0.45876928766E+01  0.50528834137E+02  0.29999921844E+02 0.  0.
         12    1    1    2    0    0 -0.90619823948E+01  0.39370056106E+02  0.45876928766E+01  0.40659165863E+02  0.00000000000E+00 0. -1.
         11    1    3    3    0    0  0.47367322626E+01 -0.10300494492E+02  0.11667617134E+02  0.16268684924E+02  0.51100000000E-03 0. -1.
        -11    1    3    3    0    0  0.55216261767E+01 -0.24906931372E+02 -0.15535386636E+02  0.29869580248E+02  0.51100000000E-03 0.  1.
        -12    1    3    3    0    0 -0.11963760445E+01 -0.41626302421E+01 -0.71992337490E+00  0.43905689651E+01  0.00000000000E+00 0.  1.
</event>
<event>
 7    1  0.2942034E-011  0.5052886E+02  0.7816164E-02  0.1300439E+00
        -11   -1    0    0    0    0  0.00000000000E+00  0.00000000000E+00  0.45593999997E+02  0.45594000000E+02  0.51100000000E-03 0.  1.
         11   -1    0    0    0    0 -0.00000000000E+00 -0.00000000000E+00 -0.45593999997E+02  0.45594000000E+02  0.51100000000E-03 0. -1.
    9900012    2    1    2    0    0 -0.33466478356E+02  0.76161401876E+01  0.21798042365E+02  0.50528863070E+02  0.30000009788E+02 0.  0.
         12    1    1    2    0    0  0.33466478356E+02 -0.76161401876E+01 -0.21798042365E+02  0.40659136930E+02  0.00000000000E+00 0. -1.
         11    1    3    3    0    0 -0.31529324471E+02  0.10000810007E+02  0.98987387875E+01  0.34526794410E+02  0.51100000000E-03 0. -1.
        -11    1    3    3    0    0 -0.50823180985E+01 -0.10539914726E+01  0.11432037151E+02  0.12555171403E+02  0.51100000000E-03 0.  1.
         12    1    3    3    0    0  0.31451642133E+01 -0.13306783466E+01  0.46726642712E+00  0.34468972576E+01  0.00000000000E+00 0. -1.
</event>
<event>
 7    1  0.2942034E-011  0.5052885E+02  0.7816164E-02  0.1300439E+00
        -11   -1    0    0    0    0  0.00000000000E+00  0.00000000000E+00  0.45593999997E+02  0.45594000000E+02  0.51100000000E-03 0. -1.
         11   -1    0    0    0    0 -0.00000000000E+00 -0.00000000000E+00 -0.45593999997E+02  0.45594000000E+02  0.51100000000E-03 0.  1.
    9900012    2    1    2    0    0 -0.64692572710E+01  0.29285400397E+02 -0.27453245399E+02  0.50528847906E+02  0.29999963696E+02 0.  0.
         12    1    1    2    0    0  0.64692572710E+01 -0.29285400397E+02  0.27453245399E+02  0.40659152094E+02  0.00000000000E+00 0. -1.
         11    1    3    3    0    0 -0.36927263604E+01  0.11374581207E+02  0.43628089114E+00  0.11966940581E+02  0.51100000000E-03 0. -1.
        -11    1    3    3    0    0 -0.53587845504E+01  0.21527948725E+02 -0.23388767916E+02  0.32236681173E+02  0.51100000000E-03 0.  1.
        -12    1    3    3    0    0  0.25822536399E+01 -0.36171295345E+01 -0.45007583748E+01  0.63252261524E+01  0.00000000000E+00 0.  1.
</event>
<event>
 7    1  0.2942034E-011  0.5052888E+02  0.7816164E-02  0.1300439E+00
        -11   -1    0    0    0    0  0.00000000000E+00  0.00000000000E+00  0.45593999997E+02  0.45594000000E+02  0.51100000000E-03 0.  1.
         11   -1    0    0    0    0 -0.00000000000E+00 -0.00000000000E+00 -0.45593999997E+02  0.45594000000E+02  0.51100000000E-03 0. -1.
    9900012    2    1    2    0    0 -0.82185241053E+01  0.19195151400E+02  0.34887901608E+02  0.50528884732E+02  0.30000075632E+02 0.  0.
         12    1    1    2    0    0  0.82185241053E+01 -0.19195151400E+02 -0.34887901608E+02  0.40659115268E+02  0.00000000000E+00 0. -1.
         11    1    3    3    0    0 -0.80390035551E+01 -0.51113894732E+01  0.75003446860E+01  0.12124646435E+02  0.51100000000E-03 0. -1.
        -11    1    3    3    0    0  0.36568301750E+01  0.12730869103E+02  0.20476653001E+02  0.24387307220E+02  0.51100000000E-03 0.  1.
         12    1    3    3    0    0 -0.38363507252E+01  0.11575671770E+02  0.69109039214E+01  0.14016931077E+02  0.00000000000E+00 0. -1.
</event>
<event>
 7    1  0.2942034E-011  0.5052889E+02  0.7816164E-02  0.1300439E+00
        -11   -1    0    0    0    0  0.00000000000E+00  0.00000000000E+00  0.45593999997E+02  0.45594000000E+02  0.51100000000E-03 0. -1.
         11   -1    0    0    0    0 -0.00000000000E+00 -0.00000000000E+00 -0.45593999997E+02  0.45594000000E+02  0.51100000000E-03 0.  1.
    9900012    2    1    2    0    0 -0.33031751824E+02  0.23120258728E+02 -0.52460037517E+01  0.50528886045E+02  0.30000079622E+02 0.  0.
         12    1    1    2    0    0  0.33031751824E+02 -0.23120258728E+02  0.52460037517E+01  0.40659113955E+02  0.00000000000E+00 0. -1.
         11    1    3    3    0    0 -0.63300173330E+01 -0.35998852743E+01  0.32388835373E+01  0.79698594877E+01  0.51100000000E-03 0. -1.
        -11    1    3    3    0    0 -0.21727069703E+02  0.23255404535E+02  0.36977587150E+00  0.31827914358E+02  0.51100000000E-03 0.  1.
        -12    1    3    3    0    0 -0.49746647883E+01  0.34647394680E+01 -0.88546631604E+01  0.10731112199E+02  0.00000000000E+00 0.  1.
</event>
<event>
 7    1  0.2942034E-011  0.5052886E+02  0.7816164E-02  0.1300439E+00
        -11   -1    0    0    0    0  0.00000000000E+00  0.00000000000E+00  0.45593999997E+02  0.45594000000E+02  0.51100000000E-03 0.  1.
         11   -1    0    0    0    0 -0.00000000000E+00 -0.00000000000E+00 -0.45593999997E+02  0.45594000000E+02  0.51100000000E-03 0. -1.
    9900012    2    1    2    0    0  0.15017393069E+02  0.37649658030E+02 -0.31854243498E+01  0.50528858683E+02  0.29999996453E+02 0.  0.
         12    1    1    2    0    0 -0.15017393069E+02 -0.37649658030E+02  0.31854243498E+01  0.40659141317E+02  0.00000000000E+00 0. -1.
         11    1    3    3    0    0  0.40840425861E+01  0.20865755840E+01 -0.35911815664E+01  0.58249280525E+01  0.51100000000E-03 0. -1.
        -11    1    3    3    0    0  0.64936832766E+01  0.34686764979E+02 -0.70458157223E+01  0.35985873710E+02  0.51100000000E-03 0.  1.
        -12    1    3    3    0    0  0.44396672064E+01  0.87631746623E+00  0.74515729389E+01  0.87180569205E+01  0.00000000000E+00 0.  1.
</event>
<event>
 7    1  0.2942034E-011  0.5052886E+02  0.7816164E-02  0.1300439E+00
        -11   -1    0    0    0    0  0.00000000000E+00  0.00000000000E+00  0.45593999997E+02  0.45594000000E+02  0.51100000000E-03 0. -1.
         11   -1    0    0    0    0 -0.00000000000E+00 -0.00000000000E+00 -0.45593999997E+02  0.45594000000E+02  0.51100000000E-03 0.  1.
    9900012    2    1    2    0    0  0.15412949310E+02 -0.10150795845E+01 -0.37610855805E+02  0.50528857518E+02  0.29999992911E+02 0.  0.
         12    1    1    2    0    0 -0.15412949310E+02  0.10150795845E+01  0.37610855805E+02  0.40659142482E+02  0.00000000000E+00 0. -1.
         11    1    3    3    0    0  0.20034036159E+02 -0.56228852368E+01 -0.19121167407E+02  0.28259484894E+02  0.51100000000E-03 0. -1.
        -11    1    3    3    0    0 -0.66972737413E+01  0.66611426981E+01 -0.14902363418E+02  0.17643829894E+02  0.51100000000E-03 0.  1.
         12    1    3    3    0    0  0.20761868920E+01 -0.20533370458E+01 -0.35873249799E+01  0.46255427298E+01  0.00000000000E+00 0. -1.
</event>
<event>
 7    1  0.2942034E-011  0.5052886E+02  0.7816164E-02  0.1300439E+00
        -11   -1    0    0    0    0  0.00000000000E+00  0.00000000000E+00  0.45593999997E+02  0.45594000000E+02  0.51100000000E-03 0. -1.
         11   -1    0    0    0    0 -0.00000000000E+00 -0.00000000000E+00 -0.45593999997E+02  0.45594000000E+02  0.51100000000E-03 0.  1.
    9900012    2    1    2    0    0 -0.13368259611E+02  0.30336231272E+02 -0.23540781934E+02  0.50528859491E+02  0.29999998910E+02 0.  0.
         12    1    1    2    0    0  0.13368259611E+02 -0.30336231272E+02  0.23540781934E+02  0.40659140509E+02  0.00000000000E+00 0. -1.
         11    1    3    3    0    0 -0.22901346740E+00 -0.23999286383E+00 -0.12302639167E+02  0.12307110728E+02  0.51100000000E-03 0. -1.
        -11    1    3    3    0    0 -0.71651090715E+01  0.14846544893E+02 -0.13417402783E+02  0.21255243611E+02  0.51100000000E-03 0.  1.
         12    1    3    3    0    0 -0.59741370724E+01  0.15729679243E+02  0.21792600160E+01  0.16966505152E+02  0.00000000000E+00 0. -1.
</event>
<event>
 7    1  0.2942034E-011  0.5052887E+02  0.7816164E-02  0.1300439E+00
        -11   -1    0    0    0    0  0.00000000000E+00  0.00000000000E+00  0.45593999997E+02  0.45594000000E+02  0.51100000000E-03 0.  1.
         11   -1    0    0    0    0 -0.00000000000E+00 -0.00000000000E+00 -0.45593999997E+02  0.45594000000E+02  0.51100000000E-03 0. -1.
    9900012    2    1    2    0    0  0.14166393202E+02  0.11337502201E+01  0.38094523084E+02  0.50528870952E+02  0.30000033747E+02 0.  0.
         12    1    1    2    0    0 -0.14166393202E+02 -0.11337502201E+01 -0.38094523084E+02  0.40659129048E+02  0.00000000000E+00 0. -1.
         11    1    3    3    0    0  0.16075341529E+01  0.76418358730E+01  0.42406770381E+01  0.88862344987E+01  0.51100000000E-03 0. -1.
        -11    1    3    3    0    0  0.13889348230E+02  0.13501790080E+01  0.29324156985E+02  0.32475269988E+02  0.51100000000E-03 0.  1.
        -12    1    3    3    0    0 -0.13304891809E+01 -0.78582646609E+01  0.45296890605E+01  0.91673664662E+01  0.00000000000E+00 0.  1.
</event>
<event>
 7    1  0.2942034E-011  0.5052886E+02  0.7816164E-02  0.1300439E+00
        -11   -1    0    0    0    0  0.00000000000E+00  0.00000000000E+00  0.45593999997E+02  0.45594000000E+02  0.51100000000E-03 0.  1.
         11   -1    0    0    0    0 -0.00000000000E+00 -0.00000000000E+00 -0.45593999997E+02  0.45594000000E+02  0.51100000000E-03 0. -1.
    9900012    2    1    2    0    0  0.22694182105E+02  0.31989611496E+02 -0.10714670250E+02  0.50528864450E+02  0.30000013983E+02 0.  0.
         12    1    1    2    0    0 -0.22694182105E+02 -0.31989611496E+02  0.10714670250E+02  0.40659135550E+02  0.00000000000E+00 0. -1.
         11    1    3    3    0    0  0.24129061680E+02  0.28729340546E+02 -0.16854169435E+02  0.41129668773E+02  0.51100000000E-03 0. -1.
        -11    1    3    3    0    0  0.16478091665E+01  0.15070839883E+01  0.53052130579E+01  0.57560284092E+01  0.51100000000E-03 0.  1.
         12    1    3    3    0    0 -0.30826887415E+01  0.17531869619E+01  0.83428612728E+00  0.36431672680E+01  0.00000000000E+00 0. -1.
</event>
<event>
 7    1  0.2942034E-011  0.5052886E+02  0.7816164E-02  0.1300439E+00
        -11   -1    0    0    0    0  0.00000000000E+00  0.00000000000E+00  0.45593999997E+02  0.45594000000E+02  0.51100000000E-03 0. -1.
         11   -1    0    0    0    0 -0.00000000000E+00 -0.00000000000E+00 -0.45593999997E+02  0.45594000000E+02  0.51100000000E-03 0.  1.
    9900012    2    1    2    0    0 -0.19149584621E+02 -0.34186382326E+02 -0.10851289688E+02  0.50528858154E+02  0.29999994846E+02 0.  0.
         12    1    1    2    0    0  0.19149584621E+02  0.34186382326E+02  0.10851289688E+02  0.40659141846E+02  0.00000000000E+00 0. -1.
         11    1    3    3    0    0 -0.33442063123E+00  0.25293416329E+01  0.53776155276E+01  0.59521555153E+01  0.51100000000E-03 0. -1.
        -11    1    3    3    0    0 -0.11416726286E+02 -0.17393823411E+02 -0.74169475195E+01  0.22088409691E+02  0.51100000000E-03 0.  1.
         12    1    3    3    0    0 -0.73984377045E+01 -0.19321900548E+02 -0.88119576962E+01  0.22488292948E+02  0.00000000000E+00 0. -1.
</event>
<event>
 7    1  0.2942034E-011  0.5052885E+02  0.7816164E-02  0.1300439E+00
        -11   -1    0    0    0    0  0.00000000000E+00  0.00000000000E+00  0.45593999997E+02  0.45594000000E+02  0.51100000000E-03 0.  1.
         11   -1    0    0    0    0 -0.00000000000E+00 -0.00000000000E+00 -0.45593999997E+02  0.45594000000E+02  0.51100000000E-03 0. -1.
    9900012    2    1    2    0    0 -0.17734269523E+02  0.13060074043E+02  0.34177433024E+02  0.50528846324E+02  0.29999958886E+02 0.  0.
         12    1    1    2    0    0  0.17734269523E+02 -0.13060074043E+02 -0.34177433024E+02  0.40659153676E+02  0.00000000000E+00 0. -1.
         11    1    3    3    0    0 -0.20726044225E+02  0.10521864645E+01  0.28752819745E+02  0.35459845588E+02  0.51100000000E-03 0. -1.
        -11    1    3    3    0    0  0.20692203145E+01  0.11992268809E+02  0.30855850191E+01  0.12554561684E+02  0.51100000000E-03 0.  1.
         12    1    3    3    0    0  0.92255438775E+00  0.15618769230E-01  0.23390282605E+01  0.25144390523E+01  0.00000000000E+00 0. -1.
</event>
<event>
 7    1  0.2942034E-011  0.5052886E+02  0.7816164E-02  0.1300439E+00
        -11   -1    0    0    0    0  0.00000000000E+00  0.00000000000E+00  0.45593999997E+02  0.45594000000E+02  0.51100000000E-03 0.  1.
         11   -1    0    0    0    0 -0.00000000000E+00 -0.00000000000E+00 -0.45593999997E+02  0.45594000000E+02  0.51100000000E-03 0. -1.
    9900012    2    1    2    0    0 -0.18106314201E+02  0.13767677408E+02  0.33701310112E+02  0.50528857628E+02  0.29999993246E+02 0.  0.
         12    1    1    2    0    0  0.18106314201E+02 -0.13767677408E+02 -0.33701310112E+02  0.40659142372E+02  0.00000000000E+00 0. -1.
         11    1    3    3    0    0 -0.87155150923E+01 -0.88465747970E+01  0.86630641822E+01  0.15141689808E+02  0.51100000000E-03 0. -1.
        -11    1    3    3    0    0 -0.41376600736E+01  0.12720591470E+02  0.16837815669E+02  0.21504551030E+02  0.51100000000E-03 0.  1.
         12    1    3    3    0    0 -0.52531390354E+01  0.98936607354E+01  0.82004302608E+01  0.13882616790E+02  0.00000000000E+00 0. -1.
</event>
<event>
 7    1  0.2942034E-011  0.5052890E+02  0.7816164E-02  0.1300439E+00
        -11   -1    0    0    0    0  0.00000000000E+00  0.00000000000E+00  0.45593999997E+02  0.45594000000E+02  0.51100000000E-03 0.  1.
         11   -1    0    0    0    0 -0.00000000000E+00 -0.00000000000E+00 -0.45593999997E+02  0.45594000000E+02  0.51100000000E-03 0. -1.
    9900012    2    1    2    0    0  0.38894846053E+02 -0.11715198167E+02  0.17628319329E+01  0.50528899002E+02  0.30000119006E+02 0.  0.
         12    1    1    2    0    0 -0.38894846053E+02  0.11715198167E+02 -0.17628319329E+01  0.40659100998E+02  0.00000000000E+00 0. -1.
         11    1    3    3    0    0 -0.18444661023E+01 -0.12214900904E+01 -0.20479735634E+01  0.30146789581E+01  0.51100000000E-03 0. -1.
        -11    1    3    3    0    0  0.35861243073E+02 -0.11227604763E+02  0.10671981887E+02  0.39063781962E+02  0.51100000000E-03 0.  1.
        -12    1    3    3    0    0  0.48780690816E+01  0.73389668625E+00 -0.68611763910E+01  0.84504380821E+01  0.00000000000E+00 0.  1.
</event>
<event>
 7    1  0.2942034E-011  0.5052887E+02  0.7816164E-02  0.1300439E+00
        -11   -1    0    0    0    0  0.00000000000E+00  0.00000000000E+00  0.45593999997E+02  0.45594000000E+02  0.51100000000E-03 0.  1.
         11   -1    0    0    0    0 -0.00000000000E+00 -0.00000000000E+00 -0.45593999997E+02  0.45594000000E+02  0.51100000000E-03 0. -1.
    9900012    2    1    2    0    0 -0.18969029240E+02 -0.51773568360E+01  0.35588426737E+02  0.50528865581E+02  0.30000017419E+02 0.  0.
         12    1    1    2    0    0  0.18969029240E+02  0.51773568360E+01 -0.35588426737E+02  0.40659134419E+02  0.00000000000E+00 0. -1.
         11    1    3    3    0    0 -0.14603620824E+02  0.20620934736E+01  0.56758367660E+01  0.15802945736E+02  0.51100000000E-03 0. -1.
        -11    1    3    3    0    0 -0.21159237284E+01 -0.93388129612E+01  0.76621296967E+01  0.12263718543E+02  0.51100000000E-03 0.  1.
         12    1    3    3    0    0 -0.22494846871E+01  0.20993626516E+01  0.22250460275E+02  0.22462201302E+02  0.00000000000E+00 0. -1.
</event>
<event>
 7    1  0.2942034E-011  0.5052886E+02  0.7816164E-02  0.1300439E+00
        -11   -1    0    0    0    0  0.00000000000E+00  0.00000000000E+00  0.45593999997E+02  0.45594000000E+02  0.51100000000E-03 0. -1.
         11   -1    0    0    0    0 -0.00000000000E+00 -0.00000000000E+00 -0.45593999997E+02  0.45594000000E+02  0.51100000000E-03 0.  1.
    9900012    2    1    2    0    0  0.17826566711E+01 -0.18499238061E+02 -0.36163046500E+02  0.50528860735E+02  0.30000002690E+02 0.  0.
         12    1    1    2    0    0 -0.17826566711E+01  0.18499238061E+02  0.36163046500E+02  0.40659139265E+02  0.00000000000E+00 0. -1.
         11    1    3    3    0    0  0.27167732922E+01 -0.14628446884E+02 -0.23343890261E+01  0.15060600511E+02  0.51100000000E-03 0. -1.
        -11    1    3    3    0    0 -0.43822927352E+01 -0.51182304115E+01 -0.17983703757E+02  0.19204540433E+02  0.51100000000E-03 0.  1.
         12    1    3    3    0    0  0.34481761140E+01  0.12474392345E+01 -0.15844953716E+02  0.16263719791E+02  0.00000000000E+00 0. -1.
</event>
<event>
 7    1  0.2942034E-011  0.5052886E+02  0.7816164E-02  0.1300439E+00
        -11   -1    0    0    0    0  0.00000000000E+00  0.00000000000E+00  0.45593999997E+02  0.45594000000E+02  0.51100000000E-03 0.  1.
         11   -1    0    0    0    0 -0.00000000000E+00 -0.00000000000E+00 -0.45593999997E+02  0.45594000000E+02  0.51100000000E-03 0. -1.
    9900012    2    1    2    0    0  0.39496263230E+01  0.11354278522E+02  0.38841299530E+02  0.50528859109E+02  0.29999997747E+02 0.  0.
         12    1    1    2    0    0 -0.39496263230E+01 -0.11354278522E+02 -0.38841299530E+02  0.40659140891E+02  0.00000000000E+00 0. -1.
         11    1    3    3    0    0  0.68384832102E+01  0.15346144948E+02  0.15293393843E+02  0.22719086973E+02  0.51100000000E-03 0. -1.
        -11    1    3    3    0    0 -0.77872142507E+00 -0.33452372203E+01 -0.66333739920E+00  0.34981474932E+01  0.51100000000E-03 0.  1.
         12    1    3    3    0    0 -0.21101354621E+01 -0.64662920633E+00  0.24211243086E+02  0.24311624642E+02  0.00000000000E+00 0. -1.
</event>
<event>
 7    1  0.2942034E-011  0.5052886E+02  0.7816164E-02  0.1300439E+00
        -11   -1    0    0    0    0  0.00000000000E+00  0.00000000000E+00  0.45593999997E+02  0.45594000000E+02  0.51100000000E-03 0.  1.
         11   -1    0    0    0    0 -0.00000000000E+00 -0.00000000000E+00 -0.45593999997E+02  0.45594000000E+02  0.51100000000E-03 0. -1.
    9900012    2    1    2    0    0  0.10482926491E+02  0.37565220512E+02  0.11494687990E+02  0.50528863365E+02  0.30000010683E+02 0.  0.
         12    1    1    2    0    0 -0.10482926491E+02 -0.37565220512E+02 -0.11494687990E+02  0.40659136635E+02  0.00000000000E+00 0. -1.
         11    1    3    3    0    0 -0.28299774047E+01 -0.38591230878E+01  0.10733514532E+01  0.49044558028E+01  0.51100000000E-03 0. -1.
        -11    1    3    3    0    0  0.90273840906E+01  0.37195454892E+02  0.78210398277E+01  0.39066151492E+02  0.51100000000E-03 0.  1.
         12    1    3    3    0    0  0.42855198049E+01  0.42288887077E+01  0.26002967093E+01  0.65582560698E+01  0.00000000000E+00 0. -1.
</event>
<event>
 7    1  0.2942034E-011  0.5052886E+02  0.7816164E-02  0.1300439E+00
        -11   -1    0    0    0    0  0.00000000000E+00  0.00000000000E+00  0.45593999997E+02  0.45594000000E+02  0.51100000000E-03 0.  1.
         11   -1    0    0    0    0 -0.00000000000E+00 -0.00000000000E+00 -0.45593999997E+02  0.45594000000E+02  0.51100000000E-03 0. -1.
    9900012    2    1    2    0    0  0.74161246230E+01 -0.19381701313E+02  0.34964501878E+02  0.50528860292E+02  0.30000001344E+02 0.  0.
         12    1    1    2    0    0 -0.74161246230E+01  0.19381701313E+02 -0.34964501878E+02  0.40659139708E+02  0.00000000000E+00 0. -1.
         11    1    3    3    0    0  0.10122825107E+02 -0.20479200358E+02  0.21333666785E+02  0.31256912422E+02  0.51100000000E-03 0. -1.
        -11    1    3    3    0    0 -0.34716996677E+01  0.55609542046E+01  0.21001277462E+01  0.68838540848E+01  0.51100000000E-03 0.  1.
        -12    1    3    3    0    0  0.76499918387E+00 -0.44634551602E+01  0.11530707347E+02  0.12388093785E+02  0.00000000000E+00 0.  1.
</event>
<event>
 7    1  0.2942034E-011  0.5052884E+02  0.7816164E-02  0.1300439E+00
        -11   -1    0    0    0    0  0.00000000000E+00  0.00000000000E+00  0.45593999997E+02  0.45594000000E+02  0.51100000000E-03 0.  1.
         11   -1    0    0    0    0 -0.00000000000E+00 -0.00000000000E+00 -0.45593999997E+02  0.45594000000E+02  0.51100000000E-03 0. -1.
    9900012    2    1    2    0    0  0.39367385654E+02 -0.72434388061E+01 -0.71350501203E+01  0.50528838681E+02  0.29999935655E+02 0.  0.
         12    1    1    2    0    0 -0.39367385654E+02  0.72434388061E+01  0.71350501203E+01  0.40659161319E+02  0.00000000000E+00 0. -1.
         11    1    3    3    0    0  0.33529890075E+02 -0.34565909263E+00 -0.74535330012E+01  0.34350082432E+02  0.51100000000E-03 0.  1.
        -11    1    3    3    0    0 -0.97922467919E+00 -0.82032018052E+01 -0.25833986937E+01  0.86559430394E+01  0.51100000000E-03 0. -1.
        -12    1    3    3    0    0  0.68167202577E+01  0.13054220918E+01  0.29018815746E+01  0.75228132093E+01  0.00000000000E+00 0.  1.
</event>
<event>
 7    1  0.2942034E-011  0.5052887E+02  0.7816164E-02  0.1300439E+00
        -11   -1    0    0    0    0  0.00000000000E+00  0.00000000000E+00  0.45593999997E+02  0.45594000000E+02  0.51100000000E-03 0. -1.
         11   -1    0    0    0    0 -0.00000000000E+00 -0.00000000000E+00 -0.45593999997E+02  0.45594000000E+02  0.51100000000E-03 0.  1.
    9900012    2    1    2    0    0 -0.99204330664E+01 -0.30387066329E+02 -0.25127204875E+02  0.50528865514E+02  0.30000017216E+02 0.  0.
         12    1    1    2    0    0  0.99204330664E+01  0.30387066329E+02  0.25127204875E+02  0.40659134486E+02  0.00000000000E+00 0. -1.
         11    1    3    3    0    0 -0.54389630655E+01  0.21423844012E+01 -0.78122581916E+01  0.97572285237E+01  0.51100000000E-03 0. -1.
        -11    1    3    3    0    0  0.26504801741E+01 -0.22968074974E+02 -0.17244357120E+02  0.28843116439E+02  0.51100000000E-03 0.  1.
        -12    1    3    3    0    0 -0.71319501750E+01 -0.95613757563E+01 -0.70589563693E-01  0.11928520551E+02  0.00000000000E+00 0.  1.
</event>
<event>
 7    1  0.2942034E-011  0.5052886E+02  0.7816164E-02  0.1300439E+00
        -11   -1    0    0    0    0  0.00000000000E+00  0.00000000000E+00  0.45593999997E+02  0.45594000000E+02  0.51100000000E-03 0. -1.
         11   -1    0    0    0    0 -0.00000000000E+00 -0.00000000000E+00 -0.45593999997E+02  0.45594000000E+02  0.51100000000E-03 0.  1.
    9900012    2    1    2    0    0 -0.16921655263E+01 -0.17896155277E+02 -0.36469576197E+02  0.50528858521E+02  0.29999995959E+02 0.  0.
         12    1    1    2    0    0  0.16921655263E+01  0.17896155277E+02  0.36469576197E+02  0.40659141479E+02  0.00000000000E+00 0. -1.
         11    1    3    3    0    0 -0.15276561851E+01  0.72172443486E+01 -0.62433736115E+01  0.96644743117E+01  0.51100000000E-03 0. -1.
        -11    1    3    3    0    0 -0.46643644103E+01 -0.18813444106E+02 -0.18374846778E+02  0.26708368892E+02  0.51100000000E-03 0.  1.
         12    1    3    3    0    0  0.44998550692E+01 -0.62999555205E+01 -0.11851355807E+02  0.14156015317E+02  0.00000000000E+00 0. -1.
</event>
<event>
 7    1  0.2942034E-011  0.5052887E+02  0.7816164E-02  0.1300439E+00
        -11   -1    0    0    0    0  0.00000000000E+00  0.00000000000E+00  0.45593999997E+02  0.45594000000E+02  0.51100000000E-03 0.  1.
         11   -1    0    0    0    0 -0.00000000000E+00 -0.00000000000E+00 -0.45593999997E+02  0.45594000000E+02  0.51100000000E-03 0. -1.
    9900012    2    1    2    0    0 -0.13369549289E+02  0.21820494674E+02  0.31595667032E+02  0.50528868047E+02  0.30000024915E+02 0.  0.
         12    1    1    2    0    0  0.13369549289E+02 -0.21820494674E+02 -0.31595667032E+02  0.40659131953E+02  0.00000000000E+00 0. -1.
         11    1    3    3    0    0 -0.16836459429E+01  0.11255655341E+02  0.42176561775E+01  0.12137259357E+02  0.51100000000E-03 0. -1.
        -11    1    3    3    0    0 -0.13631250830E+02 -0.65893273987E+00  0.21772309829E+02  0.25695888136E+02  0.51100000000E-03 0.  1.
        -12    1    3    3    0    0  0.19453474842E+01  0.11223772073E+02  0.56057010249E+01  0.12695720553E+02  0.00000000000E+00 0.  1.
</event>
<event>
 7    1  0.2942034E-011  0.5052886E+02  0.7816164E-02  0.1300439E+00
        -11   -1    0    0    0    0  0.00000000000E+00  0.00000000000E+00  0.45593999997E+02  0.45594000000E+02  0.51100000000E-03 0.  1.
         11   -1    0    0    0    0 -0.00000000000E+00 -0.00000000000E+00 -0.45593999997E+02  0.45594000000E+02  0.51100000000E-03 0. -1.
    9900012    2    1    2    0    0  0.51001172010E+00  0.17417296777E+02  0.36736126919E+02  0.50528863757E+02  0.30000011876E+02 0.  0.
         12    1    1    2    0    0 -0.51001172010E+00 -0.17417296777E+02 -0.36736126919E+02  0.40659136243E+02  0.00000000000E+00 0. -1.
         11    1    3    3    0    0 -0.12413257333E+01 -0.25223948450E-01 -0.35215708443E+01  0.37340309715E+01  0.51100000000E-03 0. -1.
        -11    1    3    3    0    0  0.63545785826E+01  0.70747939196E+01  0.30105038369E+02  0.31571295720E+02  0.51100000000E-03 0.  1.
        -12    1    3    3    0    0 -0.46032411292E+01  0.10367726806E+02  0.10152659395E+02  0.15223537066E+02  0.00000000000E+00 0.  1.
</event>
<event>
 7    1  0.2942034E-011  0.5052886E+02  0.7816164E-02  0.1300439E+00
        -11   -1    0    0    0    0  0.00000000000E+00  0.00000000000E+00  0.45593999997E+02  0.45594000000E+02  0.51100000000E-03 0.  1.
         11   -1    0    0    0    0 -0.00000000000E+00 -0.00000000000E+00 -0.45593999997E+02  0.45594000000E+02  0.51100000000E-03 0. -1.
    9900012    2    1    2    0    0  0.34777840491E+02  0.21062729906E+02  0.16925200272E+00  0.50528862938E+02  0.30000009388E+02 0.  0.
         12    1    1    2    0    0 -0.34777840491E+02 -0.21062729906E+02 -0.16925200272E+00  0.40659137062E+02  0.00000000000E+00 0. -1.
         11    1    3    3    0    0  0.84157078048E+01  0.88605599648E+01 -0.12124361629E+02  0.17214348838E+02  0.51100000000E-03 0. -1.
        -11    1    3    3    0    0  0.16267392898E+02  0.30183018357E+01  0.30299471383E+01  0.16820190177E+02  0.51100000000E-03 0.  1.
         12    1    3    3    0    0  0.10094739788E+02  0.91838681056E+01  0.92636664935E+01  0.16494323923E+02  0.00000000000E+00 0. -1.
</event>
<event>
 7    1  0.2942034E-011  0.5052886E+02  0.7816164E-02  0.1300439E+00
        -11   -1    0    0    0    0  0.00000000000E+00  0.00000000000E+00  0.45593999997E+02  0.45594000000E+02  0.51100000000E-03 0. -1.
         11   -1    0    0    0    0 -0.00000000000E+00 -0.00000000000E+00 -0.45593999997E+02  0.45594000000E+02  0.51100000000E-03 0.  1.
    9900012    2    1    2    0    0  0.81102805066E+01  0.14836797819E+02 -0.36976457495E+02  0.50528860458E+02  0.30000001847E+02 0.  0.
         12    1    1    2    0    0 -0.81102805066E+01 -0.14836797819E+02  0.36976457495E+02  0.40659139542E+02  0.00000000000E+00 0. -1.
         11    1    3    3    0    0 -0.27628554563E+01 -0.56085813599E+01 -0.26641855609E+01  0.67961342032E+01  0.51100000000E-03 0. -1.
        -11    1    3    3    0    0  0.86407278919E+01  0.10637705785E+02 -0.29613100302E+02  0.32630640090E+02  0.51100000000E-03 0.  1.
         12    1    3    3    0    0  0.22324080710E+01  0.98076733934E+01 -0.46991716320E+01  0.11102086165E+02  0.00000000000E+00 0. -1.
</event>
<event>
 7    1  0.2942034E-011  0.5052889E+02  0.7816164E-02  0.1300439E+00
        -11   -1    0    0    0    0  0.00000000000E+00  0.00000000000E+00  0.45593999997E+02  0.45594000000E+02  0.51100000000E-03 0.  1.
         11   -1    0    0    0    0 -0.00000000000E+00 -0.00000000000E+00 -0.45593999997E+02  0.45594000000E+02  0.51100000000E-03 0. -1.
    9900012    2    1    2    0    0  0.51039326478E+01 -0.39850026000E+02 -0.62520555757E+01  0.50528894014E+02  0.30000103845E+02 0.  0.
         12    1    1    2    0    0 -0.51039326478E+01  0.39850026000E+02  0.62520555757E+01  0.40659105986E+02  0.00000000000E+00 0. -1.
         11    1    3    3    0    0  0.87373454813E+01 -0.64710578672E+01  0.44994676165E+01  0.11766945444E+02  0.51100000000E-03 0. -1.
        -11    1    3    3    0    0  0.48509787499E+01 -0.24419279436E+02 -0.74919385160E+01  0.25999275874E+02  0.51100000000E-03 0.  1.
         12    1    3    3    0    0 -0.84843915834E+01 -0.89596886967E+01 -0.32595846761E+01  0.12762672696E+02  0.00000000000E+00 0. -1.
</event>
<event>
 7    1  0.2942034E-011  0.5052887E+02  0.7816164E-02  0.1300439E+00
        -11   -1    0    0    0    0  0.00000000000E+00  0.00000000000E+00  0.45593999997E+02  0.45594000000E+02  0.51100000000E-03 0.  1.
         11   -1    0    0    0    0 -0.00000000000E+00 -0.00000000000E+00 -0.45593999997E+02  0.45594000000E+02  0.51100000000E-03 0. -1.
    9900012    2    1    2    0    0 -0.26256687014E+02  0.18307779641E+02  0.25071429865E+02  0.50528868137E+02  0.30000025190E+02 0.  0.
         12    1    1    2    0    0  0.26256687014E+02 -0.18307779641E+02 -0.25071429865E+02  0.40659131863E+02  0.00000000000E+00 0. -1.
         11    1    3    3    0    0 -0.62093209416E+01 -0.39326495610E+01  0.70511440036E+01  0.10185285030E+02  0.51100000000E-03 0. -1.
        -11    1    3    3    0    0 -0.19955649466E+01  0.10165492113E+02 -0.22886982072E+01  0.10609318975E+02  0.51100000000E-03 0.  1.
        -12    1    3    3    0    0 -0.18051801126E+02  0.12074937088E+02  0.20308984069E+02  0.29734264132E+02  0.00000000000E+00 0.  1.
</event>
<event>
 7    1  0.2942034E-011  0.5052881E+02  0.7816164E-02  0.1300439E+00
        -11   -1    0    0    0    0  0.00000000000E+00  0.00000000000E+00  0.45593999997E+02  0.45594000000E+02  0.51100000000E-03 0.  1.
         11   -1    0    0    0    0 -0.00000000000E+00 -0.00000000000E+00 -0.45593999997E+02  0.45594000000E+02  0.51100000000E-03 0. -1.
    9900012    2    1    2    0    0  0.10181613459E+02 -0.36256422295E+02  0.15328939879E+02  0.50528809058E+02  0.29999845613E+02 0.  0.
         12    1    1    2    0    0 -0.10181613459E+02  0.36256422295E+02 -0.15328939879E+02  0.40659190942E+02  0.00000000000E+00 0. -1.
         11    1    3    3    0    0 -0.10325082525E-01 -0.33029718489E+01  0.10120032586E+02  0.10645411661E+02  0.51100000000E-03 0. -1.
        -11    1    3    3    0    0  0.71521257629E+01 -0.32178340051E+02  0.97398655400E+01  0.34372422847E+02  0.51100000000E-03 0.  1.
        -12    1    3    3    0    0  0.30398127788E+01 -0.77511039429E+00 -0.45309582468E+01  0.55109745497E+01  0.00000000000E+00 0.  1.
</event>
<event>
 7    1  0.2942034E-011  0.5052885E+02  0.7816164E-02  0.1300439E+00
        -11   -1    0    0    0    0  0.00000000000E+00  0.00000000000E+00  0.45593999997E+02  0.45594000000E+02  0.51100000000E-03 0.  1.
         11   -1    0    0    0    0 -0.00000000000E+00 -0.00000000000E+00 -0.45593999997E+02  0.45594000000E+02  0.51100000000E-03 0. -1.
    9900012    2    1    2    0    0  0.16574938936E+01  0.22779699807E+02  0.33637842890E+02  0.50528849940E+02  0.29999969879E+02 0.  0.
         12    1    1    2    0    0 -0.16574938936E+01 -0.22779699807E+02 -0.33637842890E+02  0.40659150060E+02  0.00000000000E+00 0. -1.
         11    1    3    3    0    0 -0.22104671795E+01  0.50724072859E+00 -0.72839714953E+00  0.23820203561E+01  0.51100000000E-03 0. -1.
        -11    1    3    3    0    0  0.10860569214E+02  0.23231204084E+01  0.19017225118E+02  0.22022799630E+02  0.51100000000E-03 0.  1.
        -12    1    3    3    0    0 -0.69926081414E+01  0.19949338670E+02  0.15349014921E+02  0.26124029954E+02  0.00000000000E+00 0.  1.
</event>
<event>
 7    1  0.2942034E-011  0.5052886E+02  0.7816164E-02  0.1300439E+00
        -11   -1    0    0    0    0  0.00000000000E+00  0.00000000000E+00  0.45593999997E+02  0.45594000000E+02  0.51100000000E-03 0.  1.
         11   -1    0    0    0    0 -0.00000000000E+00 -0.00000000000E+00 -0.45593999997E+02  0.45594000000E+02  0.51100000000E-03 0. -1.
    9900012    2    1    2    0    0 -0.18332847543E+02 -0.23863453987E+02  0.27342422927E+02  0.50528858018E+02  0.29999994431E+02 0.  0.
         12    1    1    2    0    0  0.18332847543E+02  0.23863453987E+02 -0.27342422927E+02  0.40659141982E+02  0.00000000000E+00 0. -1.
         11    1    3    3    0    0 -0.20353957649E+02 -0.15918265585E+02  0.59673741527E+01  0.26519508400E+02  0.51100000000E-03 0. -1.
        -11    1    3    3    0    0  0.43144498276E+01 -0.26483380935E+01  0.11614651519E+02  0.12669976407E+02  0.51100000000E-03 0.  1.
         12    1    3    3    0    0 -0.22933397220E+01 -0.52968503078E+01  0.97603972548E+01  0.11339373212E+02  0.00000000000E+00 0. -1.
</event>
<event>
 7    1  0.2942034E-011  0.5052886E+02  0.7816164E-02  0.1300439E+00
        -11   -1    0    0    0    0  0.00000000000E+00  0.00000000000E+00  0.45593999997E+02  0.45594000000E+02  0.51100000000E-03 0.  1.
         11   -1    0    0    0    0 -0.00000000000E+00 -0.00000000000E+00 -0.45593999997E+02  0.45594000000E+02  0.51100000000E-03 0. -1.
    9900012    2    1    2    0    0  0.24232848979E+02 -0.16853330382E+02 -0.27962478219E+02  0.50528857082E+02  0.29999991587E+02 0.  0.
         12    1    1    2    0    0 -0.24232848979E+02  0.16853330382E+02  0.27962478219E+02  0.40659142918E+02  0.00000000000E+00 0. -1.
         11    1    3    3    0    0  0.19845095152E+02  0.50607269727E-01 -0.11655807707E+02  0.23014956359E+02  0.51100000000E-03 0. -1.
        -11    1    3    3    0    0 -0.43995855276E+01 -0.98237018815E+01 -0.65802940673E+01  0.12615932060E+02  0.51100000000E-03 0.  1.
         12    1    3    3    0    0  0.87873393556E+01 -0.70802357705E+01 -0.97263764455E+01  0.14897968663E+02  0.00000000000E+00 0. -1.
</event>
<event>
 7    1  0.2942034E-011  0.5052887E+02  0.7816164E-02  0.1300439E+00
        -11   -1    0    0    0    0  0.00000000000E+00  0.00000000000E+00  0.45593999997E+02  0.45594000000E+02  0.51100000000E-03 0.  1.
         11   -1    0    0    0    0 -0.00000000000E+00 -0.00000000000E+00 -0.45593999997E+02  0.45594000000E+02  0.51100000000E-03 0. -1.
    9900012    2    1    2    0    0 -0.16657774589E+02  0.15402199844E+02  0.33741008317E+02  0.50528869949E+02  0.30000030696E+02 0.  0.
         12    1    1    2    0    0  0.16657774589E+02 -0.15402199844E+02 -0.33741008317E+02  0.40659130051E+02  0.00000000000E+00 0. -1.
         11    1    3    3    0    0 -0.34155991637E+00  0.64660249877E+01  0.30234763427E+02  0.30920334119E+02  0.51100000000E-03 0. -1.
        -11    1    3    3    0    0 -0.84586666593E+01  0.33515049133E+01  0.40372010563E+01  0.99539248273E+01  0.51100000000E-03 0.  1.
         12    1    3    3    0    0 -0.78575480131E+01  0.55846699432E+01 -0.53095616621E+00  0.96546110022E+01  0.00000000000E+00 0. -1.
</event>
<event>
 7    1  0.2942034E-011  0.5052885E+02  0.7816164E-02  0.1300439E+00
        -11   -1    0    0    0    0  0.00000000000E+00  0.00000000000E+00  0.45593999997E+02  0.45594000000E+02  0.51100000000E-03 0.  1.
         11   -1    0    0    0    0 -0.00000000000E+00 -0.00000000000E+00 -0.45593999997E+02  0.45594000000E+02  0.51100000000E-03 0. -1.
    9900012    2    1    2    0    0 -0.23744527507E+02 -0.96616724399E+01  0.31559724083E+02  0.50528847463E+02  0.29999962347E+02 0.  0.
         12    1    1    2    0    0  0.23744527507E+02  0.96616724399E+01 -0.31559724083E+02  0.40659152537E+02  0.00000000000E+00 0. -1.
         11    1    3    3    0    0 -0.11548783936E+02 -0.39132310741E+01 -0.28149949587E+01  0.12514471013E+02  0.51100000000E-03 0. -1.
        -11    1    3    3    0    0 -0.21849168752E+01 -0.23244600010E+00  0.17473400769E+02  0.17611008705E+02  0.51100000000E-03 0.  1.
        -12    1    3    3    0    0 -0.10010826695E+02 -0.55159953657E+01  0.16901318273E+02  0.20403367745E+02  0.00000000000E+00 0.  1.
</event>
<event>
 7    1  0.2942034E-011  0.5052889E+02  0.7816164E-02  0.1300439E+00
        -11   -1    0    0    0    0  0.00000000000E+00  0.00000000000E+00  0.45593999997E+02  0.45594000000E+02  0.51100000000E-03 0. -1.
         11   -1    0    0    0    0 -0.00000000000E+00 -0.00000000000E+00 -0.45593999997E+02  0.45594000000E+02  0.51100000000E-03 0.  1.
    9900012    2    1    2    0    0  0.87605480076E+01 -0.10004225010E+02 -0.38423055548E+02  0.50528893798E+02  0.30000103189E+02 0.  0.
         12    1    1    2    0    0 -0.87605480076E+01  0.10004225010E+02  0.38423055548E+02  0.40659106202E+02  0.00000000000E+00 0. -1.
         11    1    3    3    0    0  0.75374246441E+01 -0.37235943142E+00 -0.10981384004E+02  0.13324496866E+02  0.51100000000E-03 0. -1.
        -11    1    3    3    0    0 -0.64064432518E+01  0.52283707835E+01 -0.72379062194E+01  0.10989343151E+02  0.51100000000E-03 0.  1.
        -12    1    3    3    0    0  0.76295666153E+01 -0.14860236362E+02 -0.20203765325E+02  0.26215053782E+02  0.00000000000E+00 0.  1.
</event>
<event>
 7    1  0.2942034E-011  0.5052888E+02  0.7816164E-02  0.1300439E+00
        -11   -1    0    0    0    0  0.00000000000E+00  0.00000000000E+00  0.45593999997E+02  0.45594000000E+02  0.51100000000E-03 0.  1.
         11   -1    0    0    0    0 -0.00000000000E+00 -0.00000000000E+00 -0.45593999997E+02  0.45594000000E+02  0.51100000000E-03 0. -1.
    9900012    2    1    2    0    0 -0.39571804270E+02  0.18240190648E+01 -0.91602210106E+01  0.50528875714E+02  0.30000048221E+02 0.  0.
         12    1    1    2    0    0  0.39571804270E+02 -0.18240190648E+01  0.91602210106E+01  0.40659124286E+02  0.00000000000E+00 0. -1.
         11    1    3    3    0    0 -0.47768580095E+00 -0.72147006523E+01 -0.37220585011E+01  0.81322696078E+01  0.51100000000E-03 0. -1.
        -11    1    3    3    0    0 -0.22649569351E+02 -0.51920962164E+00 -0.15494701720E+00  0.22656049506E+02  0.51100000000E-03 0.  1.
         12    1    3    3    0    0 -0.16444549118E+02  0.95579293388E+01 -0.52832154923E+01  0.19740556600E+02  0.00000000000E+00 0. -1.
</event>
<event>
 7    1  0.2942034E-011  0.5052886E+02  0.7816164E-02  0.1300439E+00
        -11   -1    0    0    0    0  0.00000000000E+00  0.00000000000E+00  0.45593999997E+02  0.45594000000E+02  0.51100000000E-03 0. -1.
         11   -1    0    0    0    0 -0.00000000000E+00 -0.00000000000E+00 -0.45593999997E+02  0.45594000000E+02  0.51100000000E-03 0.  1.
    9900012    2    1    2    0    0 -0.70942374900E+01 -0.40022155500E+02 -0.10317976165E+01  0.50528859050E+02  0.29999997569E+02 0.  0.
         12    1    1    2    0    0  0.70942374900E+01  0.40022155500E+02  0.10317976165E+01  0.40659140950E+02  0.00000000000E+00 0. -1.
         11    1    3    3    0    0  0.59619967443E+01 -0.66426924425E+01  0.62800049097E+01  0.10913717515E+02  0.51100000000E-03 0. -1.
        -11    1    3    3    0    0 -0.14942318469E+02 -0.33767117554E+02 -0.63672271590E+01  0.37470424218E+02  0.51100000000E-03 0.  1.
        -12    1    3    3    0    0  0.18860842342E+01  0.38765449638E+00 -0.94457536719E+00  0.21447173174E+01  0.00000000000E+00 0.  1.
</event>
<event>
 7    1  0.2942034E-011  0.5052886E+02  0.7816164E-02  0.1300439E+00
        -11   -1    0    0    0    0  0.00000000000E+00  0.00000000000E+00  0.45593999997E+02  0.45594000000E+02  0.51100000000E-03 0.  1.
         11   -1    0    0    0    0 -0.00000000000E+00 -0.00000000000E+00 -0.45593999997E+02  0.45594000000E+02  0.51100000000E-03 0. -1.
    9900012    2    1    2    0    0  0.26969921247E+02 -0.68372087835E+01  0.29648636493E+02  0.50528859307E+02  0.29999998349E+02 0.  0.
         12    1    1    2    0    0 -0.26969921247E+02  0.68372087835E+01 -0.29648636493E+02  0.40659140693E+02  0.00000000000E+00 0. -1.
         11    1    3    3    0    0  0.18502169862E+02  0.71123841891E+00  0.67348943137E+01  0.19702663560E+02  0.51100000000E-03 0. -1.
        -11    1    3    3    0    0 -0.14892772402E+01 -0.71839125400E+01  0.19133955916E+01  0.75820596827E+01  0.51100000000E-03 0.  1.
        -12    1    3    3    0    0  0.99570286253E+01 -0.36453466236E+00  0.21000346587E+02  0.23244136064E+02  0.00000000000E+00 0.  1.
</event>
<event>
 7    1  0.2942034E-011  0.5052886E+02  0.7816164E-02  0.1300439E+00
        -11   -1    0    0    0    0  0.00000000000E+00  0.00000000000E+00  0.45593999997E+02  0.45594000000E+02  0.51100000000E-03 0. -1.
         11   -1    0    0    0    0 -0.00000000000E+00 -0.00000000000E+00 -0.45593999997E+02  0.45594000000E+02  0.51100000000E-03 0.  1.
    9900012    2    1    2    0    0 -0.34827275554E+02 -0.20279862076E+02  0.53808750263E+01  0.50528859031E+02  0.29999997510E+02 0.  0.
         12    1    1    2    0    0  0.34827275554E+02  0.20279862076E+02 -0.53808750263E+01  0.40659140969E+02  0.00000000000E+00 0. -1.
         11    1    3    3    0    0 -0.18546368848E+02  0.26981671700E+01 -0.94175510938E+00  0.18765255300E+02  0.51100000000E-03 0. -1.
        -11    1    3    3    0    0 -0.93998211859E+01 -0.19476879243E+02 -0.24437161428E+00  0.21627879718E+02  0.51100000000E-03 0.  1.
         12    1    3    3    0    0 -0.68810855194E+01 -0.35011500032E+01  0.65670017500E+01  0.10135724012E+02  0.00000000000E+00 0. -1.
</event>
<event>
 7    1  0.2942034E-011  0.5052871E+02  0.7816164E-02  0.1300439E+00
        -11   -1    0    0    0    0  0.00000000000E+00  0.00000000000E+00  0.45593999997E+02  0.45594000000E+02  0.51100000000E-03 0.  1.
         11   -1    0    0    0    0 -0.00000000000E+00 -0.00000000000E+00 -0.45593999997E+02  0.45594000000E+02  0.51100000000E-03 0. -1.
    9900012    2    1    2    0    0  0.27506292805E+02 -0.29939347903E+02  0.46561587391E+00  0.50528714531E+02  0.29999558285E+02 0.  0.
         12    1    1    2    0    0 -0.27506292805E+02  0.29939347903E+02 -0.46561587391E+00  0.40659285469E+02  0.00000000000E+00 0. -1.
         11    1    3    3    0    0  0.12670790960E+02 -0.43598987982E+01 -0.40282845260E+01  0.13992309944E+02  0.51100000000E-03 0.  1.
        -11    1    3    3    0    0  0.73520016536E+00 -0.50980127273E+01  0.98361983900E+01  0.11103200083E+02  0.51100000000E-03 0. -1.
        -12    1    3    3    0    0  0.14100301679E+02 -0.20481436377E+02 -0.53422979901E+01  0.25433204504E+02  0.00000000000E+00 0.  1.
</event>
<event>
 7    1  0.2942034E-011  0.5052886E+02  0.7816164E-02  0.1300439E+00
        -11   -1    0    0    0    0  0.00000000000E+00  0.00000000000E+00  0.45593999997E+02  0.45594000000E+02  0.51100000000E-03 0.  1.
         11   -1    0    0    0    0 -0.00000000000E+00 -0.00000000000E+00 -0.45593999997E+02  0.45594000000E+02  0.51100000000E-03 0. -1.
    9900012    2    1    2    0    0  0.27392406868E+02 -0.30017855532E+02 -0.13228754242E+01  0.50528860755E+02  0.30000002750E+02 0.  0.
         12    1    1    2    0    0 -0.27392406868E+02  0.30017855532E+02  0.13228754242E+01  0.40659139245E+02  0.00000000000E+00 0. -1.
         11    1    3    3    0    0  0.87098753367E-01 -0.15962222856E+02 -0.41615296971E+01  0.16496013894E+02  0.51100000000E-03 0. -1.
        -11    1    3    3    0    0  0.16026955971E+02 -0.88865470572E+01 -0.54420242179E+01  0.19116737801E+02  0.51100000000E-03 0.  1.
         12    1    3    3    0    0  0.11278352143E+02 -0.51690856187E+01  0.82806784907E+01  0.14916109059E+02  0.00000000000E+00 0. -1.
</event>
<event>
 7    1  0.2942034E-011  0.5052886E+02  0.7816164E-02  0.1300439E+00
        -11   -1    0    0    0    0  0.00000000000E+00  0.00000000000E+00  0.45593999997E+02  0.45594000000E+02  0.51100000000E-03 0.  1.
         11   -1    0    0    0    0 -0.00000000000E+00 -0.00000000000E+00 -0.45593999997E+02  0.45594000000E+02  0.51100000000E-03 0. -1.
    9900012    2    1    2    0    0  0.11270470851E+02  0.45051635495E+01  0.38805229780E+02  0.50528857484E+02  0.29999992809E+02 0.  0.
         12    1    1    2    0    0 -0.11270470851E+02 -0.45051635495E+01 -0.38805229780E+02  0.40659142516E+02  0.00000000000E+00 0. -1.
         11    1    3    3    0    0  0.31612842492E+01  0.12919648344E+02  0.44642084433E+01  0.14029974651E+02  0.51100000000E-03 0. -1.
        -11    1    3    3    0    0  0.53622327408E+01 -0.74592296282E+01  0.28960801056E+02  0.30382916987E+02  0.51100000000E-03 0.  1.
        -12    1    3    3    0    0  0.27469538614E+01 -0.95525516597E+00  0.53802202812E+01  0.61159658455E+01  0.00000000000E+00 0.  1.
</event>
<event>
 7    1  0.2942034E-011  0.5052886E+02  0.7816164E-02  0.1300439E+00
        -11   -1    0    0    0    0  0.00000000000E+00  0.00000000000E+00  0.45593999997E+02  0.45594000000E+02  0.51100000000E-03 0.  1.
         11   -1    0    0    0    0 -0.00000000000E+00 -0.00000000000E+00 -0.45593999997E+02  0.45594000000E+02  0.51100000000E-03 0. -1.
    9900012    2    1    2    0    0  0.43338829076E+01  0.19158507288E+02  0.35599640914E+02  0.50528863563E+02  0.30000011287E+02 0.  0.
         12    1    1    2    0    0 -0.43338829076E+01 -0.19158507288E+02 -0.35599640914E+02  0.40659136437E+02  0.00000000000E+00 0. -1.
         11    1    3    3    0    0  0.62811106737E+01  0.30906878841E+01  0.37242895844E+01  0.79293780375E+01  0.51100000000E-03 0. -1.
        -11    1    3    3    0    0 -0.83073251214E+01  0.16752393638E+02  0.13280923229E+02  0.22935502292E+02  0.51100000000E-03 0.  1.
        -12    1    3    3    0    0  0.63600973554E+01 -0.68457423432E+00  0.18594428100E+02  0.19663983234E+02  0.00000000000E+00 0.  1.
</event>
<event>
 7    1  0.2942034E-011  0.5052886E+02  0.7816164E-02  0.1300439E+00
        -11   -1    0    0    0    0  0.00000000000E+00  0.00000000000E+00  0.45593999997E+02  0.45594000000E+02  0.51100000000E-03 0. -1.
         11   -1    0    0    0    0 -0.00000000000E+00 -0.00000000000E+00 -0.45593999997E+02  0.45594000000E+02  0.51100000000E-03 0.  1.
    9900012    2    1    2    0    0  0.38162177783E+02 -0.24231133095E+01  0.13818193724E+02  0.50528858727E+02  0.29999996587E+02 0.  0.
         12    1    1    2    0    0 -0.38162177783E+02  0.24231133095E+01 -0.13818193724E+02  0.40659141273E+02  0.00000000000E+00 0. -1.
         11    1    3    3    0    0  0.20896767038E+02 -0.81398445838E+01  0.10569268308E+02  0.24791961909E+02  0.51100000000E-03 0. -1.
        -11    1    3    3    0    0  0.99492362004E+01  0.10829452869E+02 -0.27793523603E+01  0.14966267077E+02  0.51100000000E-03 0.  1.
         12    1    3    3    0    0  0.73161745447E+01 -0.51127215946E+01  0.60282777767E+01  0.10770629741E+02  0.00000000000E+00 0. -1.
</event>
<event>
 7    1  0.2942034E-011  0.5052886E+02  0.7816164E-02  0.1300439E+00
        -11   -1    0    0    0    0  0.00000000000E+00  0.00000000000E+00  0.45593999997E+02  0.45594000000E+02  0.51100000000E-03 0. -1.
         11   -1    0    0    0    0 -0.00000000000E+00 -0.00000000000E+00 -0.45593999997E+02  0.45594000000E+02  0.51100000000E-03 0.  1.
    9900012    2    1    2    0    0 -0.92318938524E+01 -0.38057194369E+02 -0.10935632077E+02  0.50528856425E+02  0.29999989588E+02 0.  0.
         12    1    1    2    0    0  0.92318938524E+01  0.38057194369E+02  0.10935632077E+02  0.40659143575E+02  0.00000000000E+00 0. -1.
         11    1    3    3    0    0  0.19265515781E+00 -0.75531002981E+01  0.26613031609E+01  0.80105539695E+01  0.51100000000E-03 0. -1.
        -11    1    3    3    0    0 -0.89951005492E+01 -0.49423379772E+01 -0.13492828474E+02  0.16952727187E+02  0.51100000000E-03 0.  1.
        -12    1    3    3    0    0 -0.42944846101E+00 -0.25561756094E+02 -0.10410676321E+00  0.25565575268E+02  0.00000000000E+00 0.  1.
</event>
<event>
 7    1  0.2942034E-011  0.5052885E+02  0.7816164E-02  0.1300439E+00
        -11   -1    0    0    0    0  0.00000000000E+00  0.00000000000E+00  0.45593999997E+02  0.45594000000E+02  0.51100000000E-03 0. -1.
         11   -1    0    0    0    0 -0.00000000000E+00 -0.00000000000E+00 -0.45593999997E+02  0.45594000000E+02  0.51100000000E-03 0.  1.
    9900012    2    1    2    0    0  0.14351361142E+02 -0.37985547571E+02 -0.20743181070E+01  0.50528853593E+02  0.29999980983E+02 0.  0.
         12    1    1    2    0    0 -0.14351361142E+02  0.37985547571E+02  0.20743181070E+01  0.40659146407E+02  0.00000000000E+00 0. -1.
         11    1    3    3    0    0  0.26770923538E+01 -0.11315872499E+02 -0.10874517294E+02  0.15920770098E+02  0.51100000000E-03 0.  1.
        -11    1    3    3    0    0  0.73840756751E+01 -0.26868846454E+02  0.10781752843E+02  0.29878180634E+02  0.51100000000E-03 0. -1.
        -12    1    3    3    0    0  0.42901931134E+01  0.19917138156E+00 -0.19815536563E+01  0.47299028618E+01  0.00000000000E+00 0.  1.
</event>
<event>
 7    1  0.2942034E-011  0.5052884E+02  0.7816164E-02  0.1300439E+00
        -11   -1    0    0    0    0  0.00000000000E+00  0.00000000000E+00  0.45593999997E+02  0.45594000000E+02  0.51100000000E-03 0.  1.
         11   -1    0    0    0    0 -0.00000000000E+00 -0.00000000000E+00 -0.45593999997E+02  0.45594000000E+02  0.51100000000E-03 0. -1.
    9900012    2    1    2    0    0 -0.20632073540E+02  0.34639602507E+02 -0.52519058779E+01  0.50528843150E+02  0.29999949238E+02 0.  0.
         12    1    1    2    0    0  0.20632073540E+02 -0.34639602507E+02  0.52519058779E+01  0.40659156850E+02  0.00000000000E+00 0. -1.
         11    1    3    3    0    0  0.71412046415E+01  0.92730825673E+01 -0.75191501594E+00  0.11728266730E+02  0.51100000000E-03 0. -1.
        -11    1    3    3    0    0 -0.23374009594E+01  0.58126726622E+01  0.67998275929E+00  0.63018238262E+01  0.51100000000E-03 0.  1.
         12    1    3    3    0    0 -0.25435877223E+02  0.19553847278E+02 -0.51799736213E+01  0.32498752594E+02  0.00000000000E+00 0. -1.
</event>
<event>
 7    1  0.2942034E-011  0.5052885E+02  0.7816164E-02  0.1300439E+00
        -11   -1    0    0    0    0  0.00000000000E+00  0.00000000000E+00  0.45593999997E+02  0.45594000000E+02  0.51100000000E-03 0.  1.
         11   -1    0    0    0    0 -0.00000000000E+00 -0.00000000000E+00 -0.45593999997E+02  0.45594000000E+02  0.51100000000E-03 0. -1.
    9900012    2    1    2    0    0  0.11304225446E+02  0.28690677536E+02  0.26499539672E+02  0.50528854741E+02  0.29999984469E+02 0.  0.
         12    1    1    2    0    0 -0.11304225446E+02 -0.28690677536E+02 -0.26499539672E+02  0.40659145259E+02  0.00000000000E+00 0. -1.
         11    1    3    3    0    0 -0.57392251082E+01  0.16942645012E+02  0.19828186984E+02  0.26704848327E+02  0.51100000000E-03 0. -1.
        -11    1    3    3    0    0  0.11834750429E+02  0.92742120794E+01  0.90912368666E+01  0.17570512669E+02  0.51100000000E-03 0.  1.
         12    1    3    3    0    0  0.52087001250E+01  0.24738204444E+01 -0.24198841781E+01  0.62534937450E+01  0.00000000000E+00 0. -1.
</event>
<event>
 7    1  0.2942034E-011  0.5052888E+02  0.7816164E-02  0.1300439E+00
        -11   -1    0    0    0    0  0.00000000000E+00  0.00000000000E+00  0.45593999997E+02  0.45594000000E+02  0.51100000000E-03 0.  1.
         11   -1    0    0    0    0 -0.00000000000E+00 -0.00000000000E+00 -0.45593999997E+02  0.45594000000E+02  0.51100000000E-03 0. -1.
    9900012    2    1    2    0    0 -0.12920697286E+02 -0.30323817402E+02  0.23805170018E+02  0.50528875074E+02  0.30000046274E+02 0.  0.
         12    1    1    2    0    0  0.12920697286E+02  0.30323817402E+02 -0.23805170018E+02  0.40659124926E+02  0.00000000000E+00 0. -1.
         11    1    3    3    0    0 -0.18372989979E+02 -0.10275115318E+02  0.83660854029E+01  0.22652508488E+02  0.51100000000E-03 0. -1.
        -11    1    3    3    0    0  0.52122396470E+01 -0.17037949207E+02  0.16867681796E+02  0.24535236798E+02  0.51100000000E-03 0.  1.
        -12    1    3    3    0    0  0.24005304594E+00 -0.30107528773E+01 -0.14285971810E+01  0.33411297878E+01  0.00000000000E+00 0.  1.
</event>
<event>
 7    1  0.2942034E-011  0.5052886E+02  0.7816164E-02  0.1300439E+00
        -11   -1    0    0    0    0  0.00000000000E+00  0.00000000000E+00  0.45593999997E+02  0.45594000000E+02  0.51100000000E-03 0.  1.
         11   -1    0    0    0    0 -0.00000000000E+00 -0.00000000000E+00 -0.45593999997E+02  0.45594000000E+02  0.51100000000E-03 0. -1.
    9900012    2    1    2    0    0 -0.12940618448E+02 -0.62554867264E+01  0.38033864296E+02  0.50528861381E+02  0.30000004653E+02 0.  0.
         12    1    1    2    0    0  0.12940618448E+02  0.62554867264E+01 -0.38033864296E+02  0.40659138619E+02  0.00000000000E+00 0. -1.
         11    1    3    3    0    0  0.50161479217E+01  0.62163157179E+01  0.70002499611E+01  0.10621102620E+02  0.51100000000E-03 0. -1.
        -11    1    3    3    0    0 -0.13414820872E+02 -0.52134310206E+01  0.26651404520E+02  0.30289183634E+02  0.51100000000E-03 0.  1.
         12    1    3    3    0    0 -0.45419454978E+01 -0.72583714237E+01  0.43822098140E+01  0.96185751275E+01  0.00000000000E+00 0. -1.
</event>
<event>
 7    1  0.2942034E-011  0.5052886E+02  0.7816164E-02  0.1300439E+00
        -11   -1    0    0    0    0  0.00000000000E+00  0.00000000000E+00  0.45593999997E+02  0.45594000000E+02  0.51100000000E-03 0.  1.
         11   -1    0    0    0    0 -0.00000000000E+00 -0.00000000000E+00 -0.45593999997E+02  0.45594000000E+02  0.51100000000E-03 0. -1.
    9900012    2    1    2    0    0  0.87769620302E+01 -0.32655832646E+02  0.22577134800E+02  0.50528862231E+02  0.30000007238E+02 0.  0.
         12    1    1    2    0    0 -0.87769620302E+01  0.32655832646E+02 -0.22577134800E+02  0.40659137769E+02  0.00000000000E+00 0. -1.
         11    1    3    3    0    0 -0.75611080739E+00 -0.36361182675E+01 -0.42034463114E+01  0.56091016003E+01  0.51100000000E-03 0. -1.
        -11    1    3    3    0    0  0.14343511610E+02 -0.21531000625E+02  0.24722289235E+02  0.35784240924E+02  0.51100000000E-03 0.  1.
        -12    1    3    3    0    0 -0.48104387722E+01 -0.74887137537E+01  0.20582918762E+01  0.91355197068E+01  0.00000000000E+00 0.  1.
</event>
<event>
 7    1  0.2942034E-011  0.5052873E+02  0.7816164E-02  0.1300439E+00
        -11   -1    0    0    0    0  0.00000000000E+00  0.00000000000E+00  0.45593999997E+02  0.45594000000E+02  0.51100000000E-03 0. -1.
         11   -1    0    0    0    0 -0.00000000000E+00 -0.00000000000E+00 -0.45593999997E+02  0.45594000000E+02  0.51100000000E-03 0.  1.
    9900012    2    1    2    0    0 -0.35403665827E+02  0.19966557130E+02  0.10456487393E+01  0.50528728746E+02  0.29999601494E+02 0.  0.
         12    1    1    2    0    0  0.35403665827E+02 -0.19966557130E+02 -0.10456487393E+01  0.40659271254E+02  0.00000000000E+00 0. -1.
         11    1    3    3    0    0 -0.16698561681E+00 -0.13050998095E+01 -0.76373266022E+01  0.77498340369E+01  0.51100000000E-03 0. -1.
        -11    1    3    3    0    0 -0.20827247786E+02  0.15504250684E+02  0.82803349964E+01  0.27252889527E+02  0.51100000000E-03 0.  1.
         12    1    3    3    0    0 -0.14409432423E+02  0.57674062555E+01  0.40264034519E+00  0.15526005182E+02  0.00000000000E+00 0. -1.
</event>
<event>
 7    1  0.2942034E-011  0.5052887E+02  0.7816164E-02  0.1300439E+00
        -11   -1    0    0    0    0  0.00000000000E+00  0.00000000000E+00  0.45593999997E+02  0.45594000000E+02  0.51100000000E-03 0. -1.
         11   -1    0    0    0    0 -0.00000000000E+00 -0.00000000000E+00 -0.45593999997E+02  0.45594000000E+02  0.51100000000E-03 0.  1.
    9900012    2    1    2    0    0 -0.35410088635E+02  0.71511211375E+01 -0.18658835589E+02  0.50528867493E+02  0.30000023233E+02 0.  0.
         12    1    1    2    0    0  0.35410088635E+02 -0.71511211375E+01  0.18658835589E+02  0.40659132507E+02  0.00000000000E+00 0. -1.
         11    1    3    3    0    0  0.35385721057E+01 -0.30047134681E+01 -0.47608377280E+00  0.46665245732E+01  0.51100000000E-03 0. -1.
        -11    1    3    3    0    0 -0.23881660172E+02  0.12237340736E+02 -0.10427322296E+02  0.28789151627E+02  0.51100000000E-03 0.  1.
        -12    1    3    3    0    0 -0.15067000568E+02 -0.20815061301E+01 -0.77554295209E+01  0.17073191294E+02  0.00000000000E+00 0.  1.
</event>
<event>
 7    1  0.2942034E-011  0.5052889E+02  0.7816164E-02  0.1300439E+00
        -11   -1    0    0    0    0  0.00000000000E+00  0.00000000000E+00  0.45593999997E+02  0.45594000000E+02  0.51100000000E-03 0. -1.
         11   -1    0    0    0    0 -0.00000000000E+00 -0.00000000000E+00 -0.45593999997E+02  0.45594000000E+02  0.51100000000E-03 0.  1.
    9900012    2    1    2    0    0  0.28515032548E+01 -0.37230573618E+02  0.16090890840E+02  0.50528887236E+02  0.30000083241E+02 0.  0.
         12    1    1    2    0    0 -0.28515032548E+01  0.37230573618E+02 -0.16090890840E+02  0.40659112764E+02  0.00000000000E+00 0. -1.
         11    1    3    3    0    0  0.31448920157E+01  0.12290322426E+01  0.90725290957E+01  0.96804778032E+01  0.51100000000E-03 0. -1.
        -11    1    3    3    0    0 -0.36067692546E+00 -0.24665615818E+02 -0.13659852472E+01  0.24706043947E+02  0.51100000000E-03 0.  1.
        -12    1    3    3    0    0  0.67288164549E-01 -0.13793990043E+02  0.83843469916E+01  0.16142365486E+02  0.00000000000E+00 0.  1.
</event>
<event>
 7    1  0.2942034E-011  0.5052887E+02  0.7816164E-02  0.1300439E+00
        -11   -1    0    0    0    0  0.00000000000E+00  0.00000000000E+00  0.45593999997E+02  0.45594000000E+02  0.51100000000E-03 0. -1.
         11   -1    0    0    0    0 -0.00000000000E+00 -0.00000000000E+00 -0.45593999997E+02  0.45594000000E+02  0.51100000000E-03 0.  1.
    9900012    2    1    2    0    0 -0.25496655867E+02  0.92540701074E+01 -0.30289402105E+02  0.50528866293E+02  0.30000019584E+02 0.  0.
         12    1    1    2    0    0  0.25496655867E+02 -0.92540701074E+01  0.30289402105E+02  0.40659133707E+02  0.00000000000E+00 0. -1.
         11    1    3    3    0    0 -0.34920987741E+01 -0.48438337700E+01 -0.62868939120E+01  0.86707851295E+01  0.51100000000E-03 0. -1.
        -11    1    3    3    0    0 -0.19288517339E+02  0.12585871899E+02 -0.28341964639E+02  0.36520104497E+02  0.51100000000E-03 0.  1.
        -12    1    3    3    0    0 -0.27160397530E+01  0.15120319779E+01  0.43394564460E+01  0.53379766662E+01  0.00000000000E+00 0.  1.
</event>
<event>
 7    1  0.2942034E-011  0.5052887E+02  0.7816164E-02  0.1300439E+00
        -11   -1    0    0    0    0  0.00000000000E+00  0.00000000000E+00  0.45593999997E+02  0.45594000000E+02  0.51100000000E-03 0. -1.
         11   -1    0    0    0    0 -0.00000000000E+00 -0.00000000000E+00 -0.45593999997E+02  0.45594000000E+02  0.51100000000E-03 0.  1.
    9900012    2    1    2    0    0 -0.28237738643E+01  0.80750337566E+01 -0.39749027911E+02  0.50528867092E+02  0.30000022012E+02 0.  0.
         12    1    1    2    0    0  0.28237738643E+01 -0.80750337566E+01  0.39749027911E+02  0.40659132908E+02  0.00000000000E+00 0. -1.
         11    1    3    3    0    0 -0.13368300491E+01  0.14153313492E+02 -0.14133385574E+02  0.20046345937E+02  0.51100000000E-03 0. -1.
        -11    1    3    3    0    0 -0.71262102933E+01 -0.61020997237E+01 -0.92602583583E+01  0.13182218300E+02  0.51100000000E-03 0.  1.
         12    1    3    3    0    0  0.56392664780E+01  0.23819988797E-01 -0.16355383978E+02  0.17300302855E+02  0.00000000000E+00 0. -1.
</event>
<event>
 7    1  0.2942034E-011  0.5052886E+02  0.7816164E-02  0.1300439E+00
        -11   -1    0    0    0    0  0.00000000000E+00  0.00000000000E+00  0.45593999997E+02  0.45594000000E+02  0.51100000000E-03 0.  1.
         11   -1    0    0    0    0 -0.00000000000E+00 -0.00000000000E+00 -0.45593999997E+02  0.45594000000E+02  0.51100000000E-03 0. -1.
    9900012    2    1    2    0    0  0.37534671241E+00  0.40640903999E+02 -0.11581791267E+01  0.50528863980E+02  0.30000012554E+02 0.  0.
         12    1    1    2    0    0 -0.37534671241E+00 -0.40640903999E+02  0.11581791267E+01  0.40659136020E+02  0.00000000000E+00 0. -1.
         11    1    3    3    0    0 -0.15260317586E+01  0.76942309995E+01 -0.44551168393E+01  0.90209772151E+01  0.51100000000E-03 0. -1.
        -11    1    3    3    0    0 -0.82633575948E+01  0.52490019679E+01  0.66194467479E+01  0.11817452175E+02  0.51100000000E-03 0.  1.
        -12    1    3    3    0    0  0.10164736066E+02  0.27697671031E+02 -0.33225090353E+01  0.29690434590E+02  0.00000000000E+00 0.  1.
</event>
<event>
 7    1  0.2942034E-011  0.5052885E+02  0.7816164E-02  0.1300439E+00
        -11   -1    0    0    0    0  0.00000000000E+00  0.00000000000E+00  0.45593999997E+02  0.45594000000E+02  0.51100000000E-03 0. -1.
         11   -1    0    0    0    0 -0.00000000000E+00 -0.00000000000E+00 -0.45593999997E+02  0.45594000000E+02  0.51100000000E-03 0.  1.
    9900012    2    1    2    0    0  0.86277111921E+01 -0.10109005507E+02 -0.38425731530E+02  0.50528852980E+02  0.29999979118E+02 0.  0.
         12    1    1    2    0    0 -0.86277111921E+01  0.10109005507E+02  0.38425731530E+02  0.40659147020E+02  0.00000000000E+00 0. -1.
         11    1    3    3    0    0 -0.62008090042E+01 -0.10330574719E+02 -0.12411648078E+02  0.17297971401E+02  0.51100000000E-03 0. -1.
        -11    1    3    3    0    0  0.33036820765E+01  0.63815761075E+01 -0.12590966666E+02  0.14497284943E+02  0.51100000000E-03 0.  1.
         12    1    3    3    0    0  0.11524838120E+02 -0.61600068956E+01 -0.13423116787E+02  0.18733596636E+02  0.00000000000E+00 0. -1.
</event>
<event>
 7    1  0.2942034E-011  0.5052886E+02  0.7816164E-02  0.1300439E+00
        -11   -1    0    0    0    0  0.00000000000E+00  0.00000000000E+00  0.45593999997E+02  0.45594000000E+02  0.51100000000E-03 0.  1.
         11   -1    0    0    0    0 -0.00000000000E+00 -0.00000000000E+00 -0.45593999997E+02  0.45594000000E+02  0.51100000000E-03 0. -1.
    9900012    2    1    2    0    0 -0.28994510927E+02  0.72162278990E+01  0.27575531035E+02  0.50528861779E+02  0.30000005864E+02 0.  0.
         12    1    1    2    0    0  0.28994510927E+02 -0.72162278990E+01 -0.27575531035E+02  0.40659138221E+02  0.00000000000E+00 0. -1.
         11    1    3    3    0    0 -0.17559297904E+02  0.45358222403E+01  0.68337438049E+01  0.19380471639E+02  0.51100000000E-03 0. -1.
        -11    1    3    3    0    0 -0.71200953831E+01 -0.64560456180E+01  0.18426223752E+02  0.20782252171E+02  0.51100000000E-03 0.  1.
        -12    1    3    3    0    0 -0.43151176393E+01  0.91364512767E+01  0.23155634783E+01  0.10366137969E+02  0.00000000000E+00 0.  1.
</event>
<event>
 7    1  0.2942034E-011  0.5052886E+02  0.7816164E-02  0.1300439E+00
        -11   -1    0    0    0    0  0.00000000000E+00  0.00000000000E+00  0.45593999997E+02  0.45594000000E+02  0.51100000000E-03 0. -1.
         11   -1    0    0    0    0 -0.00000000000E+00 -0.00000000000E+00 -0.45593999997E+02  0.45594000000E+02  0.51100000000E-03 0.  1.
    9900012    2    1    2    0    0  0.33024072920E+02  0.18795069279E+02 -0.14467940076E+02  0.50528864354E+02  0.30000013691E+02 0.  0.
         12    1    1    2    0    0 -0.33024072920E+02 -0.18795069279E+02  0.14467940076E+02  0.40659135646E+02  0.00000000000E+00 0. -1.
         11    1    3    3    0    0  0.30275039132E+02  0.13728367439E+02 -0.17222883267E+02  0.37438933949E+02  0.51100000000E-03 0.  1.
        -11    1    3    3    0    0 -0.10592275040E+01 -0.20415723902E+01  0.43024622952E+01  0.48786435402E+01  0.51100000000E-03 0. -1.
        -12    1    3    3    0    0  0.38082612921E+01  0.71082742300E+01 -0.15475191044E+01  0.82112868648E+01  0.00000000000E+00 0.  1.
</event>
<event>
 7    1  0.2942034E-011  0.5052886E+02  0.7816164E-02  0.1300439E+00
        -11   -1    0    0    0    0  0.00000000000E+00  0.00000000000E+00  0.45593999997E+02  0.45594000000E+02  0.51100000000E-03 0.  1.
         11   -1    0    0    0    0 -0.00000000000E+00 -0.00000000000E+00 -0.45593999997E+02  0.45594000000E+02  0.51100000000E-03 0. -1.
    9900012    2    1    2    0    0 -0.15178776051E+02  0.68277024735E+01  0.37096537900E+02  0.50528857269E+02  0.29999992155E+02 0.  0.
         12    1    1    2    0    0  0.15178776051E+02 -0.68277024735E+01 -0.37096537900E+02  0.40659142731E+02  0.00000000000E+00 0. -1.
         11    1    3    3    0    0 -0.14112848154E+02  0.33259087141E+01  0.29642827486E+02  0.32998960187E+02  0.51100000000E-03 0.  1.
        -11    1    3    3    0    0  0.40647056727E+00  0.86258598332E+01  0.34268765350E+00  0.86422283743E+01  0.51100000000E-03 0. -1.
         12    1    3    3    0    0 -0.14723984642E+01 -0.51240660738E+01  0.71110227600E+01  0.88876687077E+01  0.00000000000E+00 0. -1.
</event>
<event>
 7    1  0.2942034E-011  0.5052888E+02  0.7816164E-02  0.1300439E+00
        -11   -1    0    0    0    0  0.00000000000E+00  0.00000000000E+00  0.45593999997E+02  0.45594000000E+02  0.51100000000E-03 0.  1.
         11   -1    0    0    0    0 -0.00000000000E+00 -0.00000000000E+00 -0.45593999997E+02  0.45594000000E+02  0.51100000000E-03 0. -1.
    9900012    2    1    2    0    0 -0.14279824248E+02  0.20801733409E+01  0.38012151271E+02  0.50528878687E+02  0.30000057257E+02 0.  0.
         12    1    1    2    0    0  0.14279824248E+02 -0.20801733409E+01 -0.38012151271E+02  0.40659121313E+02  0.00000000000E+00 0. -1.
         11    1    3    3    0    0 -0.10782112036E+02  0.62904881298E+01  0.79641843725E+01  0.14807174404E+02  0.51100000000E-03 0. -1.
        -11    1    3    3    0    0 -0.14361197321E+01 -0.11522675223E+02  0.19974410768E+02  0.23104362574E+02  0.51100000000E-03 0.  1.
        -12    1    3    3    0    0 -0.20615924805E+01  0.73123604337E+01  0.10073556131E+02  0.12617341708E+02  0.00000000000E+00 0.  1.
</event>
<event>
 7    1  0.2942034E-011  0.5052886E+02  0.7816164E-02  0.1300439E+00
        -11   -1    0    0    0    0  0.00000000000E+00  0.00000000000E+00  0.45593999997E+02  0.45594000000E+02  0.51100000000E-03 0.  1.
         11   -1    0    0    0    0 -0.00000000000E+00 -0.00000000000E+00 -0.45593999997E+02  0.45594000000E+02  0.51100000000E-03 0. -1.
    9900012    2    1    2    0    0  0.14444880107E+00  0.27259743914E+02  0.30167051431E+02  0.50528862088E+02  0.30000006801E+02 0.  0.
         12    1    1    2    0    0 -0.14444880107E+00 -0.27259743914E+02 -0.30167051431E+02  0.40659137912E+02  0.00000000000E+00 0. -1.
         11    1    3    3    0    0 -0.70492809309E+01  0.16243507498E+02  0.28298129924E+02  0.33381552614E+02  0.51100000000E-03 0.  1.
        -11    1    3    3    0    0  0.31641090451E+00  0.92707143859E+01 -0.13176415294E+01  0.93692283859E+01  0.51100000000E-03 0. -1.
        -12    1    3    3    0    0  0.68773188275E+01  0.17455220301E+01  0.31865630365E+01  0.77780810871E+01  0.00000000000E+00 0.  1.
</event>
<event>
 7    1  0.2942034E-011  0.5052887E+02  0.7816164E-02  0.1300439E+00
        -11   -1    0    0    0    0  0.00000000000E+00  0.00000000000E+00  0.45593999997E+02  0.45594000000E+02  0.51100000000E-03 0.  1.
         11   -1    0    0    0    0 -0.00000000000E+00 -0.00000000000E+00 -0.45593999997E+02  0.45594000000E+02  0.51100000000E-03 0. -1.
    9900012    2    1    2    0    0 -0.77450939121E+01  0.29965417218E+02  0.26367638429E+02  0.50528867384E+02  0.30000022901E+02 0.  0.
         12    1    1    2    0    0  0.77450939121E+01 -0.29965417218E+02 -0.26367638429E+02  0.40659132616E+02  0.00000000000E+00 0. -1.
         11    1    3    3    0    0 -0.44325580644E+01  0.78307968739E+01  0.27695226648E+01  0.94148397080E+01  0.51100000000E-03 0. -1.
        -11    1    3    3    0    0  0.98790828401E+01  0.39994920816E+01  0.41748922579E+01  0.11446481568E+02  0.51100000000E-03 0.  1.
        -12    1    3    3    0    0 -0.13191618688E+02  0.18135128262E+02  0.19423223506E+02  0.29667546108E+02  0.00000000000E+00 0.  1.
</event>
<event>
 7    1  0.2942034E-011  0.5052886E+02  0.7816164E-02  0.1300439E+00
        -11   -1    0    0    0    0  0.00000000000E+00  0.00000000000E+00  0.45593999997E+02  0.45594000000E+02  0.51100000000E-03 0.  1.
         11   -1    0    0    0    0 -0.00000000000E+00 -0.00000000000E+00 -0.45593999997E+02  0.45594000000E+02  0.51100000000E-03 0. -1.
    9900012    2    1    2    0    0 -0.18770274260E+02  0.18529708997E+02  0.30943371273E+02  0.50528861580E+02  0.30000005258E+02 0.  0.
         12    1    1    2    0    0  0.18770274260E+02 -0.18529708997E+02 -0.30943371273E+02  0.40659138420E+02  0.00000000000E+00 0. -1.
         11    1    3    3    0    0  0.22955242148E+01  0.15810115031E+02  0.91484971092E+01  0.18409893219E+02  0.51100000000E-03 0. -1.
        -11    1    3    3    0    0 -0.43409041467E+01 -0.27831979029E+01  0.89334879374E+01  0.10314884700E+02  0.51100000000E-03 0.  1.
         12    1    3    3    0    0 -0.16724894328E+02  0.55027918691E+01  0.12861386226E+02  0.21804083662E+02  0.00000000000E+00 0. -1.
</event>
<event>
 7    1  0.2942034E-011  0.5052884E+02  0.7816164E-02  0.1300439E+00
        -11   -1    0    0    0    0  0.00000000000E+00  0.00000000000E+00  0.45593999997E+02  0.45594000000E+02  0.51100000000E-03 0. -1.
         11   -1    0    0    0    0 -0.00000000000E+00 -0.00000000000E+00 -0.45593999997E+02  0.45594000000E+02  0.51100000000E-03 0.  1.
    9900012    2    1    2    0    0  0.26673649414E+01  0.15528143310E+02 -0.37482381089E+02  0.50528844051E+02  0.29999951977E+02 0.  0.
         12    1    1    2    0    0 -0.26673649414E+01 -0.15528143310E+02  0.37482381089E+02  0.40659155949E+02  0.00000000000E+00 0. -1.
         11    1    3    3    0    0  0.93283534955E+01  0.54659104713E+01 -0.11330087687E+01  0.10870973523E+02  0.51100000000E-03 0. -1.
        -11    1    3    3    0    0 -0.32401700919E+01  0.93212095236E+01 -0.14559750824E+02  0.17588916781E+02  0.51100000000E-03 0.  1.
         12    1    3    3    0    0 -0.34208184622E+01  0.74102331560E+00 -0.21789621496E+02  0.22068953746E+02  0.00000000000E+00 0. -1.
</event>
<event>
 7    1  0.2942034E-011  0.5052886E+02  0.7816164E-02  0.1300439E+00
        -11   -1    0    0    0    0  0.00000000000E+00  0.00000000000E+00  0.45593999997E+02  0.45594000000E+02  0.51100000000E-03 0. -1.
         11   -1    0    0    0    0 -0.00000000000E+00 -0.00000000000E+00 -0.45593999997E+02  0.45594000000E+02  0.51100000000E-03 0.  1.
    9900012    2    1    2    0    0  0.21059833967E+02 -0.17842635391E+02 -0.29854469088E+02  0.50528861188E+02  0.30000004068E+02 0.  0.
         12    1    1    2    0    0 -0.21059833967E+02  0.17842635391E+02  0.29854469088E+02  0.40659138812E+02  0.00000000000E+00 0. -1.
         11    1    3    3    0    0  0.15465457944E+02 -0.17496955790E+02 -0.14497584831E+02  0.27486429698E+02  0.51100000000E-03 0. -1.
        -11    1    3    3    0    0  0.10008693078E+02  0.41610481529E+01 -0.90284140447E+01  0.14106754385E+02  0.51100000000E-03 0.  1.
        -12    1    3    3    0    0 -0.44143170552E+01 -0.45067277535E+01 -0.63284702121E+01  0.89356771055E+01  0.00000000000E+00 0.  1.
</event>
<event>
 7    1  0.2942034E-011  0.5052887E+02  0.7816164E-02  0.1300439E+00
        -11   -1    0    0    0    0  0.00000000000E+00  0.00000000000E+00  0.45593999997E+02  0.45594000000E+02  0.51100000000E-03 0.  1.
         11   -1    0    0    0    0 -0.00000000000E+00 -0.00000000000E+00 -0.45593999997E+02  0.45594000000E+02  0.51100000000E-03 0. -1.
    9900012    2    1    2    0    0  0.17590716972E+02 -0.13296919641E+02  0.34160256712E+02  0.50528873913E+02  0.30000042745E+02 0.  0.
         12    1    1    2    0    0 -0.17590716972E+02  0.13296919641E+02 -0.34160256712E+02  0.40659126087E+02  0.00000000000E+00 0. -1.
         11    1    3    3    0    0  0.86397649505E+01 -0.25305641947E+01 -0.33724489921E+01  0.96136728678E+01  0.51100000000E-03 0. -1.
        -11    1    3    3    0    0  0.79431126209E+01 -0.60732698529E+01  0.16105460951E+02  0.18956885755E+02  0.51100000000E-03 0.  1.
         12    1    3    3    0    0  0.10078394004E+01 -0.46930855938E+01  0.21427244754E+02  0.21958315290E+02  0.00000000000E+00 0. -1.
</event>
<event>
 7    1  0.2942034E-011  0.5052886E+02  0.7816164E-02  0.1300439E+00
        -11   -1    0    0    0    0  0.00000000000E+00  0.00000000000E+00  0.45593999997E+02  0.45594000000E+02  0.51100000000E-03 0.  1.
         11   -1    0    0    0    0 -0.00000000000E+00 -0.00000000000E+00 -0.45593999997E+02  0.45594000000E+02  0.51100000000E-03 0. -1.
    9900012    2    1    2    0    0  0.70714823126E+01 -0.34668625338E+02  0.20031136954E+02  0.50528857208E+02  0.29999991969E+02 0.  0.
         12    1    1    2    0    0 -0.70714823126E+01  0.34668625338E+02 -0.20031136954E+02  0.40659142792E+02  0.00000000000E+00 0. -1.
         11    1    3    3    0    0  0.11230098385E+02 -0.10111367707E+02  0.31413376464E+00  0.15114679848E+02  0.51100000000E-03 0. -1.
        -11    1    3    3    0    0 -0.99563032810E+01 -0.12116419076E+02  0.10974114091E+02  0.19140709668E+02  0.51100000000E-03 0.  1.
        -12    1    3    3    0    0  0.57976872089E+01 -0.12440838555E+02  0.87428890992E+01  0.16273467692E+02  0.00000000000E+00 0.  1.
</event>
<event>
 7    1  0.2942034E-011  0.5052886E+02  0.7816164E-02  0.1300439E+00
        -11   -1    0    0    0    0  0.00000000000E+00  0.00000000000E+00  0.45593999997E+02  0.45594000000E+02  0.51100000000E-03 0.  1.
         11   -1    0    0    0    0 -0.00000000000E+00 -0.00000000000E+00 -0.45593999997E+02  0.45594000000E+02  0.51100000000E-03 0. -1.
    9900012    2    1    2    0    0  0.24930157968E+01  0.35501678677E+02  0.19661679562E+02  0.50528856381E+02  0.29999989454E+02 0.  0.
         12    1    1    2    0    0 -0.24930157968E+01 -0.35501678677E+02 -0.19661679562E+02  0.40659143619E+02  0.00000000000E+00 0. -1.
         11    1    3    3    0    0 -0.13799897715E+01 -0.44033554022E+01  0.24407838903E+00  0.46209831301E+01  0.51100000000E-03 0. -1.
        -11    1    3    3    0    0 -0.39149183370E+01  0.15081077394E+02  0.74483260366E+01  0.17269714588E+02  0.51100000000E-03 0.  1.
         12    1    3    3    0    0  0.77879239053E+01  0.24823956685E+02  0.11969275136E+02  0.28638158662E+02  0.00000000000E+00 0. -1.
</event>
<event>
 7    1  0.2942034E-011  0.5052886E+02  0.7816164E-02  0.1300439E+00
        -11   -1    0    0    0    0  0.00000000000E+00  0.00000000000E+00  0.45593999997E+02  0.45594000000E+02  0.51100000000E-03 0.  1.
         11   -1    0    0    0    0 -0.00000000000E+00 -0.00000000000E+00 -0.45593999997E+02  0.45594000000E+02  0.51100000000E-03 0. -1.
    9900012    2    1    2    0    0  0.10131990423E+02 -0.16806598092E+02  0.35609646882E+02  0.50528856865E+02  0.29999990928E+02 0.  0.
         12    1    1    2    0    0 -0.10131990423E+02  0.16806598092E+02 -0.35609646882E+02  0.40659143135E+02  0.00000000000E+00 0. -1.
         11    1    3    3    0    0  0.10712858431E+02 -0.77775808840E+00  0.22832770669E+02  0.25233027169E+02  0.51100000000E-03 0. -1.
        -11    1    3    3    0    0  0.61948020668E+01 -0.12040627895E+02  0.56088039231E+01  0.14656431164E+02  0.51100000000E-03 0.  1.
         12    1    3    3    0    0 -0.67756700748E+01 -0.39882121088E+01  0.71680722897E+01  0.10639398533E+02  0.00000000000E+00 0. -1.
</event>
<event>
 7    1  0.2942034E-011  0.5052885E+02  0.7816164E-02  0.1300439E+00
        -11   -1    0    0    0    0  0.00000000000E+00  0.00000000000E+00  0.45593999997E+02  0.45594000000E+02  0.51100000000E-03 0. -1.
         11   -1    0    0    0    0 -0.00000000000E+00 -0.00000000000E+00 -0.45593999997E+02  0.45594000000E+02  0.51100000000E-03 0.  1.
    9900012    2    1    2    0    0 -0.26151242071E+02 -0.12295571177E+01 -0.31108950886E+02  0.50528854684E+02  0.29999984297E+02 0.  0.
         12    1    1    2    0    0  0.26151242071E+02  0.12295571177E+01  0.31108950886E+02  0.40659145316E+02  0.00000000000E+00 0. -1.
         11    1    3    3    0    0 -0.58717690898E+01  0.10130983636E+02 -0.22249409841E+02  0.25142608063E+02  0.51100000000E-03 0. -1.
        -11    1    3    3    0    0 -0.14249714003E+02 -0.54868378949E+01 -0.68289359968E+01  0.16727047150E+02  0.51100000000E-03 0.  1.
         12    1    3    3    0    0 -0.60297589789E+01 -0.58737028586E+01 -0.20306050480E+01  0.86591994708E+01  0.00000000000E+00 0. -1.
</event>
<event>
 7    1  0.2942034E-011  0.5052886E+02  0.7816164E-02  0.1300439E+00
        -11   -1    0    0    0    0  0.00000000000E+00  0.00000000000E+00  0.45593999997E+02  0.45594000000E+02  0.51100000000E-03 0.  1.
         11   -1    0    0    0    0 -0.00000000000E+00 -0.00000000000E+00 -0.45593999997E+02  0.45594000000E+02  0.51100000000E-03 0. -1.
    9900012    2    1    2    0    0  0.28112964720E+02  0.26832515866E+02  0.11951678783E+02  0.50528864264E+02  0.30000013417E+02 0.  0.
         12    1    1    2    0    0 -0.28112964720E+02 -0.26832515866E+02 -0.11951678783E+02  0.40659135736E+02  0.00000000000E+00 0. -1.
         11    1    3    3    0    0  0.19604519916E+01 -0.19303854875E+01 -0.55439948851E+01  0.61891550061E+01  0.51100000000E-03 0. -1.
        -11    1    3    3    0    0  0.21760869109E+02  0.17170309540E+02  0.15575080083E+02  0.31795252380E+02  0.51100000000E-03 0.  1.
         12    1    3    3    0    0  0.43916436199E+01  0.11592591814E+02  0.19205935856E+01  0.12544456878E+02  0.00000000000E+00 0. -1.
</event>
<event>
 7    1  0.2942034E-011  0.5052886E+02  0.7816164E-02  0.1300439E+00
        -11   -1    0    0    0    0  0.00000000000E+00  0.00000000000E+00  0.45593999997E+02  0.45594000000E+02  0.51100000000E-03 0.  1.
         11   -1    0    0    0    0 -0.00000000000E+00 -0.00000000000E+00 -0.45593999997E+02  0.45594000000E+02  0.51100000000E-03 0. -1.
    9900012    2    1    2    0    0 -0.22524440112E+02 -0.25160207944E+02  0.22644627169E+02  0.50528860735E+02  0.30000002690E+02 0.  0.
         12    1    1    2    0    0  0.22524440112E+02  0.25160207944E+02 -0.22644627169E+02  0.40659139265E+02  0.00000000000E+00 0. -1.
         11    1    3    3    0    0 -0.12219239833E+01  0.96315557278E+00  0.17515333129E+01  0.23427838325E+01  0.51100000000E-03 0. -1.
        -11    1    3    3    0    0 -0.22233373816E+02 -0.26112765418E+02  0.25973439057E+02  0.43021145566E+02  0.51100000000E-03 0.  1.
        -12    1    3    3    0    0  0.93085768769E+00 -0.10598098318E-01 -0.50803452011E+01  0.51649313371E+01  0.00000000000E+00 0.  1.
</event>
<event>
 7    1  0.2942034E-011  0.5052887E+02  0.7816164E-02  0.1300439E+00
        -11   -1    0    0    0    0  0.00000000000E+00  0.00000000000E+00  0.45593999997E+02  0.45594000000E+02  0.51100000000E-03 0.  1.
         11   -1    0    0    0    0 -0.00000000000E+00 -0.00000000000E+00 -0.45593999997E+02  0.45594000000E+02  0.51100000000E-03 0. -1.
    9900012    2    1    2    0    0  0.24286868579E+02  0.95308806905E+01  0.31184529394E+02  0.50528873772E+02  0.30000042317E+02 0.  0.
         12    1    1    2    0    0 -0.24286868579E+02 -0.95308806905E+01 -0.31184529394E+02  0.40659126228E+02  0.00000000000E+00 0. -1.
         11    1    3    3    0    0  0.24318294006E+02  0.12122850532E+02  0.16846622453E+02  0.31971105966E+02  0.51100000000E-03 0. -1.
        -11    1    3    3    0    0  0.38058597591E+01  0.29464225061E+01  0.42168123734E+01  0.63990218740E+01  0.51100000000E-03 0.  1.
         12    1    3    3    0    0 -0.38372851856E+01 -0.55383923479E+01  0.10121094567E+02  0.12158745932E+02  0.00000000000E+00 0. -1.
</event>
<event>
 7    1  0.2942034E-011  0.5052886E+02  0.7816164E-02  0.1300439E+00
        -11   -1    0    0    0    0  0.00000000000E+00  0.00000000000E+00  0.45593999997E+02  0.45594000000E+02  0.51100000000E-03 0.  1.
         11   -1    0    0    0    0 -0.00000000000E+00 -0.00000000000E+00 -0.45593999997E+02  0.45594000000E+02  0.51100000000E-03 0. -1.
    9900012    2    1    2    0    0  0.29198808002E+02 -0.23873236501E+02  0.15187623944E+02  0.50528859197E+02  0.29999998015E+02 0.  0.
         12    1    1    2    0    0 -0.29198808002E+02  0.23873236501E+02 -0.15187623944E+02  0.40659140803E+02  0.00000000000E+00 0. -1.
         11    1    3    3    0    0 -0.29776915465E+01 -0.91822542472E+01 -0.18290634020E+01  0.98247602106E+01  0.51100000000E-03 0. -1.
        -11    1    3    3    0    0  0.24798935641E+02 -0.90598191077E+01  0.75809557906E+01  0.27468862775E+02  0.51100000000E-03 0.  1.
         12    1    3    3    0    0  0.73775639077E+01 -0.56311631461E+01  0.94357315558E+01  0.13235236212E+02  0.00000000000E+00 0. -1.
</event>
<event>
 7    1  0.2942034E-011  0.5052886E+02  0.7816164E-02  0.1300439E+00
        -11   -1    0    0    0    0  0.00000000000E+00  0.00000000000E+00  0.45593999997E+02  0.45594000000E+02  0.51100000000E-03 0.  1.
         11   -1    0    0    0    0 -0.00000000000E+00 -0.00000000000E+00 -0.45593999997E+02  0.45594000000E+02  0.51100000000E-03 0. -1.
    9900012    2    1    2    0    0  0.18794960950E+02  0.73801711474E+01  0.35290907108E+02  0.50528860710E+02  0.30000002615E+02 0.  0.
         12    1    1    2    0    0 -0.18794960950E+02 -0.73801711474E+01 -0.35290907108E+02  0.40659139290E+02  0.00000000000E+00 0. -1.
         11    1    3    3    0    0 -0.76225472919E+01  0.44411953378E+01  0.79337296992E+01  0.11864717040E+02  0.51100000000E-03 0. -1.
        -11    1    3    3    0    0  0.59763973861E+01  0.10275638569E+01  0.28690967961E+01  0.67085713742E+01  0.51100000000E-03 0.  1.
         12    1    3    3    0    0  0.20441110856E+02  0.19114119527E+01  0.24488080613E+02  0.31955572296E+02  0.00000000000E+00 0. -1.
</event>
<event>
 7    1  0.2942034E-011  0.5052882E+02  0.7816164E-02  0.1300439E+00
        -11   -1    0    0    0    0  0.00000000000E+00  0.00000000000E+00  0.45593999997E+02  0.45594000000E+02  0.51100000000E-03 0.  1.
         11   -1    0    0    0    0 -0.00000000000E+00 -0.00000000000E+00 -0.45593999997E+02  0.45594000000E+02  0.51100000000E-03 0. -1.
    9900012    2    1    2    0    0  0.31435704041E+01  0.40443202246E+02  0.27630492534E+01  0.50528817962E+02  0.29999872678E+02 0.  0.
         12    1    1    2    0    0 -0.31435704041E+01 -0.40443202246E+02 -0.27630492534E+01  0.40659182038E+02  0.00000000000E+00 0. -1.
         11    1    3    3    0    0  0.36143963625E+01 -0.11376375980E+01 -0.38695708142E+01  0.54158710210E+01  0.51100000000E-03 0. -1.
        -11    1    3    3    0    0 -0.52302749981E+00  0.27313041768E+02 -0.36011614921E+01  0.27554385726E+02  0.51100000000E-03 0.  1.
         12    1    3    3    0    0  0.52201541438E-01  0.14267798077E+02  0.10233781560E+02  0.17558561216E+02  0.00000000000E+00 0. -1.
</event>
<event>
 7    1  0.2942034E-011  0.5052886E+02  0.7816164E-02  0.1300439E+00
        -11   -1    0    0    0    0  0.00000000000E+00  0.00000000000E+00  0.45593999997E+02  0.45594000000E+02  0.51100000000E-03 0.  1.
         11   -1    0    0    0    0 -0.00000000000E+00 -0.00000000000E+00 -0.45593999997E+02  0.45594000000E+02  0.51100000000E-03 0. -1.
    9900012    2    1    2    0    0 -0.29082242882E+02 -0.13795251988E+02  0.24841093161E+02  0.50528859110E+02  0.29999997750E+02 0.  0.
         12    1    1    2    0    0  0.29082242882E+02  0.13795251988E+02 -0.24841093161E+02  0.40659140890E+02  0.00000000000E+00 0. -1.
         11    1    3    3    0    0  0.38904450280E+01  0.51472002173E+00 -0.87570901305E+00  0.40208662939E+01  0.51100000000E-03 0. -1.
        -11    1    3    3    0    0 -0.28977046451E+02 -0.16689215538E+02  0.25111283676E+02  0.41818365636E+02  0.51100000000E-03 0.  1.
        -12    1    3    3    0    0 -0.39956414591E+01  0.23792435286E+01  0.60551849855E+00  0.46896271803E+01  0.00000000000E+00 0.  1.
</event>
<event>
 7    1  0.2942034E-011  0.5052886E+02  0.7816164E-02  0.1300439E+00
        -11   -1    0    0    0    0  0.00000000000E+00  0.00000000000E+00  0.45593999997E+02  0.45594000000E+02  0.51100000000E-03 0.  1.
         11   -1    0    0    0    0 -0.00000000000E+00 -0.00000000000E+00 -0.45593999997E+02  0.45594000000E+02  0.51100000000E-03 0. -1.
    9900012    2    1    2    0    0  0.41412577433E+01  0.16500020346E+02  0.36929184357E+02  0.50528863950E+02  0.30000012461E+02 0.  0.
         12    1    1    2    0    0 -0.41412577433E+01 -0.16500020346E+02 -0.36929184357E+02  0.40659136050E+02  0.00000000000E+00 0. -1.
         11    1    3    3    0    0 -0.86171173051E+01  0.11782478257E+02  0.10171690491E+02  0.17791705714E+02  0.51100000000E-03 0. -1.
        -11    1    3    3    0    0  0.11709803851E+02  0.53960891353E+01  0.11051397649E+02  0.16981480337E+02  0.51100000000E-03 0.  1.
         12    1    3    3    0    0  0.10485711978E+01 -0.67854704658E+00  0.15706096217E+02  0.15755677898E+02  0.00000000000E+00 0. -1.
</event>
<event>
 7    1  0.2942034E-011  0.5052885E+02  0.7816164E-02  0.1300439E+00
        -11   -1    0    0    0    0  0.00000000000E+00  0.00000000000E+00  0.45593999997E+02  0.45594000000E+02  0.51100000000E-03 0.  1.
         11   -1    0    0    0    0 -0.00000000000E+00 -0.00000000000E+00 -0.45593999997E+02  0.45594000000E+02  0.51100000000E-03 0. -1.
    9900012    2    1    2    0    0 -0.32762156304E+02 -0.19307444609E+02  0.14388556557E+02  0.50528845276E+02  0.29999955702E+02 0.  0.
         12    1    1    2    0    0  0.32762156304E+02  0.19307444609E+02 -0.14388556557E+02  0.40659154724E+02  0.00000000000E+00 0. -1.
         11    1    3    3    0    0  0.50757101156E+01 -0.12555373181E+01  0.28497869312E+00  0.52364511123E+01  0.51100000000E-03 0. -1.
        -11    1    3    3    0    0 -0.25451427186E+02 -0.69012170180E+01  0.89386709252E+01  0.27844241421E+02  0.51100000000E-03 0.  1.
         12    1    3    3    0    0 -0.12386439234E+02 -0.11150690273E+02  0.51649069391E+01  0.17448152743E+02  0.00000000000E+00 0. -1.
</event>
<event>
 7    1  0.2942034E-011  0.5052886E+02  0.7816164E-02  0.1300439E+00
        -11   -1    0    0    0    0  0.00000000000E+00  0.00000000000E+00  0.45593999997E+02  0.45594000000E+02  0.51100000000E-03 0. -1.
         11   -1    0    0    0    0 -0.00000000000E+00 -0.00000000000E+00 -0.45593999997E+02  0.45594000000E+02  0.51100000000E-03 0.  1.
    9900012    2    1    2    0    0  0.39844608792E+02 -0.31208982415E+01 -0.74721320659E+01  0.50528860643E+02  0.30000002410E+02 0.  0.
         12    1    1    2    0    0 -0.39844608792E+02  0.31208982415E+01  0.74721320659E+01  0.40659139357E+02  0.00000000000E+00 0. -1.
         11    1    3    3    0    0  0.21054555874E+01  0.25271130952E+01 -0.91470977782E+01  0.97205268300E+01  0.51100000000E-03 0. -1.
        -11    1    3    3    0    0  0.20976775111E+02 -0.36231566758E+01 -0.62085877435E+01  0.22174285116E+02  0.51100000000E-03 0.  1.
         12    1    3    3    0    0  0.16762378094E+02 -0.20248546608E+01  0.78835534558E+01  0.18634048697E+02  0.00000000000E+00 0. -1.
</event>
<event>
 7    1  0.2942034E-011  0.5052888E+02  0.7816164E-02  0.1300439E+00
        -11   -1    0    0    0    0  0.00000000000E+00  0.00000000000E+00  0.45593999997E+02  0.45594000000E+02  0.51100000000E-03 0.  1.
         11   -1    0    0    0    0 -0.00000000000E+00 -0.00000000000E+00 -0.45593999997E+02  0.45594000000E+02  0.51100000000E-03 0. -1.
    9900012    2    1    2    0    0  0.38066951115E+02  0.63114620679E+01  0.12815503087E+02  0.50528875071E+02  0.30000046265E+02 0.  0.
         12    1    1    2    0    0 -0.38066951115E+02 -0.63114620679E+01 -0.12815503087E+02  0.40659124929E+02  0.00000000000E+00 0. -1.
         11    1    3    3    0    0  0.18493206552E+02  0.10892642054E+02  0.15533799877E+02  0.26494287656E+02  0.51100000000E-03 0. -1.
        -11    1    3    3    0    0  0.12462206853E+02 -0.81680682589E+01  0.15798087622E+01  0.14983982605E+02  0.51100000000E-03 0.  1.
        -12    1    3    3    0    0  0.71115377105E+01  0.35868882725E+01 -0.42981055526E+01  0.90506048100E+01  0.00000000000E+00 0.  1.
</event>
<event>
 7    1  0.2942034E-011  0.5052887E+02  0.7816164E-02  0.1300439E+00
        -11   -1    0    0    0    0  0.00000000000E+00  0.00000000000E+00  0.45593999997E+02  0.45594000000E+02  0.51100000000E-03 0.  1.
         11   -1    0    0    0    0 -0.00000000000E+00 -0.00000000000E+00 -0.45593999997E+02  0.45594000000E+02  0.51100000000E-03 0. -1.
    9900012    2    1    2    0    0 -0.32629878633E+02  0.15202628373E+02  0.18903340311E+02  0.50528866168E+02  0.30000019205E+02 0.  0.
         12    1    1    2    0    0  0.32629878633E+02 -0.15202628373E+02 -0.18903340311E+02  0.40659133832E+02  0.00000000000E+00 0. -1.
         11    1    3    3    0    0 -0.95709958930E+00 -0.66234155218E+01  0.30112002409E+01  0.73384603256E+01  0.51100000000E-03 0. -1.
        -11    1    3    3    0    0 -0.23703131496E+02  0.16595335015E+02  0.17054086979E+02  0.33586983639E+02  0.51100000000E-03 0.  1.
        -12    1    3    3    0    0 -0.79696475473E+01  0.52307088795E+01 -0.11619469091E+01  0.96034222041E+01  0.00000000000E+00 0.  1.
</event>
<event>
 7    1  0.2942034E-011  0.5052886E+02  0.7816164E-02  0.1300439E+00
        -11   -1    0    0    0    0  0.00000000000E+00  0.00000000000E+00  0.45593999997E+02  0.45594000000E+02  0.51100000000E-03 0.  1.
         11   -1    0    0    0    0 -0.00000000000E+00 -0.00000000000E+00 -0.45593999997E+02  0.45594000000E+02  0.51100000000E-03 0. -1.
    9900012    2    1    2    0    0  0.23382952245E+01 -0.29906082907E+02  0.27446747794E+02  0.50528863464E+02  0.30000010985E+02 0.  0.
         12    1    1    2    0    0 -0.23382952245E+01  0.29906082907E+02 -0.27446747794E+02  0.40659136536E+02  0.00000000000E+00 0. -1.
         11    1    3    3    0    0  0.20480543441E+01 -0.52295091676E+01 -0.63035762386E+01  0.84425923973E+01  0.51100000000E-03 0. -1.
        -11    1    3    3    0    0  0.25200853810E+01 -0.15148873245E+02  0.20775828541E+02  0.25835522885E+02  0.51100000000E-03 0.  1.
         12    1    3    3    0    0 -0.22298445006E+01 -0.95277004949E+01  0.12974495491E+02  0.16250748182E+02  0.00000000000E+00 0. -1.
</event>
<event>
 7    1  0.2942034E-011  0.5052886E+02  0.7816164E-02  0.1300439E+00
        -11   -1    0    0    0    0  0.00000000000E+00  0.00000000000E+00  0.45593999997E+02  0.45594000000E+02  0.51100000000E-03 0.  1.
         11   -1    0    0    0    0 -0.00000000000E+00 -0.00000000000E+00 -0.45593999997E+02  0.45594000000E+02  0.51100000000E-03 0. -1.
    9900012    2    1    2    0    0  0.12849988159E+02  0.37700019936E+02 -0.81701838662E+01  0.50528860766E+02  0.30000002785E+02 0.  0.
         12    1    1    2    0    0 -0.12849988159E+02 -0.37700019936E+02  0.81701838662E+01  0.40659139234E+02  0.00000000000E+00 0. -1.
         11    1    3    3    0    0  0.31209682347E+01  0.17332638984E+02 -0.84108884889E+01  0.19516758499E+02  0.51100000000E-03 0. -1.
        -11    1    3    3    0    0  0.13681693055E+02  0.20011786094E+02  0.50650033079E+01  0.24765188598E+02  0.51100000000E-03 0.  1.
        -12    1    3    3    0    0 -0.39526731310E+01  0.35559485733E+00 -0.48242986852E+01  0.62469136690E+01  0.00000000000E+00 0.  1.
</event>
<event>
 7    1  0.2942034E-011  0.5052887E+02  0.7816164E-02  0.1300439E+00
        -11   -1    0    0    0    0  0.00000000000E+00  0.00000000000E+00  0.45593999997E+02  0.45594000000E+02  0.51100000000E-03 0. -1.
         11   -1    0    0    0    0 -0.00000000000E+00 -0.00000000000E+00 -0.45593999997E+02  0.45594000000E+02  0.51100000000E-03 0.  1.
    9900012    2    1    2    0    0 -0.79891547310E+01 -0.39864428518E+02  0.40727202896E+00  0.50528866649E+02  0.30000020666E+02 0.  0.
         12    1    1    2    0    0  0.79891547310E+01  0.39864428518E+02 -0.40727202896E+00  0.40659133351E+02  0.00000000000E+00 0. -1.
         11    1    3    3    0    0 -0.14353127767E+02 -0.21504517077E+02  0.57249239386E+01  0.26480772001E+02  0.51100000000E-03 0. -1.
        -11    1    3    3    0    0 -0.13566948388E+01  0.23059502418E+00 -0.35892939327E+01  0.38440637544E+01  0.51100000000E-03 0.  1.
         12    1    3    3    0    0  0.77206678743E+01 -0.18590506465E+02 -0.17283579769E+01  0.20204030894E+02  0.00000000000E+00 0. -1.
</event>
<event>
 7    1  0.2942034E-011  0.5052887E+02  0.7816164E-02  0.1300439E+00
        -11   -1    0    0    0    0  0.00000000000E+00  0.00000000000E+00  0.45593999997E+02  0.45594000000E+02  0.51100000000E-03 0.  1.
         11   -1    0    0    0    0 -0.00000000000E+00 -0.00000000000E+00 -0.45593999997E+02  0.45594000000E+02  0.51100000000E-03 0. -1.
    9900012    2    1    2    0    0  0.21927965666E+02 -0.33626383401E+02 -0.64494712827E+01  0.50528867954E+02  0.30000024634E+02 0.  0.
         12    1    1    2    0    0 -0.21927965666E+02  0.33626383401E+02  0.64494712827E+01  0.40659132046E+02  0.00000000000E+00 0. -1.
         11    1    3    3    0    0 -0.34316092239E+01 -0.14758959173E+02 -0.56098642817E+00  0.15163031483E+02  0.51100000000E-03 0. -1.
        -11    1    3    3    0    0  0.19665763042E+02 -0.95372036566E+01  0.19085163659E+01  0.21939528814E+02  0.51100000000E-03 0.  1.
         12    1    3    3    0    0  0.56938118482E+01 -0.93302205717E+01 -0.77970012205E+01  0.13426307657E+02  0.00000000000E+00 0. -1.
</event>
<event>
 7    1  0.2942034E-011  0.5052886E+02  0.7816164E-02  0.1300439E+00
        -11   -1    0    0    0    0  0.00000000000E+00  0.00000000000E+00  0.45593999997E+02  0.45594000000E+02  0.51100000000E-03 0.  1.
         11   -1    0    0    0    0 -0.00000000000E+00 -0.00000000000E+00 -0.45593999997E+02  0.45594000000E+02  0.51100000000E-03 0. -1.
    9900012    2    1    2    0    0  0.19621266262E+02 -0.26232871155E+02  0.24083355206E+02  0.50528860600E+02  0.30000002280E+02 0.  0.
         12    1    1    2    0    0 -0.19621266262E+02  0.26232871155E+02 -0.24083355206E+02  0.40659139400E+02  0.00000000000E+00 0. -1.
         11    1    3    3    0    0  0.83273786600E+01 -0.28426585325E+02  0.16604978243E+02  0.33957934144E+02  0.51100000000E-03 0. -1.
        -11    1    3    3    0    0  0.94961747463E+00  0.16341812307E+01  0.57699246810E+01  0.60716021550E+01  0.51100000000E-03 0.  1.
         12    1    3    3    0    0  0.10344270128E+02  0.55953293959E+00  0.17084522824E+01  0.10499324301E+02  0.00000000000E+00 0. -1.
</event>
<event>
 7    1  0.2942034E-011  0.5052886E+02  0.7816164E-02  0.1300439E+00
        -11   -1    0    0    0    0  0.00000000000E+00  0.00000000000E+00  0.45593999997E+02  0.45594000000E+02  0.51100000000E-03 0. -1.
         11   -1    0    0    0    0 -0.00000000000E+00 -0.00000000000E+00 -0.45593999997E+02  0.45594000000E+02  0.51100000000E-03 0.  1.
    9900012    2    1    2    0    0 -0.38298559146E+02  0.78294903433E+01 -0.11184142569E+02  0.50528860847E+02  0.30000003030E+02 0.  0.
         12    1    1    2    0    0  0.38298559146E+02 -0.78294903433E+01  0.11184142569E+02  0.40659139153E+02  0.00000000000E+00 0. -1.
         11    1    3    3    0    0 -0.18289233739E+00  0.76591639889E+01 -0.39993625802E+01  0.86424038280E+01  0.51100000000E-03 0. -1.
        -11    1    3    3    0    0 -0.28713537346E+02  0.40833397502E+01  0.69384292315E+00  0.29010727476E+02  0.51100000000E-03 0.  1.
        -12    1    3    3    0    0 -0.94021294629E+01 -0.39130133959E+01 -0.78786229122E+01  0.12875729543E+02  0.00000000000E+00 0.  1.
</event>
<event>
 7    1  0.2942034E-011  0.5052885E+02  0.7816164E-02  0.1300439E+00
        -11   -1    0    0    0    0  0.00000000000E+00  0.00000000000E+00  0.45593999997E+02  0.45594000000E+02  0.51100000000E-03 0.  1.
         11   -1    0    0    0    0 -0.00000000000E+00 -0.00000000000E+00 -0.45593999997E+02  0.45594000000E+02  0.51100000000E-03 0. -1.
    9900012    2    1    2    0    0  0.29559317350E+02  0.25621826922E+02  0.11087624114E+02  0.50528847703E+02  0.29999963078E+02 0.  0.
         12    1    1    2    0    0 -0.29559317350E+02 -0.25621826922E+02 -0.11087624114E+02  0.40659152297E+02  0.00000000000E+00 0. -1.
         11    1    3    3    0    0  0.74515375006E+01 -0.36370383443E+01  0.10402309248E+02  0.13302687586E+02  0.51100000000E-03 0. -1.
        -11    1    3    3    0    0  0.15667211349E+02  0.15556845210E+02  0.29037690022E+00  0.22080789463E+02  0.51100000000E-03 0.  1.
         12    1    3    3    0    0  0.64405685009E+01  0.13702020057E+02  0.39493796499E+00  0.15145370654E+02  0.00000000000E+00 0. -1.
</event>
<event>
 7    1  0.2942034E-011  0.5052886E+02  0.7816164E-02  0.1300439E+00
        -11   -1    0    0    0    0  0.00000000000E+00  0.00000000000E+00  0.45593999997E+02  0.45594000000E+02  0.51100000000E-03 0.  1.
         11   -1    0    0    0    0 -0.00000000000E+00 -0.00000000000E+00 -0.45593999997E+02  0.45594000000E+02  0.51100000000E-03 0. -1.
    9900012    2    1    2    0    0 -0.29448562129E+02 -0.54233159100E+01  0.27505192117E+02  0.50528858834E+02  0.29999996913E+02 0.  0.
         12    1    1    2    0    0  0.29448562129E+02  0.54233159100E+01 -0.27505192117E+02  0.40659141166E+02  0.00000000000E+00 0. -1.
         11    1    3    3    0    0 -0.33714472998E+01 -0.21999654209E+00 -0.27296261573E+01  0.43434910606E+01  0.51100000000E-03 0. -1.
        -11    1    3    3    0    0 -0.31966827063E+01 -0.71861184079E+01  0.19112840299E+02  0.20667843202E+02  0.51100000000E-03 0.  1.
        -12    1    3    3    0    0 -0.22880432123E+02  0.19827990399E+01  0.11121977976E+02  0.25517524571E+02  0.00000000000E+00 0.  1.
</event>
<event>
 7    1  0.2942034E-011  0.5052886E+02  0.7816164E-02  0.1300439E+00
        -11   -1    0    0    0    0  0.00000000000E+00  0.00000000000E+00  0.45593999997E+02  0.45594000000E+02  0.51100000000E-03 0. -1.
         11   -1    0    0    0    0 -0.00000000000E+00 -0.00000000000E+00 -0.45593999997E+02  0.45594000000E+02  0.51100000000E-03 0.  1.
    9900012    2    1    2    0    0  0.27714121911E+02 -0.23093484625E+02 -0.18755900439E+02  0.50528863430E+02  0.30000010881E+02 0.  0.
         12    1    1    2    0    0 -0.27714121911E+02  0.23093484625E+02  0.18755900439E+02  0.40659136570E+02  0.00000000000E+00 0. -1.
         11    1    3    3    0    0  0.20077542683E+02 -0.14962038371E+01 -0.10602305473E+02  0.22754235380E+02  0.51100000000E-03 0. -1.
        -11    1    3    3    0    0  0.58035578147E+01 -0.72183603063E+01  0.27211733981E+01  0.96535378874E+01  0.51100000000E-03 0.  1.
        -12    1    3    3    0    0  0.18330214125E+01 -0.14378920481E+02 -0.10874768364E+02  0.18121090163E+02  0.00000000000E+00 0.  1.
</event>
<event>
 7    1  0.2942034E-011  0.5052886E+02  0.7816164E-02  0.1300439E+00
        -11   -1    0    0    0    0  0.00000000000E+00  0.00000000000E+00  0.45593999997E+02  0.45594000000E+02  0.51100000000E-03 0.  1.
         11   -1    0    0    0    0 -0.00000000000E+00 -0.00000000000E+00 -0.45593999997E+02  0.45594000000E+02  0.51100000000E-03 0. -1.
    9900012    2    1    2    0    0 -0.13193247447E+02  0.25655980946E+02  0.28650909736E+02  0.50528858774E+02  0.29999996731E+02 0.  0.
         12    1    1    2    0    0  0.13193247447E+02 -0.25655980946E+02 -0.28650909736E+02  0.40659141226E+02  0.00000000000E+00 0. -1.
         11    1    3    3    0    0 -0.57300166194E+01  0.92703098662E+01 -0.20273381932E+01  0.11085207977E+02  0.51100000000E-03 0. -1.
        -11    1    3    3    0    0 -0.32281038735E+01  0.19109058019E+02  0.26874083342E+02  0.33132961062E+02  0.51100000000E-03 0.  1.
        -12    1    3    3    0    0 -0.42351269536E+01 -0.27233869394E+01  0.38041645876E+01  0.63106897360E+01  0.00000000000E+00 0.  1.
</event>
<event>
 7    1  0.2942034E-011  0.5052886E+02  0.7816164E-02  0.1300439E+00
        -11   -1    0    0    0    0  0.00000000000E+00  0.00000000000E+00  0.45593999997E+02  0.45594000000E+02  0.51100000000E-03 0.  1.
         11   -1    0    0    0    0 -0.00000000000E+00 -0.00000000000E+00 -0.45593999997E+02  0.45594000000E+02  0.51100000000E-03 0. -1.
    9900012    2    1    2    0    0  0.32985405647E+02  0.19239657661E+01  0.23694444570E+02  0.50528864084E+02  0.30000012869E+02 0.  0.
         12    1    1    2    0    0 -0.32985405647E+02 -0.19239657661E+01 -0.23694444570E+02  0.40659135916E+02  0.00000000000E+00 0. -1.
         11    1    3    3    0    0  0.63214154141E+01  0.77211914550E+01  0.84517418645E+01  0.13077042140E+02  0.51100000000E-03 0. -1.
        -11    1    3    3    0    0  0.47599265000E+01 -0.96677360724E+01  0.97687376079E+01  0.14544767298E+02  0.51100000000E-03 0.  1.
        -12    1    3    3    0    0  0.21904063733E+02  0.38705103836E+01  0.54739650978E+01  0.22907054646E+02  0.00000000000E+00 0.  1.
</event>
<event>
 7    1  0.2942034E-011  0.5052886E+02  0.7816164E-02  0.1300439E+00
        -11   -1    0    0    0    0  0.00000000000E+00  0.00000000000E+00  0.45593999997E+02  0.45594000000E+02  0.51100000000E-03 0. -1.
         11   -1    0    0    0    0 -0.00000000000E+00 -0.00000000000E+00 -0.45593999997E+02  0.45594000000E+02  0.51100000000E-03 0.  1.
    9900012    2    1    2    0    0 -0.28368924752E+02  0.14450249663E+02  0.25289522467E+02  0.50528861377E+02  0.30000004643E+02 0.  0.
         12    1    1    2    0    0  0.28368924752E+02 -0.14450249663E+02 -0.25289522467E+02  0.40659138623E+02  0.00000000000E+00 0. -1.
         11    1    3    3    0    0 -0.70267719657E+01 -0.66970070033E+01  0.95269748695E+01  0.13601054278E+02  0.51100000000E-03 0. -1.
        -11    1    3    3    0    0 -0.21928877673E+02  0.13825507631E+02  0.10917087612E+02  0.28128333393E+02  0.51100000000E-03 0.  1.
         12    1    3    3    0    0  0.58672488696E+00  0.73217490354E+01  0.48454599853E+01  0.87994737059E+01  0.00000000000E+00 0. -1.
</event>
<event>
 7    1  0.2942034E-011  0.5052887E+02  0.7816164E-02  0.1300439E+00
        -11   -1    0    0    0    0  0.00000000000E+00  0.00000000000E+00  0.45593999997E+02  0.45594000000E+02  0.51100000000E-03 0. -1.
         11   -1    0    0    0    0 -0.00000000000E+00 -0.00000000000E+00 -0.45593999997E+02  0.45594000000E+02  0.51100000000E-03 0.  1.
    9900012    2    1    2    0    0  0.38780411207E+02  0.90181280038E+01 -0.82412474754E+01  0.50528867126E+02  0.30000022116E+02 0.  0.
         12    1    1    2    0    0 -0.38780411207E+02 -0.90181280038E+01  0.82412474754E+01  0.40659132874E+02  0.00000000000E+00 0. -1.
         11    1    3    3    0    0  0.14758165055E+02  0.10289698558E+02 -0.10117245897E+02  0.20640736348E+02  0.51100000000E-03 0. -1.
        -11    1    3    3    0    0  0.25335707534E+01 -0.16756095218E+01  0.71409835970E+01  0.77601736466E+01  0.51100000000E-03 0.  1.
        -12    1    3    3    0    0  0.21488675399E+02  0.40403896765E+00 -0.52649851752E+01  0.22127957131E+02  0.00000000000E+00 0.  1.
</event>
<event>
 7    1  0.2942034E-011  0.5052886E+02  0.7816164E-02  0.1300439E+00
        -11   -1    0    0    0    0  0.00000000000E+00  0.00000000000E+00  0.45593999997E+02  0.45594000000E+02  0.51100000000E-03 0.  1.
         11   -1    0    0    0    0 -0.00000000000E+00 -0.00000000000E+00 -0.45593999997E+02  0.45594000000E+02  0.51100000000E-03 0. -1.
    9900012    2    1    2    0    0 -0.36892529994E+02  0.15973801849E+02 -0.60781976101E+01  0.50528860793E+02  0.30000002866E+02 0.  0.
         12    1    1    2    0    0  0.36892529994E+02 -0.15973801849E+02  0.60781976101E+01  0.40659139207E+02  0.00000000000E+00 0. -1.
         11    1    3    3    0    0 -0.24220526175E+01  0.52360837662E+01  0.33342156489E+01  0.66633254718E+01  0.51100000000E-03 0. -1.
        -11    1    3    3    0    0 -0.36556735034E+02  0.10521783989E+02 -0.42305866063E+01  0.38275327275E+02  0.51100000000E-03 0.  1.
        -12    1    3    3    0    0  0.20862576575E+01  0.21593409309E+00 -0.51818266527E+01  0.55902080466E+01  0.00000000000E+00 0.  1.
</event>
<event>
 7    1  0.2942034E-011  0.5052886E+02  0.7816164E-02  0.1300439E+00
        -11   -1    0    0    0    0  0.00000000000E+00  0.00000000000E+00  0.45593999997E+02  0.45594000000E+02  0.51100000000E-03 0.  1.
         11   -1    0    0    0    0 -0.00000000000E+00 -0.00000000000E+00 -0.45593999997E+02  0.45594000000E+02  0.51100000000E-03 0. -1.
    9900012    2    1    2    0    0  0.15568047876E+02  0.80598407588E+01  0.36685695703E+02  0.50528863057E+02  0.30000009749E+02 0.  0.
         12    1    1    2    0    0 -0.15568047876E+02 -0.80598407588E+01 -0.36685695703E+02  0.40659136943E+02  0.00000000000E+00 0. -1.
         11    1    3    3    0    0 -0.16905600810E+01 -0.32506177896E+01 -0.16136089391E+01  0.40035288773E+01  0.51100000000E-03 0. -1.
        -11    1    3    3    0    0  0.18321026978E+02  0.46274206412E+01  0.32588273421E+02  0.37670527155E+02  0.51100000000E-03 0.  1.
        -12    1    3    3    0    0 -0.10624190207E+01  0.66830379073E+01  0.57110312210E+01  0.88548070251E+01  0.00000000000E+00 0.  1.
</event>
<event>
 7    1  0.2942034E-011  0.5052886E+02  0.7816164E-02  0.1300439E+00
        -11   -1    0    0    0    0  0.00000000000E+00  0.00000000000E+00  0.45593999997E+02  0.45594000000E+02  0.51100000000E-03 0.  1.
         11   -1    0    0    0    0 -0.00000000000E+00 -0.00000000000E+00 -0.45593999997E+02  0.45594000000E+02  0.51100000000E-03 0. -1.
    9900012    2    1    2    0    0  0.38021319123E+02 -0.12892597774E+02  0.64285259090E+01  0.50528859200E+02  0.29999998024E+02 0.  0.
         12    1    1    2    0    0 -0.38021319123E+02  0.12892597774E+02 -0.64285259090E+01  0.40659140800E+02  0.00000000000E+00 0. -1.
         11    1    3    3    0    0  0.15377508983E+02 -0.17472268365E+02 -0.90196798749E+00  0.23292949381E+02  0.51100000000E-03 0. -1.
        -11    1    3    3    0    0  0.22934064178E+02  0.15751059973E+01  0.52796663588E+01  0.23586588048E+02  0.51100000000E-03 0.  1.
         12    1    3    3    0    0 -0.29025403739E+00  0.30045645933E+01  0.20508275377E+01  0.36493217713E+01  0.00000000000E+00 0. -1.
</event>
<event>
 7    1  0.2942034E-011  0.5052886E+02  0.7816164E-02  0.1300439E+00
        -11   -1    0    0    0    0  0.00000000000E+00  0.00000000000E+00  0.45593999997E+02  0.45594000000E+02  0.51100000000E-03 0.  1.
         11   -1    0    0    0    0 -0.00000000000E+00 -0.00000000000E+00 -0.45593999997E+02  0.45594000000E+02  0.51100000000E-03 0. -1.
    9900012    2    1    2    0    0 -0.27321536025E+02 -0.12098283323E+02  0.27574101965E+02  0.50528857249E+02  0.29999992093E+02 0.  0.
         12    1    1    2    0    0  0.27321536025E+02  0.12098283323E+02 -0.27574101965E+02  0.40659142751E+02  0.00000000000E+00 0. -1.
         11    1    3    3    0    0  0.12013376116E+01 -0.34963571779E+01 -0.21077070497E+01  0.42556027588E+01  0.51100000000E-03 0. -1.
        -11    1    3    3    0    0 -0.23884180028E+02  0.19453447244E+01  0.20644730572E+02  0.31629785367E+02  0.51100000000E-03 0.  1.
        -12    1    3    3    0    0 -0.46386936083E+01 -0.10547270869E+02  0.90370784420E+01  0.14643469123E+02  0.00000000000E+00 0.  1.
</event>
<event>
 7    1  0.2942034E-011  0.5052885E+02  0.7816164E-02  0.1300439E+00
        -11   -1    0    0    0    0  0.00000000000E+00  0.00000000000E+00  0.45593999997E+02  0.45594000000E+02  0.51100000000E-03 0.  1.
         11   -1    0    0    0    0 -0.00000000000E+00 -0.00000000000E+00 -0.45593999997E+02  0.45594000000E+02  0.51100000000E-03 0. -1.
    9900012    2    1    2    0    0  0.37297588198E+02 -0.15651648188E+02 -0.41330737113E+01  0.50528850050E+02  0.29999970211E+02 0.  0.
         12    1    1    2    0    0 -0.37297588198E+02  0.15651648188E+02  0.41330737113E+01  0.40659149950E+02  0.00000000000E+00 0. -1.
         11    1    3    3    0    0  0.23258012161E+02 -0.17883608383E+02 -0.13531096720E+02  0.32308654525E+02  0.51100000000E-03 0. -1.
        -11    1    3    3    0    0  0.79316376935E+01  0.42792698741E+01  0.67285872036E+01  0.11247084652E+02  0.51100000000E-03 0.  1.
         12    1    3    3    0    0  0.61079383429E+01 -0.20473096791E+01  0.26694358054E+01  0.69731108726E+01  0.00000000000E+00 0. -1.
</event>
<event>
 7    1  0.2942034E-011  0.5052886E+02  0.7816164E-02  0.1300439E+00
        -11   -1    0    0    0    0  0.00000000000E+00  0.00000000000E+00  0.45593999997E+02  0.45594000000E+02  0.51100000000E-03 0. -1.
         11   -1    0    0    0    0 -0.00000000000E+00 -0.00000000000E+00 -0.45593999997E+02  0.45594000000E+02  0.51100000000E-03 0.  1.
    9900012    2    1    2    0    0  0.92687286319E+01  0.35853873499E+02 -0.16785584884E+02  0.50528862832E+02  0.30000009066E+02 0.  0.
         12    1    1    2    0    0 -0.92687286319E+01 -0.35853873499E+02  0.16785584884E+02  0.40659137168E+02  0.00000000000E+00 0. -1.
         11    1    3    3    0    0 -0.28660026182E+01  0.42000383019E+01  0.27418310818E+01  0.57768443538E+01  0.51100000000E-03 0. -1.
        -11    1    3    3    0    0  0.16495256691E+02  0.16173166611E+02 -0.16494573350E+02  0.28385485055E+02  0.51100000000E-03 0.  1.
        -12    1    3    3    0    0 -0.43605254408E+01  0.15480668586E+02 -0.30328426152E+01  0.16366533424E+02  0.00000000000E+00 0.  1.
</event>
<event>
 7    1  0.2942034E-011  0.5052879E+02  0.7816164E-02  0.1300439E+00
        -11   -1    0    0    0    0  0.00000000000E+00  0.00000000000E+00  0.45593999997E+02  0.45594000000E+02  0.51100000000E-03 0.  1.
         11   -1    0    0    0    0 -0.00000000000E+00 -0.00000000000E+00 -0.45593999997E+02  0.45594000000E+02  0.51100000000E-03 0. -1.
    9900012    2    1    2    0    0  0.11691556623E+01 -0.24512627595E+02  0.32418132173E+02  0.50528792800E+02  0.29999796194E+02 0.  0.
         12    1    1    2    0    0 -0.11691556623E+01  0.24512627595E+02 -0.32418132173E+02  0.40659207200E+02  0.00000000000E+00 0. -1.
         11    1    3    3    0    0  0.84370899694E+01 -0.14415967413E+02  0.96573157676E+01  0.19294256962E+02  0.51100000000E-03 0. -1.
        -11    1    3    3    0    0 -0.11427783538E+02 -0.12209802564E+02  0.17672140262E+02  0.24330599190E+02  0.51100000000E-03 0.  1.
        -12    1    3    3    0    0  0.41598492311E+01  0.21131423822E+01  0.50886761426E+01  0.69039366479E+01  0.00000000000E+00 0.  1.
</event>
<event>
 7    1  0.2942034E-011  0.5052885E+02  0.7816164E-02  0.1300439E+00
        -11   -1    0    0    0    0  0.00000000000E+00  0.00000000000E+00  0.45593999997E+02  0.45594000000E+02  0.51100000000E-03 0.  1.
         11   -1    0    0    0    0 -0.00000000000E+00 -0.00000000000E+00 -0.45593999997E+02  0.45594000000E+02  0.51100000000E-03 0. -1.
    9900012    2    1    2    0    0 -0.36603782082E+02  0.12701266665E+02  0.12329135334E+02  0.50528848315E+02  0.29999964940E+02 0.  0.
         12    1    1    2    0    0  0.36603782082E+02 -0.12701266665E+02 -0.12329135334E+02  0.40659151685E+02  0.00000000000E+00 0. -1.
         11    1    3    3    0    0 -0.92729317016E+01  0.14085191346E+02 -0.32387677712E+01  0.17171764456E+02  0.51100000000E-03 0. -1.
        -11    1    3    3    0    0 -0.23880149966E+02  0.13049830803E+01  0.91849642241E+01  0.25618901446E+02  0.51100000000E-03 0.  1.
         12    1    3    3    0    0 -0.34507004147E+01 -0.26889077611E+01  0.63829388815E+01  0.77381824135E+01  0.00000000000E+00 0. -1.
</event>
<event>
 7    1  0.2942034E-011  0.5052883E+02  0.7816164E-02  0.1300439E+00
        -11   -1    0    0    0    0  0.00000000000E+00  0.00000000000E+00  0.45593999997E+02  0.45594000000E+02  0.51100000000E-03 0. -1.
         11   -1    0    0    0    0 -0.00000000000E+00 -0.00000000000E+00 -0.45593999997E+02  0.45594000000E+02  0.51100000000E-03 0.  1.
    9900012    2    1    2    0    0  0.73457722730E+01 -0.39683794468E+02 -0.49400259216E+01  0.50528834124E+02  0.29999921803E+02 0.  0.
         12    1    1    2    0    0 -0.73457722730E+01  0.39683794468E+02  0.49400259216E+01  0.40659165876E+02  0.00000000000E+00 0. -1.
         11    1    3    3    0    0 -0.27840372750E+01 -0.13889602366E+02 -0.95047785838E+01  0.17059095334E+02  0.51100000000E-03 0.  1.
        -11    1    3    3    0    0  0.88718021263E+01 -0.28841626049E+01  0.48692865631E+01  0.10523175319E+02  0.51100000000E-03 0. -1.
        -12    1    3    3    0    0  0.12580074217E+01 -0.22910029497E+02 -0.30453390091E+00  0.22946563471E+02  0.00000000000E+00 0.  1.
</event>
<event>
 7    1  0.2942034E-011  0.5052886E+02  0.7816164E-02  0.1300439E+00
        -11   -1    0    0    0    0  0.00000000000E+00  0.00000000000E+00  0.45593999997E+02  0.45594000000E+02  0.51100000000E-03 0. -1.
         11   -1    0    0    0    0 -0.00000000000E+00 -0.00000000000E+00 -0.45593999997E+02  0.45594000000E+02  0.51100000000E-03 0.  1.
    9900012    2    1    2    0    0 -0.10330305063E+02 -0.16770710316E+02 -0.35569560995E+02  0.50528860848E+02  0.30000003034E+02 0.  0.
         12    1    1    2    0    0  0.10330305063E+02  0.16770710316E+02  0.35569560995E+02  0.40659139152E+02  0.00000000000E+00 0. -1.
         11    1    3    3    0    0  0.56121447855E+01 -0.17397917324E+01 -0.17473593209E+01  0.61299518124E+01  0.51100000000E-03 0. -1.
        -11    1    3    3    0    0 -0.20191379497E+02 -0.12428910226E+02 -0.26713959215E+02  0.35718415875E+02  0.51100000000E-03 0.  1.
        -12    1    3    3    0    0  0.42489296488E+01 -0.26020083574E+01 -0.71082424593E+01  0.86804931607E+01  0.00000000000E+00 0.  1.
</event>
<event>
 7    1  0.2942034E-011  0.5052886E+02  0.7816164E-02  0.1300439E+00
        -11   -1    0    0    0    0  0.00000000000E+00  0.00000000000E+00  0.45593999997E+02  0.45594000000E+02  0.51100000000E-03 0.  1.
         11   -1    0    0    0    0 -0.00000000000E+00 -0.00000000000E+00 -0.45593999997E+02  0.45594000000E+02  0.51100000000E-03 0. -1.
    9900012    2    1    2    0    0  0.10101104901E+02  0.31067817859E+02  0.24205865011E+02  0.50528861695E+02  0.30000005609E+02 0.  0.
         12    1    1    2    0    0 -0.10101104901E+02 -0.31067817859E+02 -0.24205865011E+02  0.40659138305E+02  0.00000000000E+00 0. -1.
         11    1    3    3    0    0 -0.19312650001E+01  0.18106721289E+01  0.55443871017E+01  0.61439845909E+01  0.51100000000E-03 0. -1.
        -11    1    3    3    0    0  0.12787726970E+02  0.16012792931E+02 -0.11697481547E+01  0.20525686578E+02  0.51100000000E-03 0.  1.
        -12    1    3    3    0    0 -0.75535706853E+00  0.13244352800E+02  0.19831226064E+02  0.23859190526E+02  0.00000000000E+00 0.  1.
</event>
<event>
 7    1  0.2942034E-011  0.5052885E+02  0.7816164E-02  0.1300439E+00
        -11   -1    0    0    0    0  0.00000000000E+00  0.00000000000E+00  0.45593999997E+02  0.45594000000E+02  0.51100000000E-03 0.  1.
         11   -1    0    0    0    0 -0.00000000000E+00 -0.00000000000E+00 -0.45593999997E+02  0.45594000000E+02  0.51100000000E-03 0. -1.
    9900012    2    1    2    0    0 -0.35735677128E+02  0.11611975850E+02  0.15533505552E+02  0.50528850997E+02  0.29999973091E+02 0.  0.
         12    1    1    2    0    0  0.35735677128E+02 -0.11611975850E+02 -0.15533505552E+02  0.40659149003E+02  0.00000000000E+00 0. -1.
         11    1    3    3    0    0 -0.23239953493E+02  0.30648979548E+01  0.14490912441E+02  0.27558584533E+02  0.51100000000E-03 0.  1.
        -11    1    3    3    0    0 -0.49337330948E+01  0.12777058603E+02  0.31476363393E+01  0.14053560530E+02  0.51100000000E-03 0. -1.
         12    1    3    3    0    0 -0.75619905401E+01 -0.42299807078E+01 -0.21050432287E+01  0.89167059339E+01  0.00000000000E+00 0. -1.
</event>
<event>
 7    1  0.2942034E-011  0.5052885E+02  0.7816164E-02  0.1300439E+00
        -11   -1    0    0    0    0  0.00000000000E+00  0.00000000000E+00  0.45593999997E+02  0.45594000000E+02  0.51100000000E-03 0.  1.
         11   -1    0    0    0    0 -0.00000000000E+00 -0.00000000000E+00 -0.45593999997E+02  0.45594000000E+02  0.51100000000E-03 0. -1.
    9900012    2    1    2    0    0  0.21479283555E+02 -0.25520017234E+02  0.23249413526E+02  0.50528854277E+02  0.29999983059E+02 0.  0.
         12    1    1    2    0    0 -0.21479283555E+02  0.25520017234E+02 -0.23249413526E+02  0.40659145723E+02  0.00000000000E+00 0. -1.
         11    1    3    3    0    0  0.30581702140E+01 -0.17664792218E+02  0.15880492856E+02  0.23949683564E+02  0.51100000000E-03 0. -1.
        -11    1    3    3    0    0  0.21673813004E+01  0.45804882900E+01  0.12640027404E+01  0.52226542930E+01  0.51100000000E-03 0.  1.
        -12    1    3    3    0    0  0.16253732041E+02 -0.12435713306E+02  0.61049179291E+01  0.21356516420E+02  0.00000000000E+00 0.  1.
</event>
<event>
 7    1  0.2942034E-011  0.5052885E+02  0.7816164E-02  0.1300439E+00
        -11   -1    0    0    0    0  0.00000000000E+00  0.00000000000E+00  0.45593999997E+02  0.45594000000E+02  0.51100000000E-03 0. -1.
         11   -1    0    0    0    0 -0.00000000000E+00 -0.00000000000E+00 -0.45593999997E+02  0.45594000000E+02  0.51100000000E-03 0.  1.
    9900012    2    1    2    0    0  0.88671559206E+01 -0.39534621601E+02  0.33990909352E+01  0.50528848773E+02  0.29999966332E+02 0.  0.
         12    1    1    2    0    0 -0.88671559206E+01  0.39534621601E+02 -0.33990909352E+01  0.40659151227E+02  0.00000000000E+00 0. -1.
         11    1    3    3    0    0 -0.18450829527E+01  0.16752553207E+01  0.58086927477E+01  0.63207375511E+01  0.51100000000E-03 0.  1.
        -11    1    3    3    0    0  0.13261688939E+02 -0.35108886001E+02 -0.20191956027E+01  0.37584350745E+02  0.51100000000E-03 0. -1.
        -12    1    3    3    0    0 -0.25494500658E+01 -0.61009909208E+01 -0.39040620985E+00  0.66237604774E+01  0.00000000000E+00 0.  1.
</event>
<event>
 7    1  0.2942034E-011  0.5052886E+02  0.7816164E-02  0.1300439E+00
        -11   -1    0    0    0    0  0.00000000000E+00  0.00000000000E+00  0.45593999997E+02  0.45594000000E+02  0.51100000000E-03 0. -1.
         11   -1    0    0    0    0 -0.00000000000E+00 -0.00000000000E+00 -0.45593999997E+02  0.45594000000E+02  0.51100000000E-03 0.  1.
    9900012    2    1    2    0    0 -0.81254230671E+01 -0.92890294495E+01 -0.38740896046E+02  0.50528860873E+02  0.30000003109E+02 0.  0.
         12    1    1    2    0    0  0.81254230671E+01  0.92890294495E+01  0.38740896046E+02  0.40659139127E+02  0.00000000000E+00 0. -1.
         11    1    3    3    0    0  0.44108800836E+01  0.34272725515E+01 -0.31492794254E+01  0.64124894865E+01  0.51100000000E-03 0. -1.
        -11    1    3    3    0    0 -0.90708950268E+01 -0.15072194434E+02 -0.35833971383E+02  0.39918989053E+02  0.51100000000E-03 0.  1.
        -12    1    3    3    0    0 -0.34654081239E+01  0.23558924332E+01  0.24235476255E+00  0.41973823334E+01  0.00000000000E+00 0.  1.
</event>
<event>
 7    1  0.2942034E-011  0.5052886E+02  0.7816164E-02  0.1300439E+00
        -11   -1    0    0    0    0  0.00000000000E+00  0.00000000000E+00  0.45593999997E+02  0.45594000000E+02  0.51100000000E-03 0. -1.
         11   -1    0    0    0    0 -0.00000000000E+00 -0.00000000000E+00 -0.45593999997E+02  0.45594000000E+02  0.51100000000E-03 0.  1.
    9900012    2    1    2    0    0 -0.12736045914E+02 -0.34095682630E+02 -0.18123008784E+02  0.50528857278E+02  0.29999992182E+02 0.  0.
         12    1    1    2    0    0  0.12736045914E+02  0.34095682630E+02  0.18123008784E+02  0.40659142722E+02  0.00000000000E+00 0. -1.
         11    1    3    3    0    0 -0.23622687187E+01 -0.14892109409E+01 -0.12449555510E+02  0.12758898675E+02  0.51100000000E-03 0. -1.
        -11    1    3    3    0    0 -0.37660149491E+01 -0.29304602682E+02 -0.67452829150E+01  0.30305798931E+02  0.51100000000E-03 0.  1.
        -12    1    3    3    0    0 -0.66077622459E+01 -0.33018690069E+01  0.10718296416E+01  0.74641596726E+01  0.00000000000E+00 0.  1.
</event>
<event>
 7    1  0.2942034E-011  0.5052885E+02  0.7816164E-02  0.1300439E+00
        -11   -1    0    0    0    0  0.00000000000E+00  0.00000000000E+00  0.45593999997E+02  0.45594000000E+02  0.51100000000E-03 0. -1.
         11   -1    0    0    0    0 -0.00000000000E+00 -0.00000000000E+00 -0.45593999997E+02  0.45594000000E+02  0.51100000000E-03 0.  1.
    9900012    2    1    2    0    0  0.22077364044E+02 -0.34115938225E+02 -0.13635363985E+01  0.50528850038E+02  0.29999970175E+02 0.  0.
         12    1    1    2    0    0 -0.22077364044E+02  0.34115938225E+02  0.13635363985E+01  0.40659149962E+02  0.00000000000E+00 0. -1.
         11    1    3    3    0    0 -0.11799146152E+01  0.68801052393E+00 -0.50735835062E+01  0.52542180042E+01  0.51100000000E-03 0. -1.
        -11    1    3    3    0    0  0.25184141645E+02 -0.26662347463E+02  0.19678588283E+01  0.36728656813E+02  0.51100000000E-03 0.  1.
         12    1    3    3    0    0 -0.19268629860E+01 -0.81416012862E+01  0.17421882795E+01  0.85459752206E+01  0.00000000000E+00 0. -1.
</event>
<event>
 7    1  0.2942034E-011  0.5052887E+02  0.7816164E-02  0.1300439E+00
        -11   -1    0    0    0    0  0.00000000000E+00  0.00000000000E+00  0.45593999997E+02  0.45594000000E+02  0.51100000000E-03 0.  1.
         11   -1    0    0    0    0 -0.00000000000E+00 -0.00000000000E+00 -0.45593999997E+02  0.45594000000E+02  0.51100000000E-03 0. -1.
    9900012    2    1    2    0    0  0.57961165095E+01 -0.23740102443E+02  0.32495811886E+02  0.50528865470E+02  0.30000017083E+02 0.  0.
         12    1    1    2    0    0 -0.57961165095E+01  0.23740102443E+02 -0.32495811886E+02  0.40659134530E+02  0.00000000000E+00 0. -1.
         11    1    3    3    0    0  0.15012210907E+01  0.56976083761E+01  0.36981329984E+01  0.69564785564E+01  0.51100000000E-03 0. -1.
        -11    1    3    3    0    0  0.90827386542E+01 -0.15720598735E+02  0.16647654223E+02  0.24632859303E+02  0.51100000000E-03 0.  1.
        -12    1    3    3    0    0 -0.47878432353E+01 -0.13717112084E+02  0.12150024664E+02  0.18939527610E+02  0.00000000000E+00 0.  1.
</event>
<event>
 7    1  0.2942034E-011  0.5052885E+02  0.7816164E-02  0.1300439E+00
        -11   -1    0    0    0    0  0.00000000000E+00  0.00000000000E+00  0.45593999997E+02  0.45594000000E+02  0.51100000000E-03 0. -1.
         11   -1    0    0    0    0 -0.00000000000E+00 -0.00000000000E+00 -0.45593999997E+02  0.45594000000E+02  0.51100000000E-03 0.  1.
    9900012    2    1    2    0    0 -0.29707426092E+02  0.13715733231E+02 -0.24135322412E+02  0.50528852309E+02  0.29999977079E+02 0.  0.
         12    1    1    2    0    0  0.29707426092E+02 -0.13715733231E+02  0.24135322412E+02  0.40659147691E+02  0.00000000000E+00 0. -1.
         11    1    3    3    0    0 -0.12140684725E+02  0.16723213345E+02 -0.18927610607E+00  0.20666347425E+02  0.51100000000E-03 0. -1.
        -11    1    3    3    0    0 -0.11887332955E+02 -0.24340860882E+01 -0.16362278728E+02  0.20370508715E+02  0.51100000000E-03 0.  1.
         12    1    3    3    0    0 -0.56794084109E+01 -0.57339402594E+00 -0.75837675775E+01  0.94919961692E+01  0.00000000000E+00 0. -1.
</event>
<event>
 7    1  0.2942034E-011  0.5052886E+02  0.7816164E-02  0.1300439E+00
        -11   -1    0    0    0    0  0.00000000000E+00  0.00000000000E+00  0.45593999997E+02  0.45594000000E+02  0.51100000000E-03 0.  1.
         11   -1    0    0    0    0 -0.00000000000E+00 -0.00000000000E+00 -0.45593999997E+02  0.45594000000E+02  0.51100000000E-03 0. -1.
    9900012    2    1    2    0    0 -0.38949596783E+02 -0.67830920465E+01  0.94912589147E+01  0.50528862982E+02  0.30000009519E+02 0.  0.
         12    1    1    2    0    0  0.38949596783E+02  0.67830920465E+01 -0.94912589147E+01  0.40659137018E+02  0.00000000000E+00 0. -1.
         11    1    3    3    0    0 -0.35773856689E+01 -0.12299885509E+02  0.44482964407E+01  0.13559948866E+02  0.51100000000E-03 0. -1.
        -11    1    3    3    0    0 -0.23864393664E+02  0.28906017681E-01  0.36886715062E+01  0.24147803590E+02  0.51100000000E-03 0.  1.
         12    1    3    3    0    0 -0.11507817450E+02  0.54878874449E+01  0.13542909679E+01  0.12821110525E+02  0.00000000000E+00 0. -1.
</event>
<event>
 7    1  0.2942034E-011  0.5052884E+02  0.7816164E-02  0.1300439E+00
        -11   -1    0    0    0    0  0.00000000000E+00  0.00000000000E+00  0.45593999997E+02  0.45594000000E+02  0.51100000000E-03 0.  1.
         11   -1    0    0    0    0 -0.00000000000E+00 -0.00000000000E+00 -0.45593999997E+02  0.45594000000E+02  0.51100000000E-03 0. -1.
    9900012    2    1    2    0    0 -0.17171166391E+02 -0.20089261849E+01  0.36800576776E+02  0.50528841244E+02  0.29999943446E+02 0.  0.
         12    1    1    2    0    0  0.17171166391E+02  0.20089261849E+01 -0.36800576776E+02  0.40659158756E+02  0.00000000000E+00 0. -1.
         11    1    3    3    0    0 -0.14477467637E+02 -0.38780607079E+01  0.44850010433E+01  0.15644540858E+02  0.51100000000E-03 0. -1.
        -11    1    3    3    0    0  0.31409192248E+01  0.16615265514E+01  0.26160584167E+02  0.26400799387E+02  0.51100000000E-03 0.  1.
        -12    1    3    3    0    0 -0.58346179787E+01  0.20760797152E+00  0.61549915663E+01  0.84835009995E+01  0.00000000000E+00 0.  1.
</event>
<event>
 7    1  0.2942034E-011  0.5052886E+02  0.7816164E-02  0.1300439E+00
        -11   -1    0    0    0    0  0.00000000000E+00  0.00000000000E+00  0.45593999997E+02  0.45594000000E+02  0.51100000000E-03 0.  1.
         11   -1    0    0    0    0 -0.00000000000E+00 -0.00000000000E+00 -0.45593999997E+02  0.45594000000E+02  0.51100000000E-03 0. -1.
    9900012    2    1    2    0    0  0.16652600685E+02 -0.15319208323E+02  0.33781333363E+02  0.50528859122E+02  0.29999997786E+02 0.  0.
         12    1    1    2    0    0 -0.16652600685E+02  0.15319208323E+02 -0.33781333363E+02  0.40659140878E+02  0.00000000000E+00 0. -1.
         11    1    3    3    0    0  0.11068878739E+02  0.47295226438E+01  0.20337717068E+02  0.23632841488E+02  0.51100000000E-03 0. -1.
        -11    1    3    3    0    0  0.38711959926E+01 -0.68101208518E+01 -0.16231938404E+00  0.78351931867E+01  0.51100000000E-03 0.  1.
        -12    1    3    3    0    0  0.17125259529E+01 -0.13238610115E+02  0.13605935679E+02  0.19060824447E+02  0.00000000000E+00 0.  1.
</event>
<event>
 7    1  0.2942034E-011  0.5052886E+02  0.7816164E-02  0.1300439E+00
        -11   -1    0    0    0    0  0.00000000000E+00  0.00000000000E+00  0.45593999997E+02  0.45594000000E+02  0.51100000000E-03 0.  1.
         11   -1    0    0    0    0 -0.00000000000E+00 -0.00000000000E+00 -0.45593999997E+02  0.45594000000E+02  0.51100000000E-03 0. -1.
    9900012    2    1    2    0    0 -0.31017342627E+02 -0.43700073842E+01  0.25922827341E+02  0.50528862214E+02  0.30000007185E+02 0.  0.
         12    1    1    2    0    0  0.31017342627E+02  0.43700073842E+01 -0.25922827341E+02  0.40659137786E+02  0.00000000000E+00 0. -1.
         11    1    3    3    0    0 -0.80677479451E+00 -0.92851346716E+01  0.44290989200E+01  0.10318988756E+02  0.51100000000E-03 0. -1.
        -11    1    3    3    0    0 -0.93493714762E+01  0.61648305721E+01  0.14178855404E+02  0.18068088549E+02  0.51100000000E-03 0.  1.
        -12    1    3    3    0    0 -0.20861196356E+02 -0.12497032847E+01  0.73148730173E+01  0.22141784909E+02  0.00000000000E+00 0.  1.
</event>
<event>
 7    1  0.2942034E-011  0.5052889E+02  0.7816164E-02  0.1300439E+00
        -11   -1    0    0    0    0  0.00000000000E+00  0.00000000000E+00  0.45593999997E+02  0.45594000000E+02  0.51100000000E-03 0.  1.
         11   -1    0    0    0    0 -0.00000000000E+00 -0.00000000000E+00 -0.45593999997E+02  0.45594000000E+02  0.51100000000E-03 0. -1.
    9900012    2    1    2    0    0 -0.24787972297E+02  0.18393359624E+02  0.26465151647E+02  0.50528886623E+02  0.30000081381E+02 0.  0.
         12    1    1    2    0    0  0.24787972297E+02 -0.18393359624E+02 -0.26465151647E+02  0.40659113377E+02  0.00000000000E+00 0. -1.
         11    1    3    3    0    0 -0.25312669913E+01  0.77077520222E+01 -0.69288758720E+00  0.81422875954E+01  0.51100000000E-03 0.  1.
        -11    1    3    3    0    0 -0.79432760153E+01 -0.59429664729E+01  0.12680750782E+02  0.16100184005E+02  0.51100000000E-03 0. -1.
        -12    1    3    3    0    0 -0.14313429291E+02  0.16628574074E+02  0.14477288452E+02  0.26286415023E+02  0.00000000000E+00 0.  1.
</event>
<event>
 7    1  0.2942034E-011  0.5052885E+02  0.7816164E-02  0.1300439E+00
        -11   -1    0    0    0    0  0.00000000000E+00  0.00000000000E+00  0.45593999997E+02  0.45594000000E+02  0.51100000000E-03 0.  1.
         11   -1    0    0    0    0 -0.00000000000E+00 -0.00000000000E+00 -0.45593999997E+02  0.45594000000E+02  0.51100000000E-03 0. -1.
    9900012    2    1    2    0    0 -0.94022819941E+01  0.10219850292E+02  0.38214109568E+02  0.50528850762E+02  0.29999972377E+02 0.  0.
         12    1    1    2    0    0  0.94022819941E+01 -0.10219850292E+02 -0.38214109568E+02  0.40659149238E+02  0.00000000000E+00 0. -1.
         11    1    3    3    0    0 -0.83664918334E+01 -0.28767124530E+01  0.19331166434E+01  0.90559704258E+01  0.51100000000E-03 0. -1.
        -11    1    3    3    0    0 -0.41257708160E+01  0.15438856356E+02  0.31459589333E+02  0.35285776620E+02  0.51100000000E-03 0.  1.
        -12    1    3    3    0    0  0.30899806553E+01 -0.23422936109E+01  0.48214035909E+01  0.61871037162E+01  0.00000000000E+00 0.  1.
</event>
<event>
 7    1  0.2942034E-011  0.5052884E+02  0.7816164E-02  0.1300439E+00
        -11   -1    0    0    0    0  0.00000000000E+00  0.00000000000E+00  0.45593999997E+02  0.45594000000E+02  0.51100000000E-03 0.  1.
         11   -1    0    0    0    0 -0.00000000000E+00 -0.00000000000E+00 -0.45593999997E+02  0.45594000000E+02  0.51100000000E-03 0. -1.
    9900012    2    1    2    0    0 -0.24433935246E+02  0.17393712708E+02  0.27451937525E+02  0.50528839811E+02  0.29999939089E+02 0.  0.
         12    1    1    2    0    0  0.24433935246E+02 -0.17393712708E+02 -0.27451937525E+02  0.40659160189E+02  0.00000000000E+00 0. -1.
         11    1    3    3    0    0  0.13216733548E+01  0.81333918448E+01  0.65503391745E+01  0.10526434673E+02  0.51100000000E-03 0. -1.
        -11    1    3    3    0    0 -0.24186587099E+02 -0.52908981195E+00  0.14710363048E+02  0.28313701856E+02  0.51100000000E-03 0.  1.
        -12    1    3    3    0    0 -0.15690215018E+01  0.97894106755E+01  0.61912353025E+01  0.11688703282E+02  0.00000000000E+00 0.  1.
</event>
<event>
 7    1  0.2942034E-011  0.5052890E+02  0.7816164E-02  0.1300439E+00
        -11   -1    0    0    0    0  0.00000000000E+00  0.00000000000E+00  0.45593999997E+02  0.45594000000E+02  0.51100000000E-03 0.  1.
         11   -1    0    0    0    0 -0.00000000000E+00 -0.00000000000E+00 -0.45593999997E+02  0.45594000000E+02  0.51100000000E-03 0. -1.
    9900012    2    1    2    0    0 -0.26472928140E+02 -0.18993199690E+02  0.24322933006E+02  0.50528897344E+02  0.30000113966E+02 0.  0.
         12    1    1    2    0    0  0.26472928140E+02  0.18993199690E+02 -0.24322933006E+02  0.40659102656E+02  0.00000000000E+00 0. -1.
         11    1    3    3    0    0 -0.74788862376E-01 -0.46649432254E+01 -0.44572702668E+01  0.64524837979E+01  0.51100000000E-03 0. -1.
        -11    1    3    3    0    0 -0.10583768992E+02  0.17182757326E+01  0.74954835612E+01  0.13082465809E+02  0.51100000000E-03 0.  1.
         12    1    3    3    0    0 -0.15814370285E+02 -0.16046532197E+02  0.21284719712E+02  0.30993947737E+02  0.00000000000E+00 0. -1.
</event>
<event>
 7    1  0.2942034E-011  0.5052886E+02  0.7816164E-02  0.1300439E+00
        -11   -1    0    0    0    0  0.00000000000E+00  0.00000000000E+00  0.45593999997E+02  0.45594000000E+02  0.51100000000E-03 0.  1.
         11   -1    0    0    0    0 -0.00000000000E+00 -0.00000000000E+00 -0.45593999997E+02  0.45594000000E+02  0.51100000000E-03 0. -1.
    9900012    2    1    2    0    0 -0.22247431733E+02  0.87664389120E+01  0.32884143750E+02  0.50528861051E+02  0.30000003651E+02 0.  0.
         12    1    1    2    0    0  0.22247431733E+02 -0.87664389120E+01 -0.32884143750E+02  0.40659138949E+02  0.00000000000E+00 0. -1.
         11    1    3    3    0    0 -0.42283206695E+00 -0.12043839986E+01  0.61921321399E+00  0.14187152775E+01  0.51100000000E-03 0. -1.
        -11    1    3    3    0    0  0.38506591893E+01  0.66185096850E+01  0.17969333746E+02  0.19532772516E+02  0.51100000000E-03 0.  1.
        -12    1    3    3    0    0 -0.25675258855E+02  0.33523132257E+01  0.14295596790E+02  0.29577373258E+02  0.00000000000E+00 0.  1.
</event>
<event>
 7    1  0.2942034E-011  0.5052886E+02  0.7816164E-02  0.1300439E+00
        -11   -1    0    0    0    0  0.00000000000E+00  0.00000000000E+00  0.45593999997E+02  0.45594000000E+02  0.51100000000E-03 0. -1.
         11   -1    0    0    0    0 -0.00000000000E+00 -0.00000000000E+00 -0.45593999997E+02  0.45594000000E+02  0.51100000000E-03 0.  1.
    9900012    2    1    2    0    0 -0.15419481626E+02  0.77972078949E+01 -0.36805009041E+02  0.50528861358E+02  0.30000004584E+02 0.  0.
         12    1    1    2    0    0  0.15419481626E+02 -0.77972078949E+01  0.36805009041E+02  0.40659138642E+02  0.00000000000E+00 0. -1.
         11    1    3    3    0    0  0.75396013899E+01  0.53371220943E+01 -0.11489935397E+02  0.14742763549E+02  0.51100000000E-03 0. -1.
        -11    1    3    3    0    0 -0.58984360580E+01 -0.82017721352E+00 -0.13559104734E+02  0.14809239010E+02  0.51100000000E-03 0.  1.
         12    1    3    3    0    0 -0.17060646958E+02  0.32802630142E+01 -0.11755968910E+02  0.20976858800E+02  0.00000000000E+00 0. -1.
</event>
<event>
 7    1  0.2942034E-011  0.5052885E+02  0.7816164E-02  0.1300439E+00
        -11   -1    0    0    0    0  0.00000000000E+00  0.00000000000E+00  0.45593999997E+02  0.45594000000E+02  0.51100000000E-03 0.  1.
         11   -1    0    0    0    0 -0.00000000000E+00 -0.00000000000E+00 -0.45593999997E+02  0.45594000000E+02  0.51100000000E-03 0. -1.
    9900012    2    1    2    0    0 -0.37300309534E+02  0.53293414850E+01  0.15279128950E+02  0.50528846622E+02  0.29999959792E+02 0.  0.
         12    1    1    2    0    0  0.37300309534E+02 -0.53293414850E+01 -0.15279128950E+02  0.40659153378E+02  0.00000000000E+00 0. -1.
         11    1    3    3    0    0 -0.23694885339E+02 -0.54455603440E+01 -0.31461745269E+01  0.24515304059E+02  0.51100000000E-03 0. -1.
        -11    1    3    3    0    0 -0.12091294716E+02  0.68365759338E+01  0.12165506475E+02  0.18464499085E+02  0.51100000000E-03 0.  1.
         12    1    3    3    0    0 -0.15141294792E+01  0.39383258953E+01  0.62597970013E+01  0.75490434781E+01  0.00000000000E+00 0. -1.
</event>
<event>
 7    1  0.2942034E-011  0.5052886E+02  0.7816164E-02  0.1300439E+00
        -11   -1    0    0    0    0  0.00000000000E+00  0.00000000000E+00  0.45593999997E+02  0.45594000000E+02  0.51100000000E-03 0.  1.
         11   -1    0    0    0    0 -0.00000000000E+00 -0.00000000000E+00 -0.45593999997E+02  0.45594000000E+02  0.51100000000E-03 0. -1.
    9900012    2    1    2    0    0 -0.74005974335E+01  0.77781331086E+01  0.39216035077E+02  0.50528860755E+02  0.30000002750E+02 0.  0.
         12    1    1    2    0    0  0.74005974335E+01 -0.77781331086E+01 -0.39216035077E+02  0.40659139245E+02  0.00000000000E+00 0. -1.
         11    1    3    3    0    0 -0.42364666975E+01  0.26331088636E+01 -0.20172300101E+01  0.53805324589E+01  0.51100000000E-03 0. -1.
        -11    1    3    3    0    0 -0.10051059589E+02  0.36886018044E+01  0.30387384443E+02  0.32218359916E+02  0.51100000000E-03 0.  1.
         12    1    3    3    0    0  0.68869288534E+01  0.14564224407E+01  0.10845880644E+02  0.12929968380E+02  0.00000000000E+00 0. -1.
</event>
<event>
 7    1  0.2942034E-011  0.5052886E+02  0.7816164E-02  0.1300439E+00
        -11   -1    0    0    0    0  0.00000000000E+00  0.00000000000E+00  0.45593999997E+02  0.45594000000E+02  0.51100000000E-03 0.  1.
         11   -1    0    0    0    0 -0.00000000000E+00 -0.00000000000E+00 -0.45593999997E+02  0.45594000000E+02  0.51100000000E-03 0. -1.
    9900012    2    1    2    0    0  0.12824204038E+02  0.28267188323E+02  0.26261592561E+02  0.50528863404E+02  0.30000010802E+02 0.  0.
         12    1    1    2    0    0 -0.12824204038E+02 -0.28267188323E+02 -0.26261592561E+02  0.40659136596E+02  0.00000000000E+00 0. -1.
         11    1    3    3    0    0 -0.26021437229E+01  0.55382878380E+01 -0.33495984679E+01  0.69759296362E+01  0.51100000000E-03 0. -1.
        -11    1    3    3    0    0  0.12209984664E+02  0.53645613009E+01  0.18061529074E+02  0.22451749959E+02  0.51100000000E-03 0.  1.
        -12    1    3    3    0    0  0.32163630975E+01  0.17364339184E+02  0.11549661954E+02  0.21101183809E+02  0.00000000000E+00 0.  1.
</event>
<event>
 7    1  0.2942034E-011  0.5052876E+02  0.7816164E-02  0.1300439E+00
        -11   -1    0    0    0    0  0.00000000000E+00  0.00000000000E+00  0.45593999997E+02  0.45594000000E+02  0.51100000000E-03 0.  1.
         11   -1    0    0    0    0 -0.00000000000E+00 -0.00000000000E+00 -0.45593999997E+02  0.45594000000E+02  0.51100000000E-03 0. -1.
    9900012    2    1    2    0    0  0.31750151605E+02  0.25102447215E+02  0.38689254537E+01  0.50528762829E+02  0.29999705095E+02 0.  0.
         12    1    1    2    0    0 -0.31750151605E+02 -0.25102447215E+02 -0.38689254537E+01  0.40659237171E+02  0.00000000000E+00 0. -1.
         11    1    3    3    0    0  0.20617802069E+01 -0.64075853003E+01  0.15333978137E+01  0.69035785009E+01  0.51100000000E-03 0. -1.
        -11    1    3    3    0    0  0.13323902282E+02  0.15604529965E+02  0.33077400844E+01  0.20783860858E+02  0.51100000000E-03 0.  1.
         12    1    3    3    0    0  0.16364469116E+02  0.15905502551E+02 -0.97221244447E+00  0.22841323470E+02  0.00000000000E+00 0. -1.
</event>
<event>
 7    1  0.2942034E-011  0.5052886E+02  0.7816164E-02  0.1300439E+00
        -11   -1    0    0    0    0  0.00000000000E+00  0.00000000000E+00  0.45593999997E+02  0.45594000000E+02  0.51100000000E-03 0. -1.
         11   -1    0    0    0    0 -0.00000000000E+00 -0.00000000000E+00 -0.45593999997E+02  0.45594000000E+02  0.51100000000E-03 0.  1.
    9900012    2    1    2    0    0  0.11800307686E+02 -0.29029636710E+02 -0.25907495501E+02  0.50528863362E+02  0.30000010675E+02 0.  0.
         12    1    1    2    0    0 -0.11800307686E+02  0.29029636710E+02  0.25907495501E+02  0.40659136638E+02  0.00000000000E+00 0. -1.
         11    1    3    3    0    0  0.49232549603E+00 -0.13618043232E+02 -0.20182514638E+02  0.24352153565E+02  0.51100000000E-03 0. -1.
        -11    1    3    3    0    0  0.37251109008E+01 -0.89358893755E+01  0.55223265915E+01  0.11145522033E+02  0.51100000000E-03 0.  1.
        -12    1    3    3    0    0  0.75828712888E+01 -0.64757041029E+01 -0.11247307455E+02  0.15031187764E+02  0.00000000000E+00 0.  1.
</event>
<event>
 7    1  0.2942034E-011  0.5052888E+02  0.7816164E-02  0.1300439E+00
        -11   -1    0    0    0    0  0.00000000000E+00  0.00000000000E+00  0.45593999997E+02  0.45594000000E+02  0.51100000000E-03 0. -1.
         11   -1    0    0    0    0 -0.00000000000E+00 -0.00000000000E+00 -0.45593999997E+02  0.45594000000E+02  0.51100000000E-03 0.  1.
    9900012    2    1    2    0    0  0.19392595515E+02  0.31793164505E+02 -0.16318266200E+02  0.50528881935E+02  0.30000067130E+02 0.  0.
         12    1    1    2    0    0 -0.19392595515E+02 -0.31793164505E+02  0.16318266200E+02  0.40659118065E+02  0.00000000000E+00 0. -1.
         11    1    3    3    0    0  0.12170215133E+02  0.26342910173E+01 -0.49601911845E+00  0.12461928453E+02  0.51100000000E-03 0. -1.
        -11    1    3    3    0    0 -0.50783175884E+01  0.82685196861E+01 -0.80523179392E+01  0.12609423134E+02  0.51100000000E-03 0.  1.
        -12    1    3    3    0    0  0.12300697970E+02  0.20890353802E+02 -0.77699291423E+01  0.25457530347E+02  0.00000000000E+00 0.  1.
</event>
<event>
 7    1  0.2942034E-011  0.5052886E+02  0.7816164E-02  0.1300439E+00
        -11   -1    0    0    0    0  0.00000000000E+00  0.00000000000E+00  0.45593999997E+02  0.45594000000E+02  0.51100000000E-03 0.  1.
         11   -1    0    0    0    0 -0.00000000000E+00 -0.00000000000E+00 -0.45593999997E+02  0.45594000000E+02  0.51100000000E-03 0. -1.
    9900012    2    1    2    0    0 -0.12835257493E+02 -0.31494603410E+02  0.22282547700E+02  0.50528858213E+02  0.29999995024E+02 0.  0.
         12    1    1    2    0    0  0.12835257493E+02  0.31494603410E+02 -0.22282547700E+02  0.40659141787E+02  0.00000000000E+00 0. -1.
         11    1    3    3    0    0  0.69698414320E+01 -0.64979596298E+01  0.13214626796E+02  0.16291977491E+02  0.51100000000E-03 0. -1.
        -11    1    3    3    0    0 -0.19085435897E+01 -0.57012732464E+01  0.45379506917E+01  0.75325992861E+01  0.51100000000E-03 0.  1.
         12    1    3    3    0    0 -0.17896555335E+02 -0.19295370534E+02  0.45299702121E+01  0.26704281436E+02  0.00000000000E+00 0. -1.
</event>
<event>
 7    1  0.2942034E-011  0.5052885E+02  0.7816164E-02  0.1300439E+00
        -11   -1    0    0    0    0  0.00000000000E+00  0.00000000000E+00  0.45593999997E+02  0.45594000000E+02  0.51100000000E-03 0.  1.
         11   -1    0    0    0    0 -0.00000000000E+00 -0.00000000000E+00 -0.45593999997E+02  0.45594000000E+02  0.51100000000E-03 0. -1.
    9900012    2    1    2    0    0  0.26304131932E+02  0.96944422353E+01  0.29449561117E+02  0.50528853219E+02  0.29999979845E+02 0.  0.
         12    1    1    2    0    0 -0.26304131932E+02 -0.96944422353E+01 -0.29449561117E+02  0.40659146781E+02  0.00000000000E+00 0. -1.
         11    1    3    3    0    0 -0.21769283410E+01  0.10883254670E+02  0.48834103018E+01  0.12125672998E+02  0.51100000000E-03 0. -1.
        -11    1    3    3    0    0  0.15183465354E+02  0.30519524891E+01  0.11567150607E+02  0.19330054516E+02  0.51100000000E-03 0.  1.
         12    1    3    3    0    0  0.13297594919E+02 -0.42407649234E+01  0.12999000208E+02  0.19073125705E+02  0.00000000000E+00 0. -1.
</event>
<event>
 7    1  0.2942034E-011  0.5052888E+02  0.7816164E-02  0.1300439E+00
        -11   -1    0    0    0    0  0.00000000000E+00  0.00000000000E+00  0.45593999997E+02  0.45594000000E+02  0.51100000000E-03 0.  1.
         11   -1    0    0    0    0 -0.00000000000E+00 -0.00000000000E+00 -0.45593999997E+02  0.45594000000E+02  0.51100000000E-03 0. -1.
    9900012    2    1    2    0    0  0.11463863482E+02  0.39008210510E+02 -0.32169001582E+00  0.50528878789E+02  0.30000057568E+02 0.  0.
         12    1    1    2    0    0 -0.11463863482E+02 -0.39008210510E+02  0.32169001582E+00  0.40659121211E+02  0.00000000000E+00 0. -1.
         11    1    3    3    0    0  0.52019723682E+01  0.58725866970E+01 -0.70896970133E+01  0.10574100200E+02  0.51100000000E-03 0. -1.
        -11    1    3    3    0    0 -0.64502807630E+01  0.20282544709E+02  0.42311638854E+01  0.21700011288E+02  0.51100000000E-03 0.  1.
        -12    1    3    3    0    0  0.12712171876E+02  0.12853079104E+02  0.25368431120E+01  0.18254767302E+02  0.00000000000E+00 0.  1.
</event>
<event>
 7    1  0.2942034E-011  0.5052886E+02  0.7816164E-02  0.1300439E+00
        -11   -1    0    0    0    0  0.00000000000E+00  0.00000000000E+00  0.45593999997E+02  0.45594000000E+02  0.51100000000E-03 0. -1.
         11   -1    0    0    0    0 -0.00000000000E+00 -0.00000000000E+00 -0.45593999997E+02  0.45594000000E+02  0.51100000000E-03 0.  1.
    9900012    2    1    2    0    0 -0.40632974666E+02 -0.11926837724E+01  0.83946020524E+00  0.50528858122E+02  0.29999994748E+02 0.  0.
         12    1    1    2    0    0  0.40632974666E+02  0.11926837724E+01 -0.83946020524E+00  0.40659141878E+02  0.00000000000E+00 0. -1.
         11    1    3    3    0    0 -0.14411645002E+02  0.87783688085E+01 -0.47955665204E+01  0.17542882577E+02  0.51100000000E-03 0. -1.
        -11    1    3    3    0    0 -0.27060409417E+01 -0.51694359317E+01 -0.40524609117E+01  0.71040949552E+01  0.51100000000E-03 0.  1.
         12    1    3    3    0    0 -0.23515288722E+02 -0.48016166492E+01  0.96874876374E+01  0.25881880590E+02  0.00000000000E+00 0. -1.
</event>
<event>
 7    1  0.2942034E-011  0.5052886E+02  0.7816164E-02  0.1300439E+00
        -11   -1    0    0    0    0  0.00000000000E+00  0.00000000000E+00  0.45593999997E+02  0.45594000000E+02  0.51100000000E-03 0. -1.
         11   -1    0    0    0    0 -0.00000000000E+00 -0.00000000000E+00 -0.45593999997E+02  0.45594000000E+02  0.51100000000E-03 0.  1.
    9900012    2    1    2    0    0 -0.78722262724E+01  0.31322682622E+02 -0.24699870714E+02  0.50528855809E+02  0.29999987716E+02 0.  0.
         12    1    1    2    0    0  0.78722262724E+01 -0.31322682622E+02  0.24699870714E+02  0.40659144191E+02  0.00000000000E+00 0. -1.
         11    1    3    3    0    0 -0.14664246853E+01  0.24306748723E+02 -0.66953912517E+01  0.25254637181E+02  0.51100000000E-03 0.  1.
        -11    1    3    3    0    0 -0.65829779456E+00  0.13285236709E+01 -0.17070353031E+02  0.17134622377E+02  0.51100000000E-03 0. -1.
         12    1    3    3    0    0 -0.57475037925E+01  0.56874102275E+01 -0.93412643047E+00  0.81395962510E+01  0.00000000000E+00 0. -1.
</event>
<event>
 7    1  0.2942034E-011  0.5052887E+02  0.7816164E-02  0.1300439E+00
        -11   -1    0    0    0    0  0.00000000000E+00  0.00000000000E+00  0.45593999997E+02  0.45594000000E+02  0.51100000000E-03 0.  1.
         11   -1    0    0    0    0 -0.00000000000E+00 -0.00000000000E+00 -0.45593999997E+02  0.45594000000E+02  0.51100000000E-03 0. -1.
    9900012    2    1    2    0    0 -0.27024914533E+02  0.12577464906E+02  0.27651874059E+02  0.50528871038E+02  0.30000034007E+02 0.  0.
         12    1    1    2    0    0  0.27024914533E+02 -0.12577464906E+02 -0.27651874059E+02  0.40659128962E+02  0.00000000000E+00 0. -1.
         11    1    3    3    0    0  0.20157955580E+01 -0.56267409269E+01 -0.41337293948E+00  0.59912037721E+01  0.51100000000E-03 0. -1.
        -11    1    3    3    0    0 -0.18741322705E+02  0.14176945978E+02  0.19855339941E+02  0.30764549378E+02  0.51100000000E-03 0.  1.
         12    1    3    3    0    0 -0.10299387386E+02  0.40272598547E+01  0.82099070572E+01  0.13773117888E+02  0.00000000000E+00 0. -1.
</event>
<event>
 7    1  0.2942034E-011  0.5052885E+02  0.7816164E-02  0.1300439E+00
        -11   -1    0    0    0    0  0.00000000000E+00  0.00000000000E+00  0.45593999997E+02  0.45594000000E+02  0.51100000000E-03 0.  1.
         11   -1    0    0    0    0 -0.00000000000E+00 -0.00000000000E+00 -0.45593999997E+02  0.45594000000E+02  0.51100000000E-03 0. -1.
    9900012    2    1    2    0    0 -0.25987639828E+02 -0.12778706027E+02  0.28539692776E+02  0.50528845861E+02  0.29999957478E+02 0.  0.
         12    1    1    2    0    0  0.25987639828E+02  0.12778706027E+02 -0.28539692776E+02  0.40659154139E+02  0.00000000000E+00 0. -1.
         11    1    3    3    0    0 -0.57503370414E+01  0.24995352767E+01 -0.35202727985E+01  0.71907143961E+01  0.51100000000E-03 0. -1.
        -11    1    3    3    0    0 -0.16385725014E+02 -0.76614324879E+01  0.29177083157E+02  0.34329167100E+02  0.51100000000E-03 0.  1.
         12    1    3    3    0    0 -0.38515777722E+01 -0.76168088162E+01  0.28828824183E+01  0.90089643642E+01  0.00000000000E+00 0. -1.
</event>
<event>
 7    1  0.2942034E-011  0.5052887E+02  0.7816164E-02  0.1300439E+00
        -11   -1    0    0    0    0  0.00000000000E+00  0.00000000000E+00  0.45593999997E+02  0.45594000000E+02  0.51100000000E-03 0.  1.
         11   -1    0    0    0    0 -0.00000000000E+00 -0.00000000000E+00 -0.45593999997E+02  0.45594000000E+02  0.51100000000E-03 0. -1.
    9900012    2    1    2    0    0 -0.29268551434E+02 -0.25907157235E+02  0.11195365671E+02  0.50528866813E+02  0.30000021164E+02 0.  0.
         12    1    1    2    0    0  0.29268551434E+02  0.25907157235E+02 -0.11195365671E+02  0.40659133187E+02  0.00000000000E+00 0. -1.
         11    1    3    3    0    0  0.31873532757E+01 -0.43281267213E+01 -0.10896060467E+01  0.54844455889E+01  0.51100000000E-03 0. -1.
        -11    1    3    3    0    0 -0.18571433694E+02 -0.23817257793E+01  0.10041803809E+02  0.21246378306E+02  0.51100000000E-03 0.  1.
        -12    1    3    3    0    0 -0.13884471016E+02 -0.19197304734E+02  0.22431679087E+01  0.23798042918E+02  0.00000000000E+00 0.  1.
</event>
<event>
 7    1  0.2942034E-011  0.5052885E+02  0.7816164E-02  0.1300439E+00
        -11   -1    0    0    0    0  0.00000000000E+00  0.00000000000E+00  0.45593999997E+02  0.45594000000E+02  0.51100000000E-03 0.  1.
         11   -1    0    0    0    0 -0.00000000000E+00 -0.00000000000E+00 -0.45593999997E+02  0.45594000000E+02  0.51100000000E-03 0. -1.
    9900012    2    1    2    0    0 -0.22941013317E+02 -0.30304854098E+02 -0.14439249044E+02  0.50528853589E+02  0.29999980969E+02 0.  0.
         12    1    1    2    0    0  0.22941013317E+02  0.30304854098E+02  0.14439249044E+02  0.40659146411E+02  0.00000000000E+00 0. -1.
         11    1    3    3    0    0  0.16357444815E+01 -0.50899250616E+01 -0.12419436789E+02  0.13521294596E+02  0.51100000000E-03 0. -1.
        -11    1    3    3    0    0 -0.76836553948E+01 -0.11935755662E+02  0.38969825697E+01  0.14720302200E+02  0.51100000000E-03 0.  1.
         12    1    3    3    0    0 -0.16893102404E+02 -0.13279173375E+02 -0.59167948241E+01  0.22287256793E+02  0.00000000000E+00 0. -1.
</event>
<event>
 7    1  0.2942034E-011  0.5052882E+02  0.7816164E-02  0.1300439E+00
        -11   -1    0    0    0    0  0.00000000000E+00  0.00000000000E+00  0.45593999997E+02  0.45594000000E+02  0.51100000000E-03 0.  1.
         11   -1    0    0    0    0 -0.00000000000E+00 -0.00000000000E+00 -0.45593999997E+02  0.45594000000E+02  0.51100000000E-03 0. -1.
    9900012    2    1    2    0    0 -0.20269481253E+02  0.25161178352E+02  0.24682621679E+02  0.50528824169E+02  0.29999891545E+02 0.  0.
         12    1    1    2    0    0  0.20269481253E+02 -0.25161178352E+02 -0.24682621679E+02  0.40659175831E+02  0.00000000000E+00 0. -1.
         11    1    3    3    0    0  0.19407580964E+01  0.10439750188E+02  0.45663469625E+01  0.11558825668E+02  0.51100000000E-03 0. -1.
        -11    1    3    3    0    0 -0.16557427657E+02  0.13829797495E+02  0.23832501549E+02  0.32146536979E+02  0.51100000000E-03 0.  1.
        -12    1    3    3    0    0 -0.56528116924E+01  0.89163066851E+00 -0.37162268331E+01  0.68234615228E+01  0.00000000000E+00 0.  1.
</event>
<event>
 7    1  0.2942034E-011  0.5052885E+02  0.7816164E-02  0.1300439E+00
        -11   -1    0    0    0    0  0.00000000000E+00  0.00000000000E+00  0.45593999997E+02  0.45594000000E+02  0.51100000000E-03 0.  1.
         11   -1    0    0    0    0 -0.00000000000E+00 -0.00000000000E+00 -0.45593999997E+02  0.45594000000E+02  0.51100000000E-03 0. -1.
    9900012    2    1    2    0    0  0.15713482767E+01 -0.32364020322E+02 -0.24561505115E+02  0.50528849980E+02  0.29999969999E+02 0.  0.
         12    1    1    2    0    0 -0.15713482767E+01  0.32364020322E+02  0.24561505115E+02  0.40659150020E+02  0.00000000000E+00 0. -1.
         11    1    3    3    0    0  0.44327480111E+01 -0.19019131477E+02  0.23486213673E+01  0.19669586667E+02  0.51100000000E-03 0. -1.
        -11    1    3    3    0    0 -0.44911546777E+01 -0.60173328361E+01 -0.11783431944E+02  0.13972402565E+02  0.51100000000E-03 0.  1.
         12    1    3    3    0    0  0.16297549433E+01 -0.73275560091E+01 -0.15126694538E+02  0.16886860747E+02  0.00000000000E+00 0. -1.
</event>
<event>
 7    1  0.2942034E-011  0.5052886E+02  0.7816164E-02  0.1300439E+00
        -11   -1    0    0    0    0  0.00000000000E+00  0.00000000000E+00  0.45593999997E+02  0.45594000000E+02  0.51100000000E-03 0.  1.
         11   -1    0    0    0    0 -0.00000000000E+00 -0.00000000000E+00 -0.45593999997E+02  0.45594000000E+02  0.51100000000E-03 0. -1.
    9900012    2    1    2    0    0  0.66552153614E+01 -0.12743144807E+02  0.38032698666E+02  0.50528858360E+02  0.29999995472E+02 0.  0.
         12    1    1    2    0    0 -0.66552153614E+01  0.12743144807E+02 -0.38032698666E+02  0.40659141640E+02  0.00000000000E+00 0. -1.
         11    1    3    3    0    0 -0.67898470625E+00  0.60470290070E+01  0.58009994497E+01  0.84070907524E+01  0.51100000000E-03 0. -1.
        -11    1    3    3    0    0  0.24486250381E+01 -0.20648006244E+02  0.29849584493E+02  0.36377652771E+02  0.51100000000E-03 0.  1.
         12    1    3    3    0    0  0.48855750295E+01  0.18578324302E+01  0.23821147226E+01  0.57441148369E+01  0.00000000000E+00 0. -1.
</event>
<event>
 7    1  0.2942034E-011  0.5052886E+02  0.7816164E-02  0.1300439E+00
        -11   -1    0    0    0    0  0.00000000000E+00  0.00000000000E+00  0.45593999997E+02  0.45594000000E+02  0.51100000000E-03 0.  1.
         11   -1    0    0    0    0 -0.00000000000E+00 -0.00000000000E+00 -0.45593999997E+02  0.45594000000E+02  0.51100000000E-03 0. -1.
    9900012    2    1    2    0    0 -0.46814830210E+01  0.23038239834E+01  0.40322972823E+02  0.50528855574E+02  0.29999987002E+02 0.  0.
         12    1    1    2    0    0  0.46814830210E+01 -0.23038239834E+01 -0.40322972823E+02  0.40659144426E+02  0.00000000000E+00 0. -1.
         11    1    3    3    0    0 -0.37905821104E+01  0.66542463567E+01 -0.89516598799E+00  0.77103067201E+01  0.51100000000E-03 0.  1.
        -11    1    3    3    0    0 -0.35385119487E+01 -0.15474476877E+00  0.43107812039E+01  0.55792336036E+01  0.51100000000E-03 0. -1.
         12    1    3    3    0    0  0.26476110382E+01 -0.41956776045E+01  0.36907357607E+02  0.37239315250E+02  0.00000000000E+00 0. -1.
</event>
<event>
 7    1  0.2942034E-011  0.5052887E+02  0.7816164E-02  0.1300439E+00
        -11   -1    0    0    0    0  0.00000000000E+00  0.00000000000E+00  0.45593999997E+02  0.45594000000E+02  0.51100000000E-03 0. -1.
         11   -1    0    0    0    0 -0.00000000000E+00 -0.00000000000E+00 -0.45593999997E+02  0.45594000000E+02  0.51100000000E-03 0.  1.
    9900012    2    1    2    0    0 -0.32528943165E+02  0.39055443569E+01 -0.24078614173E+02  0.50528867192E+02  0.30000022318E+02 0.  0.
         12    1    1    2    0    0  0.32528943165E+02 -0.39055443569E+01  0.24078614173E+02  0.40659132808E+02  0.00000000000E+00 0. -1.
         11    1    3    3    0    0 -0.13758947888E+01  0.73181345803E+01 -0.12768264490E+02  0.14780959324E+02  0.51100000000E-03 0. -1.
        -11    1    3    3    0    0 -0.22884686862E+02 -0.81486904525E+01 -0.92859700088E+01  0.26006523953E+02  0.51100000000E-03 0.  1.
         12    1    3    3    0    0 -0.82683615139E+01  0.47361002290E+01 -0.20243796750E+01  0.97413839147E+01  0.00000000000E+00 0. -1.
</event>
<event>
 7    1  0.2942034E-011  0.5052885E+02  0.7816164E-02  0.1300439E+00
        -11   -1    0    0    0    0  0.00000000000E+00  0.00000000000E+00  0.45593999997E+02  0.45594000000E+02  0.51100000000E-03 0. -1.
         11   -1    0    0    0    0 -0.00000000000E+00 -0.00000000000E+00 -0.45593999997E+02  0.45594000000E+02  0.51100000000E-03 0.  1.
    9900012    2    1    2    0    0 -0.22302989262E+02  0.28549916440E+02  0.18456573102E+02  0.50528854049E+02  0.29999982369E+02 0.  0.
         12    1    1    2    0    0  0.22302989262E+02 -0.28549916440E+02 -0.18456573102E+02  0.40659145951E+02  0.00000000000E+00 0. -1.
         11    1    3    3    0    0  0.23053833898E+01  0.98102502109E+00 -0.23924031583E+01  0.34642164769E+01  0.51100000000E-03 0. -1.
        -11    1    3    3    0    0 -0.17939300429E+02  0.19059735832E+02  0.32021597311E+01  0.26369411390E+02  0.51100000000E-03 0.  1.
        -12    1    3    3    0    0 -0.66690722232E+01  0.85091555866E+01  0.17646816529E+02  0.20695226182E+02  0.00000000000E+00 0.  1.
</event>
<event>
 7    1  0.2942034E-011  0.5052886E+02  0.7816164E-02  0.1300439E+00
        -11   -1    0    0    0    0  0.00000000000E+00  0.00000000000E+00  0.45593999997E+02  0.45594000000E+02  0.51100000000E-03 0.  1.
         11   -1    0    0    0    0 -0.00000000000E+00 -0.00000000000E+00 -0.45593999997E+02  0.45594000000E+02  0.51100000000E-03 0. -1.
    9900012    2    1    2    0    0  0.10513023491E+02  0.25148969914E+02  0.30169048300E+02  0.50528858027E+02  0.29999994459E+02 0.  0.
         12    1    1    2    0    0 -0.10513023491E+02 -0.25148969914E+02 -0.30169048300E+02  0.40659141973E+02  0.00000000000E+00 0. -1.
         11    1    3    3    0    0 -0.23710711174E+01  0.10077787511E+01  0.35074068630E+01  0.43519535175E+01  0.51100000000E-03 0. -1.
        -11    1    3    3    0    0  0.73196709996E+01  0.17379553938E+02  0.80231343095E+00  0.18875120813E+02  0.51100000000E-03 0.  1.
        -12    1    3    3    0    0  0.55644236085E+01  0.67616372249E+01  0.25859328006E+02  0.27301783696E+02  0.00000000000E+00 0.  1.
</event>
<event>
 7    1  0.2942034E-011  0.5052885E+02  0.7816164E-02  0.1300439E+00
        -11   -1    0    0    0    0  0.00000000000E+00  0.00000000000E+00  0.45593999997E+02  0.45594000000E+02  0.51100000000E-03 0.  1.
         11   -1    0    0    0    0 -0.00000000000E+00 -0.00000000000E+00 -0.45593999997E+02  0.45594000000E+02  0.51100000000E-03 0. -1.
    9900012    2    1    2    0    0  0.51552743009E+01  0.35935788525E+02  0.18308705862E+02  0.50528850225E+02  0.29999970745E+02 0.  0.
         12    1    1    2    0    0 -0.51552743009E+01 -0.35935788525E+02 -0.18308705862E+02  0.40659149775E+02  0.00000000000E+00 0. -1.
         11    1    3    3    0    0 -0.83049332445E-01 -0.29848353633E+01  0.13875515702E+01  0.32926340457E+01  0.51100000000E-03 0. -1.
        -11    1    3    3    0    0  0.12461416515E+02  0.24933958658E+02  0.74035198604E+01  0.28840965699E+02  0.51100000000E-03 0.  1.
        -12    1    3    3    0    0 -0.72230928815E+01  0.13986665231E+02  0.95176344313E+01  0.18395250480E+02  0.00000000000E+00 0.  1.
</event>
<event>
 7    1  0.2942034E-011  0.5052887E+02  0.7816164E-02  0.1300439E+00
        -11   -1    0    0    0    0  0.00000000000E+00  0.00000000000E+00  0.45593999997E+02  0.45594000000E+02  0.51100000000E-03 0.  1.
         11   -1    0    0    0    0 -0.00000000000E+00 -0.00000000000E+00 -0.45593999997E+02  0.45594000000E+02  0.51100000000E-03 0. -1.
    9900012    2    1    2    0    0  0.17328463681E+02 -0.33147959259E+02  0.15940565369E+02  0.50528874568E+02  0.30000044737E+02 0.  0.
         12    1    1    2    0    0 -0.17328463681E+02  0.33147959259E+02 -0.15940565369E+02  0.40659125432E+02  0.00000000000E+00 0. -1.
         11    1    3    3    0    0 -0.32562142480E+01 -0.18732875670E+02  0.85447507133E+00  0.19032963248E+02  0.51100000000E-03 0. -1.
        -11    1    3    3    0    0  0.51021882977E+01 -0.77347750967E+01  0.10535359389E+02  0.14030426541E+02  0.51100000000E-03 0.  1.
         12    1    3    3    0    0  0.15482489632E+02 -0.66803084927E+01  0.45507309094E+01  0.17465484779E+02  0.00000000000E+00 0. -1.
</event>
<event>
 7    1  0.2942034E-011  0.5052885E+02  0.7816164E-02  0.1300439E+00
        -11   -1    0    0    0    0  0.00000000000E+00  0.00000000000E+00  0.45593999997E+02  0.45594000000E+02  0.51100000000E-03 0.  1.
         11   -1    0    0    0    0 -0.00000000000E+00 -0.00000000000E+00 -0.45593999997E+02  0.45594000000E+02  0.51100000000E-03 0. -1.
    9900012    2    1    2    0    0 -0.30266395705E+02 -0.16484693922E+02  0.21572349736E+02  0.50528854463E+02  0.29999983625E+02 0.  0.
         12    1    1    2    0    0  0.30266395705E+02  0.16484693922E+02 -0.21572349736E+02  0.40659145537E+02  0.00000000000E+00 0. -1.
         11    1    3    3    0    0  0.60887280242E+00 -0.16497390047E+00 -0.21848456045E+01  0.22740916987E+01  0.51100000000E-03 0. -1.
        -11    1    3    3    0    0 -0.28474761318E+02 -0.14793798671E+02  0.91419688172E+01  0.33365312906E+02  0.51100000000E-03 0.  1.
        -12    1    3    3    0    0 -0.24005071899E+01 -0.15259213508E+01  0.14615226523E+02  0.14889449858E+02  0.00000000000E+00 0.  1.
</event>
<event>
 7    1  0.2942034E-011  0.5052886E+02  0.7816164E-02  0.1300439E+00
        -11   -1    0    0    0    0  0.00000000000E+00  0.00000000000E+00  0.45593999997E+02  0.45594000000E+02  0.51100000000E-03 0.  1.
         11   -1    0    0    0    0 -0.00000000000E+00 -0.00000000000E+00 -0.45593999997E+02  0.45594000000E+02  0.51100000000E-03 0. -1.
    9900012    2    1    2    0    0 -0.12602352807E+02  0.24145563824E+02  0.30188382718E+02  0.50528855890E+02  0.29999987963E+02 0.  0.
         12    1    1    2    0    0  0.12602352807E+02 -0.24145563824E+02 -0.30188382718E+02  0.40659144110E+02  0.00000000000E+00 0. -1.
         11    1    3    3    0    0  0.32437941784E+01  0.20084195030E+02  0.14690377856E+02  0.25093909470E+02  0.51100000000E-03 0.  1.
        -11    1    3    3    0    0 -0.10728670768E+01 -0.31352114243E+01  0.47778049266E+01  0.58144659788E+01  0.51100000000E-03 0. -1.
         12    1    3    3    0    0 -0.14773279909E+02  0.71965802191E+01  0.10720199935E+02  0.19620480441E+02  0.00000000000E+00 0. -1.
</event>
<event>
 7    1  0.2942034E-011  0.5052884E+02  0.7816164E-02  0.1300439E+00
        -11   -1    0    0    0    0  0.00000000000E+00  0.00000000000E+00  0.45593999997E+02  0.45594000000E+02  0.51100000000E-03 0.  1.
         11   -1    0    0    0    0 -0.00000000000E+00 -0.00000000000E+00 -0.45593999997E+02  0.45594000000E+02  0.51100000000E-03 0. -1.
    9900012    2    1    2    0    0 -0.14129163641E+01 -0.30656076422E+01  0.40518797307E+02  0.50528840908E+02  0.29999942425E+02 0.  0.
         12    1    1    2    0    0  0.14129163641E+01  0.30656076422E+01 -0.40518797307E+02  0.40659159092E+02  0.00000000000E+00 0. -1.
         11    1    3    3    0    0 -0.34917845688E+01  0.10951729607E+02  0.14087451079E+02  0.18182112612E+02  0.51100000000E-03 0. -1.
        -11    1    3    3    0    0  0.11063124102E+01 -0.91670920054E+01  0.53052200087E+01  0.10649171920E+02  0.51100000000E-03 0.  1.
         12    1    3    3    0    0  0.97255579447E+00 -0.48502452438E+01  0.21126126219E+02  0.21697556377E+02  0.00000000000E+00 0. -1.
</event>
<event>
 7    1  0.2942034E-011  0.5052885E+02  0.7816164E-02  0.1300439E+00
        -11   -1    0    0    0    0  0.00000000000E+00  0.00000000000E+00  0.45593999997E+02  0.45594000000E+02  0.51100000000E-03 0. -1.
         11   -1    0    0    0    0 -0.00000000000E+00 -0.00000000000E+00 -0.45593999997E+02  0.45594000000E+02  0.51100000000E-03 0.  1.
    9900012    2    1    2    0    0 -0.39171836239E+02 -0.65705815424E+01  0.86925710852E+01  0.50528854802E+02  0.29999984657E+02 0.  0.
         12    1    1    2    0    0  0.39171836239E+02  0.65705815424E+01 -0.86925710852E+01  0.40659145198E+02  0.00000000000E+00 0. -1.
         11    1    3    3    0    0 -0.11113842619E+02 -0.67463717025E+01 -0.84381979703E+01  0.15499490771E+02  0.51100000000E-03 0. -1.
        -11    1    3    3    0    0 -0.12774957661E+02  0.45949460801E+01  0.33544235930E+01  0.13984463902E+02  0.51100000000E-03 0.  1.
         12    1    3    3    0    0 -0.15283035959E+02 -0.44191559200E+01  0.13776345462E+02  0.21044900129E+02  0.00000000000E+00 0. -1.
</event>
<event>
 7    1  0.2942034E-011  0.5052887E+02  0.7816164E-02  0.1300439E+00
        -11   -1    0    0    0    0  0.00000000000E+00  0.00000000000E+00  0.45593999997E+02  0.45594000000E+02  0.51100000000E-03 0.  1.
         11   -1    0    0    0    0 -0.00000000000E+00 -0.00000000000E+00 -0.45593999997E+02  0.45594000000E+02  0.51100000000E-03 0. -1.
    9900012    2    1    2    0    0  0.37744700248E+02 -0.15116247007E+02 -0.43396998484E-01  0.50528865680E+02  0.30000017721E+02 0.  0.
         12    1    1    2    0    0 -0.37744700248E+02  0.15116247007E+02  0.43396998484E-01  0.40659134320E+02  0.00000000000E+00 0. -1.
         11    1    3    3    0    0  0.25982772413E+02 -0.36194362962E+01 -0.28747358148E+01  0.26390696990E+02  0.51100000000E-03 0. -1.
        -11    1    3    3    0    0  0.27041033498E+01 -0.74320562464E+01  0.93614998768E+01  0.12255011839E+02  0.51100000000E-03 0.  1.
        -12    1    3    3    0    0  0.90578244848E+01 -0.40647544641E+01 -0.65301610605E+01  0.11883156850E+02  0.00000000000E+00 0.  1.
</event>
<event>
 7    1  0.2942034E-011  0.5052885E+02  0.7816164E-02  0.1300439E+00
        -11   -1    0    0    0    0  0.00000000000E+00  0.00000000000E+00  0.45593999997E+02  0.45594000000E+02  0.51100000000E-03 0.  1.
         11   -1    0    0    0    0 -0.00000000000E+00 -0.00000000000E+00 -0.45593999997E+02  0.45594000000E+02  0.51100000000E-03 0. -1.
    9900012    2    1    2    0    0 -0.32977070073E+02  0.21380833264E+02  0.10418219889E+02  0.50528849894E+02  0.29999969738E+02 0.  0.
         12    1    1    2    0    0  0.32977070073E+02 -0.21380833264E+02 -0.10418219889E+02  0.40659150106E+02  0.00000000000E+00 0. -1.
         11    1    3    3    0    0 -0.20822677497E+01  0.13326344485E+01  0.12649630301E+02  0.12888944897E+02  0.51100000000E-03 0. -1.
        -11    1    3    3    0    0 -0.28581701083E+02  0.15755511499E+02 -0.26601488598E+01  0.32744864813E+02  0.51100000000E-03 0.  1.
         12    1    3    3    0    0 -0.23131012404E+01  0.42926873167E+01  0.42873844827E+00  0.48950401841E+01  0.00000000000E+00 0. -1.
</event>
<event>
 7    1  0.2942034E-011  0.5052886E+02  0.7816164E-02  0.1300439E+00
        -11   -1    0    0    0    0  0.00000000000E+00  0.00000000000E+00  0.45593999997E+02  0.45594000000E+02  0.51100000000E-03 0.  1.
         11   -1    0    0    0    0 -0.00000000000E+00 -0.00000000000E+00 -0.45593999997E+02  0.45594000000E+02  0.51100000000E-03 0. -1.
    9900012    2    1    2    0    0  0.32476214329E+02  0.24406447986E+02  0.16693074678E+01  0.50528858496E+02  0.29999995884E+02 0.  0.
         12    1    1    2    0    0 -0.32476214329E+02 -0.24406447986E+02 -0.16693074678E+01  0.40659141504E+02  0.00000000000E+00 0. -1.
         11    1    3    3    0    0  0.94059904451E+01 -0.27455410163E+01  0.97173554160E+01  0.13799914792E+02  0.51100000000E-03 0. -1.
        -11    1    3    3    0    0  0.14655053979E+02  0.19368913161E+02 -0.66436969006E+01  0.25180629717E+02  0.51100000000E-03 0.  1.
         12    1    3    3    0    0  0.84151699046E+01  0.77830758409E+01 -0.14043510476E+01  0.11548313987E+02  0.00000000000E+00 0. -1.
</event>
<event>
 7    1  0.2942034E-011  0.5052894E+02  0.7816164E-02  0.1300439E+00
        -11   -1    0    0    0    0  0.00000000000E+00  0.00000000000E+00  0.45593999997E+02  0.45594000000E+02  0.51100000000E-03 0. -1.
         11   -1    0    0    0    0 -0.00000000000E+00 -0.00000000000E+00 -0.45593999997E+02  0.45594000000E+02  0.51100000000E-03 0.  1.
    9900012    2    1    2    0    0  0.45660142525E+01  0.26359510866E+02 -0.30618408641E+02  0.50528938932E+02  0.30000240377E+02 0.  0.
         12    1    1    2    0    0 -0.45660142525E+01 -0.26359510866E+02  0.30618408641E+02  0.40659061068E+02  0.00000000000E+00 0. -1.
         11    1    3    3    0    0  0.10383092714E+02  0.15322367473E+02 -0.16641497580E+02  0.24890218987E+02  0.51100000000E-03 0. -1.
        -11    1    3    3    0    0 -0.10944331191E+02  0.65353921735E+01 -0.36465709117E+01  0.13258477128E+02  0.51100000000E-03 0.  1.
        -12    1    3    3    0    0  0.51272527295E+01  0.45017512191E+01 -0.10330340150E+02  0.12380242817E+02  0.00000000000E+00 0.  1.
</event>
<event>
 7    1  0.2942034E-011  0.5052886E+02  0.7816164E-02  0.1300439E+00
        -11   -1    0    0    0    0  0.00000000000E+00  0.00000000000E+00  0.45593999997E+02  0.45594000000E+02  0.51100000000E-03 0.  1.
         11   -1    0    0    0    0 -0.00000000000E+00 -0.00000000000E+00 -0.45593999997E+02  0.45594000000E+02  0.51100000000E-03 0. -1.
    9900012    2    1    2    0    0 -0.33157856478E+02  0.82132398301E+01  0.22051411862E+02  0.50528861792E+02  0.30000005902E+02 0.  0.
         12    1    1    2    0    0  0.33157856478E+02 -0.82132398301E+01 -0.22051411862E+02  0.40659138208E+02  0.00000000000E+00 0. -1.
         11    1    3    3    0    0  0.22737937862E+01 -0.24267684957E+00  0.83448193760E+01  0.86524586630E+01  0.51100000000E-03 0. -1.
        -11    1    3    3    0    0 -0.21388384272E+02  0.30299088789E+01  0.15679655564E+02  0.26692600631E+02  0.51100000000E-03 0.  1.
         12    1    3    3    0    0 -0.14043265992E+02  0.54260078008E+01 -0.19730630776E+01  0.15183802497E+02  0.00000000000E+00 0. -1.
</event>
<event>
 7    1  0.2942034E-011  0.5052884E+02  0.7816164E-02  0.1300439E+00
        -11   -1    0    0    0    0  0.00000000000E+00  0.00000000000E+00  0.45593999997E+02  0.45594000000E+02  0.51100000000E-03 0. -1.
         11   -1    0    0    0    0 -0.00000000000E+00 -0.00000000000E+00 -0.45593999997E+02  0.45594000000E+02  0.51100000000E-03 0.  1.
    9900012    2    1    2    0    0  0.31917796785E+02 -0.22287683165E+02  0.11733744298E+02  0.50528839559E+02  0.29999938325E+02 0.  0.
         12    1    1    2    0    0 -0.31917796785E+02  0.22287683165E+02 -0.11733744298E+02  0.40659160441E+02  0.00000000000E+00 0. -1.
         11    1    3    3    0    0 -0.29823974197E+01  0.35667995141E+01 -0.31832505147E+00  0.46602665420E+01  0.51100000000E-03 0. -1.
        -11    1    3    3    0    0  0.20310799611E+02 -0.20089505590E+02  0.75692645416E+01  0.29553520631E+02  0.51100000000E-03 0.  1.
         12    1    3    3    0    0  0.14589394593E+02 -0.57649770893E+01  0.44828048081E+01  0.16315052387E+02  0.00000000000E+00 0. -1.
</event>
<event>
 7    1  0.2942034E-011  0.5052887E+02  0.7816164E-02  0.1300439E+00
        -11   -1    0    0    0    0  0.00000000000E+00  0.00000000000E+00  0.45593999997E+02  0.45594000000E+02  0.51100000000E-03 0. -1.
         11   -1    0    0    0    0 -0.00000000000E+00 -0.00000000000E+00 -0.45593999997E+02  0.45594000000E+02  0.51100000000E-03 0.  1.
    9900012    2    1    2    0    0 -0.28323222547E+02  0.19877038344E+02 -0.21350959778E+02  0.50528867297E+02  0.30000022634E+02 0.  0.
         12    1    1    2    0    0  0.28323222547E+02 -0.19877038344E+02  0.21350959778E+02  0.40659132703E+02  0.00000000000E+00 0. -1.
         11    1    3    3    0    0 -0.10938866211E+02 -0.28934588993E+01  0.29293740655E+01  0.11688119227E+02  0.51100000000E-03 0. -1.
        -11    1    3    3    0    0 -0.13078680949E+02  0.19685588330E+02 -0.23769222458E+02  0.33519400648E+02  0.51100000000E-03 0.  1.
        -12    1    3    3    0    0 -0.43056753864E+01  0.30849089130E+01 -0.51111138586E+00  0.53213474218E+01  0.00000000000E+00 0.  1.
</event>
<event>
 7    1  0.2942034E-011  0.5052888E+02  0.7816164E-02  0.1300439E+00
        -11   -1    0    0    0    0  0.00000000000E+00  0.00000000000E+00  0.45593999997E+02  0.45594000000E+02  0.51100000000E-03 0.  1.
         11   -1    0    0    0    0 -0.00000000000E+00 -0.00000000000E+00 -0.45593999997E+02  0.45594000000E+02  0.51100000000E-03 0. -1.
    9900012    2    1    2    0    0 -0.14557640276E+02  0.10463683226E+02  0.36493151304E+02  0.50528884796E+02  0.30000075827E+02 0.  0.
         12    1    1    2    0    0  0.14557640276E+02 -0.10463683226E+02 -0.36493151304E+02  0.40659115204E+02  0.00000000000E+00 0. -1.
         11    1    3    3    0    0  0.80189577777E+01  0.25103777499E+01  0.58230049214E+01  0.10223163251E+02  0.51100000000E-03 0. -1.
        -11    1    3    3    0    0 -0.19127529414E+02  0.43145788095E+01  0.17757335510E+02  0.26453750895E+02  0.51100000000E-03 0.  1.
        -12    1    3    3    0    0 -0.34490686399E+01  0.36387266666E+01  0.12912810873E+02  0.13851970649E+02  0.00000000000E+00 0.  1.
</event>
<event>
 7    1  0.2942034E-011  0.5052886E+02  0.7816164E-02  0.1300439E+00
        -11   -1    0    0    0    0  0.00000000000E+00  0.00000000000E+00  0.45593999997E+02  0.45594000000E+02  0.51100000000E-03 0.  1.
         11   -1    0    0    0    0 -0.00000000000E+00 -0.00000000000E+00 -0.45593999997E+02  0.45594000000E+02  0.51100000000E-03 0. -1.
    9900012    2    1    2    0    0  0.27327059279E+02  0.29386436288E+02  0.65448622130E+01  0.50528855543E+02  0.29999986909E+02 0.  0.
         12    1    1    2    0    0 -0.27327059279E+02 -0.29386436288E+02 -0.65448622130E+01  0.40659144457E+02  0.00000000000E+00 0. -1.
         11    1    3    3    0    0  0.17441956886E+02  0.12875288794E+02 -0.76266476461E+01  0.22981746585E+02  0.51100000000E-03 0. -1.
        -11    1    3    3    0    0  0.12823199856E+02  0.95628843270E+01  0.10683044535E+02  0.19235660945E+02  0.51100000000E-03 0.  1.
         12    1    3    3    0    0 -0.29380974627E+01  0.69482631677E+01  0.34884653239E+01  0.83114480124E+01  0.00000000000E+00 0. -1.
</event>
<event>
 7    1  0.2942034E-011  0.5052886E+02  0.7816164E-02  0.1300439E+00
        -11   -1    0    0    0    0  0.00000000000E+00  0.00000000000E+00  0.45593999997E+02  0.45594000000E+02  0.51100000000E-03 0. -1.
         11   -1    0    0    0    0 -0.00000000000E+00 -0.00000000000E+00 -0.45593999997E+02  0.45594000000E+02  0.51100000000E-03 0.  1.
    9900012    2    1    2    0    0 -0.87316788440E+01 -0.35517088687E+02 -0.17761178557E+02  0.50528864889E+02  0.30000015316E+02 0.  0.
         12    1    1    2    0    0  0.87316788440E+01  0.35517088687E+02  0.17761178557E+02  0.40659135111E+02  0.00000000000E+00 0. -1.
         11    1    3    3    0    0 -0.32215395575E+01  0.39025011146E+01 -0.40074424523E+01  0.64550311649E+01  0.51100000000E-03 0. -1.
        -11    1    3    3    0    0 -0.52276277998E+01 -0.39885765733E+02 -0.14825126490E+02  0.42871747996E+02  0.51100000000E-03 0.  1.
        -12    1    3    3    0    0 -0.28251148663E+00  0.46617593147E+00  0.10713903850E+01  0.12020857274E+01  0.00000000000E+00 0.  1.
</event>
<event>
 7    1  0.2942034E-011  0.5052886E+02  0.7816164E-02  0.1300439E+00
        -11   -1    0    0    0    0  0.00000000000E+00  0.00000000000E+00  0.45593999997E+02  0.45594000000E+02  0.51100000000E-03 0.  1.
         11   -1    0    0    0    0 -0.00000000000E+00 -0.00000000000E+00 -0.45593999997E+02  0.45594000000E+02  0.51100000000E-03 0. -1.
    9900012    2    1    2    0    0  0.25656107443E+02 -0.28329147193E+02  0.13870445385E+02  0.50528859761E+02  0.29999999729E+02 0.  0.
         12    1    1    2    0    0 -0.25656107443E+02  0.28329147193E+02 -0.13870445385E+02  0.40659140239E+02  0.00000000000E+00 0. -1.
         11    1    3    3    0    0  0.86526892349E+01 -0.35312863000E+01 -0.68067758866E+01  0.11561626709E+02  0.51100000000E-03 0. -1.
        -11    1    3    3    0    0  0.13052385721E+02 -0.24505808554E+02  0.21250676087E+02  0.34964133913E+02  0.51100000000E-03 0.  1.
        -12    1    3    3    0    0  0.39510324878E+01 -0.29205233882E+00 -0.57345481573E+00  0.40030991386E+01  0.00000000000E+00 0.  1.
</event>
<event>
 7    1  0.2942034E-011  0.5052884E+02  0.7816164E-02  0.1300439E+00
        -11   -1    0    0    0    0  0.00000000000E+00  0.00000000000E+00  0.45593999997E+02  0.45594000000E+02  0.51100000000E-03 0. -1.
         11   -1    0    0    0    0 -0.00000000000E+00 -0.00000000000E+00 -0.45593999997E+02  0.45594000000E+02  0.51100000000E-03 0.  1.
    9900012    2    1    2    0    0  0.21305894267E+02  0.29741408666E+02 -0.17739063786E+02  0.50528844771E+02  0.29999954165E+02 0.  0.
         12    1    1    2    0    0 -0.21305894267E+02 -0.29741408666E+02  0.17739063786E+02  0.40659155229E+02  0.00000000000E+00 0. -1.
         11    1    3    3    0    0 -0.28700186985E+01 -0.27352682890E+01  0.20833989827E+01  0.44787555777E+01  0.51100000000E-03 0. -1.
        -11    1    3    3    0    0  0.70354829583E+01  0.17247579510E+02 -0.93749242597E+01  0.20853446347E+02  0.51100000000E-03 0.  1.
         12    1    3    3    0    0  0.17140430007E+02  0.15229097445E+02 -0.10447538509E+02  0.25196642846E+02  0.00000000000E+00 0. -1.
</event>
<event>
 7    1  0.2942034E-011  0.5052886E+02  0.7816164E-02  0.1300439E+00
        -11   -1    0    0    0    0  0.00000000000E+00  0.00000000000E+00  0.45593999997E+02  0.45594000000E+02  0.51100000000E-03 0. -1.
         11   -1    0    0    0    0 -0.00000000000E+00 -0.00000000000E+00 -0.45593999997E+02  0.45594000000E+02  0.51100000000E-03 0.  1.
    9900012    2    1    2    0    0  0.30384728982E+02 -0.26335340193E+02 -0.60319142638E+01  0.50528857263E+02  0.29999992136E+02 0.  0.
         12    1    1    2    0    0 -0.30384728982E+02  0.26335340193E+02  0.60319142638E+01  0.40659142737E+02  0.00000000000E+00 0. -1.
         11    1    3    3    0    0  0.13315860438E+02  0.19337221413E+01  0.11703298178E+01  0.13506335279E+02  0.51100000000E-03 0. -1.
        -11    1    3    3    0    0  0.17756254472E+02 -0.25271816024E+02 -0.10396254695E+02  0.32588822777E+02  0.51100000000E-03 0.  1.
         12    1    3    3    0    0 -0.68738592780E+00 -0.29972463109E+01  0.31940106135E+01  0.44336992073E+01  0.00000000000E+00 0. -1.
</event>
<event>
 7    1  0.2942034E-011  0.5052888E+02  0.7816164E-02  0.1300439E+00
        -11   -1    0    0    0    0  0.00000000000E+00  0.00000000000E+00  0.45593999997E+02  0.45594000000E+02  0.51100000000E-03 0.  1.
         11   -1    0    0    0    0 -0.00000000000E+00 -0.00000000000E+00 -0.45593999997E+02  0.45594000000E+02  0.51100000000E-03 0. -1.
    9900012    2    1    2    0    0 -0.13754113407E+01  0.17524551099E+01  0.40598041515E+02  0.50528882571E+02  0.30000069062E+02 0.  0.
         12    1    1    2    0    0  0.13754113407E+01 -0.17524551099E+01 -0.40598041515E+02  0.40659117429E+02  0.00000000000E+00 0. -1.
         11    1    3    3    0    0 -0.11240298061E+02 -0.28318896972E+01  0.17376759891E+02  0.20888170918E+02  0.51100000000E-03 0. -1.
        -11    1    3    3    0    0  0.66499827849E+01  0.91319841669E+01  0.20580542085E+02  0.23477097747E+02  0.51100000000E-03 0.  1.
         12    1    3    3    0    0  0.32149039352E+01 -0.45476393598E+01  0.26407395392E+01  0.61636139052E+01  0.00000000000E+00 0. -1.
</event>
<event>
 7    1  0.2942034E-011  0.5052885E+02  0.7816164E-02  0.1300439E+00
        -11   -1    0    0    0    0  0.00000000000E+00  0.00000000000E+00  0.45593999997E+02  0.45594000000E+02  0.51100000000E-03 0.  1.
         11   -1    0    0    0    0 -0.00000000000E+00 -0.00000000000E+00 -0.45593999997E+02  0.45594000000E+02  0.51100000000E-03 0. -1.
    9900012    2    1    2    0    0  0.11814919895E+02  0.89226922916E+00  0.38894445291E+02  0.50528851571E+02  0.29999974834E+02 0.  0.
         12    1    1    2    0    0 -0.11814919895E+02 -0.89226922916E+00 -0.38894445291E+02  0.40659148429E+02  0.00000000000E+00 0. -1.
         11    1    3    3    0    0  0.86705696807E+01  0.12466223772E+02  0.11948658698E+02  0.19322421139E+02  0.51100000000E-03 0. -1.
        -11    1    3    3    0    0  0.25089339378E+01 -0.13261215546E+02  0.20745676516E+02  0.24749498614E+02  0.51100000000E-03 0.  1.
        -12    1    3    3    0    0  0.63541627641E+00  0.16872610028E+01  0.62001100774E+01  0.64569318184E+01  0.00000000000E+00 0.  1.
</event>
<event>
 7    1  0.2942034E-011  0.5052887E+02  0.7816164E-02  0.1300439E+00
        -11   -1    0    0    0    0  0.00000000000E+00  0.00000000000E+00  0.45593999997E+02  0.45594000000E+02  0.51100000000E-03 0.  1.
         11   -1    0    0    0    0 -0.00000000000E+00 -0.00000000000E+00 -0.45593999997E+02  0.45594000000E+02  0.51100000000E-03 0. -1.
    9900012    2    1    2    0    0  0.32554691348E+02  0.78562177614E+00  0.24346244190E+02  0.50528871425E+02  0.30000035183E+02 0.  0.
         12    1    1    2    0    0 -0.32554691348E+02 -0.78562177614E+00 -0.24346244190E+02  0.40659128575E+02  0.00000000000E+00 0. -1.
         11    1    3    3    0    0  0.64851838656E+01 -0.44630860844E+01 -0.12582681810E+01  0.79724517085E+01  0.51100000000E-03 0. -1.
        -11    1    3    3    0    0  0.12314665701E+02  0.33278491523E+01  0.25673423905E+02  0.28667930979E+02  0.51100000000E-03 0.  1.
        -12    1    3    3    0    0  0.13754841782E+02  0.19208587082E+01 -0.68911534709E-01  0.13888488738E+02  0.00000000000E+00 0.  1.
</event>
<event>
 7    1  0.2942034E-011  0.5052885E+02  0.7816164E-02  0.1300439E+00
        -11   -1    0    0    0    0  0.00000000000E+00  0.00000000000E+00  0.45593999997E+02  0.45594000000E+02  0.51100000000E-03 0.  1.
         11   -1    0    0    0    0 -0.00000000000E+00 -0.00000000000E+00 -0.45593999997E+02  0.45594000000E+02  0.51100000000E-03 0. -1.
    9900012    2    1    2    0    0 -0.27107708232E+02 -0.18065923634E+02  0.24330249106E+02  0.50528850182E+02  0.29999970614E+02 0.  0.
         12    1    1    2    0    0  0.27107708232E+02  0.18065923634E+02 -0.24330249106E+02  0.40659149818E+02  0.00000000000E+00 0. -1.
         11    1    3    3    0    0 -0.16102748949E+02 -0.22097001171E+02  0.10376911923E+02  0.29244765101E+02  0.51100000000E-03 0. -1.
        -11    1    3    3    0    0 -0.12767675808E+02  0.23111079080E+01  0.91206843831E+01  0.15860064602E+02  0.51100000000E-03 0.  1.
         12    1    3    3    0    0  0.17627165252E+01  0.17199696292E+01  0.48326528000E+01  0.54240204792E+01  0.00000000000E+00 0. -1.
</event>
<event>
 7    1  0.2942034E-011  0.5052886E+02  0.7816164E-02  0.1300439E+00
        -11   -1    0    0    0    0  0.00000000000E+00  0.00000000000E+00  0.45593999997E+02  0.45594000000E+02  0.51100000000E-03 0.  1.
         11   -1    0    0    0    0 -0.00000000000E+00 -0.00000000000E+00 -0.45593999997E+02  0.45594000000E+02  0.51100000000E-03 0. -1.
    9900012    2    1    2    0    0  0.12854569726E+02  0.10364224827E+02  0.37155197081E+02  0.50528858479E+02  0.29999995834E+02 0.  0.
         12    1    1    2    0    0 -0.12854569726E+02 -0.10364224827E+02 -0.37155197081E+02  0.40659141521E+02  0.00000000000E+00 0. -1.
         11    1    3    3    0    0  0.11212040766E+01  0.38869138648E+01 -0.14435858558E+01  0.42952460183E+01  0.51100000000E-03 0. -1.
        -11    1    3    3    0    0  0.13828740197E+02  0.61930955654E+01  0.40591937652E+02  0.43327749662E+02  0.51100000000E-03 0.  1.
        -12    1    3    3    0    0 -0.20953745479E+01  0.28421539689E+00 -0.19931547157E+01  0.29058627993E+01  0.00000000000E+00 0.  1.
</event>
<event>
 7    1  0.2942034E-011  0.5052886E+02  0.7816164E-02  0.1300439E+00
        -11   -1    0    0    0    0  0.00000000000E+00  0.00000000000E+00  0.45593999997E+02  0.45594000000E+02  0.51100000000E-03 0.  1.
         11   -1    0    0    0    0 -0.00000000000E+00 -0.00000000000E+00 -0.45593999997E+02  0.45594000000E+02  0.51100000000E-03 0. -1.
    9900012    2    1    2    0    0 -0.24399316904E+02 -0.71209815685E+01  0.31735324068E+02  0.50528857884E+02  0.29999994025E+02 0.  0.
         12    1    1    2    0    0  0.24399316904E+02  0.71209815685E+01 -0.31735324068E+02  0.40659142116E+02  0.00000000000E+00 0. -1.
         11    1    3    3    0    0 -0.21175006284E+02  0.23910511319E+00  0.69442640270E+01  0.22285889382E+02  0.51100000000E-03 0. -1.
        -11    1    3    3    0    0  0.31469885397E+01 -0.59984900514E+01  0.15282574773E+02  0.16716534082E+02  0.51100000000E-03 0.  1.
        -12    1    3    3    0    0 -0.63712991594E+01 -0.13615966303E+01  0.95084852682E+01  0.11526434421E+02  0.00000000000E+00 0.  1.
</event>
<event>
 7    1  0.2942034E-011  0.5052888E+02  0.7816164E-02  0.1300439E+00
        -11   -1    0    0    0    0  0.00000000000E+00  0.00000000000E+00  0.45593999997E+02  0.45594000000E+02  0.51100000000E-03 0. -1.
         11   -1    0    0    0    0 -0.00000000000E+00 -0.00000000000E+00 -0.45593999997E+02  0.45594000000E+02  0.51100000000E-03 0.  1.
    9900012    2    1    2    0    0 -0.35081030129E+02 -0.17631220799E+02 -0.10565286719E+02  0.50528881647E+02  0.30000066255E+02 0.  0.
         12    1    1    2    0    0  0.35081030129E+02  0.17631220799E+02  0.10565286719E+02  0.40659118353E+02  0.00000000000E+00 0. -1.
         11    1    3    3    0    0 -0.48094450762E+01 -0.13764957810E+01  0.31727190605E+01  0.59238204796E+01  0.51100000000E-03 0. -1.
        -11    1    3    3    0    0 -0.23016492843E+02 -0.22978191440E+02 -0.11139386963E+02  0.34377931392E+02  0.51100000000E-03 0.  1.
        -12    1    3    3    0    0 -0.72550922096E+01  0.67234664215E+01 -0.25986188163E+01  0.10227129775E+02  0.00000000000E+00 0.  1.
</event>
<event>
 7    1  0.2942034E-011  0.5052886E+02  0.7816164E-02  0.1300439E+00
        -11   -1    0    0    0    0  0.00000000000E+00  0.00000000000E+00  0.45593999997E+02  0.45594000000E+02  0.51100000000E-03 0.  1.
         11   -1    0    0    0    0 -0.00000000000E+00 -0.00000000000E+00 -0.45593999997E+02  0.45594000000E+02  0.51100000000E-03 0. -1.
    9900012    2    1    2    0    0  0.88096879533E+01  0.26318244846E+01  0.39605914796E+02  0.50528860944E+02  0.30000003324E+02 0.  0.
         12    1    1    2    0    0 -0.88096879533E+01 -0.26318244846E+01 -0.39605914796E+02  0.40659139056E+02  0.00000000000E+00 0. -1.
         11    1    3    3    0    0 -0.92430289577E+01  0.39269781535E+01  0.75082663642E+01  0.12539091107E+02  0.51100000000E-03 0. -1.
        -11    1    3    3    0    0  0.65120093045E+01  0.28165935024E+01  0.17795378274E+02  0.19157634309E+02  0.51100000000E-03 0.  1.
         12    1    3    3    0    0  0.11540707606E+02 -0.41117471713E+01  0.14302270158E+02  0.18832135528E+02  0.00000000000E+00 0. -1.
</event>
<event>
 7    1  0.2942034E-011  0.5052885E+02  0.7816164E-02  0.1300439E+00
        -11   -1    0    0    0    0  0.00000000000E+00  0.00000000000E+00  0.45593999997E+02  0.45594000000E+02  0.51100000000E-03 0.  1.
         11   -1    0    0    0    0 -0.00000000000E+00 -0.00000000000E+00 -0.45593999997E+02  0.45594000000E+02  0.51100000000E-03 0. -1.
    9900012    2    1    2    0    0  0.77162450971E+01 -0.36876980627E+02  0.15287708254E+02  0.50528853892E+02  0.29999981890E+02 0.  0.
         12    1    1    2    0    0 -0.77162450971E+01  0.36876980627E+02 -0.15287708254E+02  0.40659146108E+02  0.00000000000E+00 0. -1.
         11    1    3    3    0    0  0.12465359396E+02 -0.19707097423E+02  0.97422075450E+01  0.25271831786E+02  0.51100000000E-03 0. -1.
        -11    1    3    3    0    0 -0.78509183023E+01 -0.14807977741E+01  0.46391758710E+01  0.92385947666E+01  0.51100000000E-03 0.  1.
        -12    1    3    3    0    0  0.31018040037E+01 -0.15689085431E+02  0.90632483773E+00  0.16018427340E+02  0.00000000000E+00 0.  1.
</event>
<event>
 7    1  0.2942034E-011  0.5052877E+02  0.7816164E-02  0.1300439E+00
        -11   -1    0    0    0    0  0.00000000000E+00  0.00000000000E+00  0.45593999997E+02  0.45594000000E+02  0.51100000000E-03 0. -1.
         11   -1    0    0    0    0 -0.00000000000E+00 -0.00000000000E+00 -0.45593999997E+02  0.45594000000E+02  0.51100000000E-03 0.  1.
    9900012    2    1    2    0    0  0.50775927467E+00  0.20675425425E+02  0.35006315290E+02  0.50528768008E+02  0.29999720837E+02 0.  0.
         12    1    1    2    0    0 -0.50775927467E+00 -0.20675425425E+02 -0.35006315290E+02  0.40659231992E+02  0.00000000000E+00 0. -1.
         11    1    3    3    0    0  0.80030382238E+01  0.83883241570E+01  0.28466987725E+02  0.30737306216E+02  0.51100000000E-03 0. -1.
        -11    1    3    3    0    0 -0.67930233933E-01  0.10907491658E+02  0.53320846619E+01  0.12141215585E+02  0.51100000000E-03 0.  1.
         12    1    3    3    0    0 -0.74273487152E+01  0.13796096110E+01  0.12072429023E+01  0.76502462078E+01  0.00000000000E+00 0. -1.
</event>
<event>
 7    1  0.2942034E-011  0.5052886E+02  0.7816164E-02  0.1300439E+00
        -11   -1    0    0    0    0  0.00000000000E+00  0.00000000000E+00  0.45593999997E+02  0.45594000000E+02  0.51100000000E-03 0.  1.
         11   -1    0    0    0    0 -0.00000000000E+00 -0.00000000000E+00 -0.45593999997E+02  0.45594000000E+02  0.51100000000E-03 0. -1.
    9900012    2    1    2    0    0 -0.23850604430E+01  0.40402226472E+01  0.40387544675E+02  0.50528859856E+02  0.30000000018E+02 0.  0.
         12    1    1    2    0    0  0.23850604430E+01 -0.40402226472E+01 -0.40387544675E+02  0.40659140144E+02  0.00000000000E+00 0. -1.
         11    1    3    3    0    0 -0.66190326893E+01  0.39060802500E+01 -0.16803402798E+01  0.78671850352E+01  0.51100000000E-03 0. -1.
        -11    1    3    3    0    0  0.24159919398E+01 -0.27620923479E+01  0.22481920002E+02  0.22779440257E+02  0.51100000000E-03 0.  1.
         12    1    3    3    0    0  0.18179803065E+01  0.28962347450E+01  0.19585964953E+02  0.19882234563E+02  0.00000000000E+00 0. -1.
</event>
<event>
 7    1  0.2942034E-011  0.5052886E+02  0.7816164E-02  0.1300439E+00
        -11   -1    0    0    0    0  0.00000000000E+00  0.00000000000E+00  0.45593999997E+02  0.45594000000E+02  0.51100000000E-03 0.  1.
         11   -1    0    0    0    0 -0.00000000000E+00 -0.00000000000E+00 -0.45593999997E+02  0.45594000000E+02  0.51100000000E-03 0. -1.
    9900012    2    1    2    0    0  0.38123181801E+02  0.11014550224E+02  0.88582564138E+01  0.50528855716E+02  0.29999987433E+02 0.  0.
         12    1    1    2    0    0 -0.38123181801E+02 -0.11014550224E+02 -0.88582564138E+01  0.40659144284E+02  0.00000000000E+00 0. -1.
         11    1    3    3    0    0  0.99325335717E+01 -0.23924081796E+01  0.11478363054E+02  0.15366576024E+02  0.51100000000E-03 0.  1.
        -11    1    3    3    0    0  0.14844382286E+02 -0.27225994156E+00 -0.55046055153E+01  0.15834471670E+02  0.51100000000E-03 0. -1.
         12    1    3    3    0    0  0.13346265944E+02  0.13679218345E+02  0.28844988750E+01  0.19327808022E+02  0.00000000000E+00 0. -1.
</event>
<event>
 7    1  0.2942034E-011  0.5052885E+02  0.7816164E-02  0.1300439E+00
        -11   -1    0    0    0    0  0.00000000000E+00  0.00000000000E+00  0.45593999997E+02  0.45594000000E+02  0.51100000000E-03 0.  1.
         11   -1    0    0    0    0 -0.00000000000E+00 -0.00000000000E+00 -0.45593999997E+02  0.45594000000E+02  0.51100000000E-03 0. -1.
    9900012    2    1    2    0    0  0.37527877077E+02  0.76198084346E+01 -0.13666136660E+02  0.50528851833E+02  0.29999975630E+02 0.  0.
         12    1    1    2    0    0 -0.37527877077E+02 -0.76198084346E+01  0.13666136660E+02  0.40659148167E+02  0.00000000000E+00 0. -1.
         11    1    3    3    0    0  0.68895191538E+01 -0.12874283724E+01 -0.10316141283E+02  0.12471796872E+02  0.51100000000E-03 0. -1.
        -11    1    3    3    0    0  0.31405604205E+02  0.10798446183E+02 -0.69398791882E+01  0.33927574904E+02  0.51100000000E-03 0.  1.
        -12    1    3    3    0    0 -0.76724628152E+00 -0.18912093762E+01  0.35898838111E+01  0.41294800567E+01  0.00000000000E+00 0.  1.
</event>
<event>
 7    1  0.2942034E-011  0.5052886E+02  0.7816164E-02  0.1300439E+00
        -11   -1    0    0    0    0  0.00000000000E+00  0.00000000000E+00  0.45593999997E+02  0.45594000000E+02  0.51100000000E-03 0.  1.
         11   -1    0    0    0    0 -0.00000000000E+00 -0.00000000000E+00 -0.45593999997E+02  0.45594000000E+02  0.51100000000E-03 0. -1.
    9900012    2    1    2    0    0 -0.30268568421E+02  0.74395207546E+01  0.26108100283E+02  0.50528860760E+02  0.30000002767E+02 0.  0.
         12    1    1    2    0    0  0.30268568421E+02 -0.74395207546E+01 -0.26108100283E+02  0.40659139240E+02  0.00000000000E+00 0. -1.
         11    1    3    3    0    0 -0.23630403048E+02  0.11079153329E+02  0.92019655820E+01  0.27673448603E+02  0.51100000000E-03 0. -1.
        -11    1    3    3    0    0 -0.11323636432E+01  0.67107788041E+00  0.15705439837E+02  0.15760502329E+02  0.51100000000E-03 0.  1.
         12    1    3    3    0    0 -0.55058017295E+01 -0.43107104553E+01  0.12006948640E+01  0.70949098282E+01  0.00000000000E+00 0. -1.
</event>
<event>
 7    1  0.2942034E-011  0.5052886E+02  0.7816164E-02  0.1300439E+00
        -11   -1    0    0    0    0  0.00000000000E+00  0.00000000000E+00  0.45593999997E+02  0.45594000000E+02  0.51100000000E-03 0.  1.
         11   -1    0    0    0    0 -0.00000000000E+00 -0.00000000000E+00 -0.45593999997E+02  0.45594000000E+02  0.51100000000E-03 0. -1.
    9900012    2    1    2    0    0 -0.39525115600E+02 -0.70290693472E+01  0.64438370939E+01  0.50528860615E+02  0.30000002324E+02 0.  0.
         12    1    1    2    0    0  0.39525115600E+02  0.70290693472E+01 -0.64438370939E+01  0.40659139385E+02  0.00000000000E+00 0. -1.
         11    1    3    3    0    0 -0.21668321910E+02  0.56692596380E+01  0.95314994924E+01  0.24341449465E+02  0.51100000000E-03 0. -1.
        -11    1    3    3    0    0 -0.19904444608E+02 -0.11743113255E+02 -0.10330086524E+01  0.23133411577E+02  0.51100000000E-03 0.  1.
        -12    1    3    3    0    0  0.20476509176E+01 -0.95521573011E+00 -0.20546537461E+01  0.30539995724E+01  0.00000000000E+00 0.  1.
</event>
<event>
 7    1  0.2942034E-011  0.5052887E+02  0.7816164E-02  0.1300439E+00
        -11   -1    0    0    0    0  0.00000000000E+00  0.00000000000E+00  0.45593999997E+02  0.45594000000E+02  0.51100000000E-03 0.  1.
         11   -1    0    0    0    0 -0.00000000000E+00 -0.00000000000E+00 -0.45593999997E+02  0.45594000000E+02  0.51100000000E-03 0. -1.
    9900012    2    1    2    0    0  0.46187389602E+01 -0.35769729679E+02  0.18771222456E+02  0.50528866913E+02  0.30000021469E+02 0.  0.
         12    1    1    2    0    0 -0.46187389602E+01  0.35769729679E+02 -0.18771222456E+02  0.40659133087E+02  0.00000000000E+00 0. -1.
         11    1    3    3    0    0 -0.33944413648E+01 -0.86201529047E+01  0.15696733674E+02  0.18226813122E+02  0.51100000000E-03 0. -1.
        -11    1    3    3    0    0  0.86026232223E+01 -0.27591861781E+02  0.58005296712E+01  0.29478163233E+02  0.51100000000E-03 0.  1.
         12    1    3    3    0    0 -0.58944289724E+00  0.44228500698E+00 -0.27260408892E+01  0.28238905584E+01  0.00000000000E+00 0. -1.
</event>
<event>
 7    1  0.2942034E-011  0.5052885E+02  0.7816164E-02  0.1300439E+00
        -11   -1    0    0    0    0  0.00000000000E+00  0.00000000000E+00  0.45593999997E+02  0.45594000000E+02  0.51100000000E-03 0.  1.
         11   -1    0    0    0    0 -0.00000000000E+00 -0.00000000000E+00 -0.45593999997E+02  0.45594000000E+02  0.51100000000E-03 0. -1.
    9900012    2    1    2    0    0 -0.39018288930E+02 -0.11395029509E+02  0.94480967218E+00  0.50528853011E+02  0.29999979213E+02 0.  0.
         12    1    1    2    0    0  0.39018288930E+02  0.11395029509E+02 -0.94480967218E+00  0.40659146989E+02  0.00000000000E+00 0. -1.
         11    1    3    3    0    0 -0.21488381264E+02  0.47943241526E+01  0.86619565236E+01  0.23659365260E+02  0.51100000000E-03 0. -1.
        -11    1    3    3    0    0 -0.53573029934E+01 -0.97720325496E+01 -0.10702024931E+00  0.11144719337E+02  0.51100000000E-03 0.  1.
         12    1    3    3    0    0 -0.12172604673E+02 -0.64173211119E+01 -0.76101266021E+01  0.15724768414E+02  0.00000000000E+00 0. -1.
</event>
<event>
 7    1  0.2942034E-011  0.5052889E+02  0.7816164E-02  0.1300439E+00
        -11   -1    0    0    0    0  0.00000000000E+00  0.00000000000E+00  0.45593999997E+02  0.45594000000E+02  0.51100000000E-03 0.  1.
         11   -1    0    0    0    0 -0.00000000000E+00 -0.00000000000E+00 -0.45593999997E+02  0.45594000000E+02  0.51100000000E-03 0. -1.
    9900012    2    1    2    0    0 -0.43305178479E+01  0.35365289908E+02 -0.19588417822E+02  0.50528889977E+02  0.30000091575E+02 0.  0.
         12    1    1    2    0    0  0.43305178479E+01 -0.35365289908E+02  0.19588417822E+02  0.40659110023E+02  0.00000000000E+00 0. -1.
         11    1    3    3    0    0  0.14081803925E+01  0.22029066795E+01 -0.13085753192E+02  0.13344388586E+02  0.51100000000E-03 0. -1.
        -11    1    3    3    0    0 -0.56752612330E+01  0.34654036803E+02 -0.63284489596E+01  0.35681369415E+02  0.51100000000E-03 0.  1.
        -12    1    3    3    0    0 -0.63437007424E-01 -0.14916535749E+01 -0.17421566986E+00  0.15031319772E+01  0.00000000000E+00 0.  1.
</event>
<event>
 7    1  0.2942034E-011  0.5052887E+02  0.7816164E-02  0.1300439E+00
        -11   -1    0    0    0    0  0.00000000000E+00  0.00000000000E+00  0.45593999997E+02  0.45594000000E+02  0.51100000000E-03 0.  1.
         11   -1    0    0    0    0 -0.00000000000E+00 -0.00000000000E+00 -0.45593999997E+02  0.45594000000E+02  0.51100000000E-03 0. -1.
    9900012    2    1    2    0    0  0.14001946196E+02 -0.27365951818E+01  0.38073896235E+02  0.50528867877E+02  0.30000024398E+02 0.  0.
         12    1    1    2    0    0 -0.14001946196E+02  0.27365951818E+01 -0.38073896235E+02  0.40659132123E+02  0.00000000000E+00 0. -1.
         11    1    3    3    0    0  0.13081462653E+02  0.21729277024E+01  0.35594255232E+01  0.13730105253E+02  0.51100000000E-03 0. -1.
        -11    1    3    3    0    0 -0.32647216596E+01 -0.21435221762E+01  0.29313927255E+02  0.29572950921E+02  0.51100000000E-03 0.  1.
        -12    1    3    3    0    0  0.41852052030E+01 -0.27660007079E+01  0.52005434575E+01  0.72258117026E+01  0.00000000000E+00 0.  1.
</event>
<event>
 7    1  0.2942034E-011  0.5052887E+02  0.7816164E-02  0.1300439E+00
        -11   -1    0    0    0    0  0.00000000000E+00  0.00000000000E+00  0.45593999997E+02  0.45594000000E+02  0.51100000000E-03 0.  1.
         11   -1    0    0    0    0 -0.00000000000E+00 -0.00000000000E+00 -0.45593999997E+02  0.45594000000E+02  0.51100000000E-03 0. -1.
    9900012    2    1    2    0    0  0.40524187144E+02  0.32614616991E+01  0.56408665269E+00  0.50528867325E+02  0.30000022722E+02 0.  0.
         12    1    1    2    0    0 -0.40524187144E+02 -0.32614616991E+01 -0.56408665269E+00  0.40659132675E+02  0.00000000000E+00 0. -1.
         11    1    3    3    0    0  0.16339173679E+02 -0.59809611517E+01 -0.11582460704E+02  0.20902006818E+02  0.51100000000E-03 0. -1.
        -11    1    3    3    0    0  0.21973687764E+02  0.56105451803E+01  0.93088234130E+01  0.24514798893E+02  0.51100000000E-03 0.  1.
         12    1    3    3    0    0  0.22113257013E+01  0.36318776705E+01  0.28377239435E+01  0.51120616145E+01  0.00000000000E+00 0. -1.
</event>
<event>
 7    1  0.2942034E-011  0.5052886E+02  0.7816164E-02  0.1300439E+00
        -11   -1    0    0    0    0  0.00000000000E+00  0.00000000000E+00  0.45593999997E+02  0.45594000000E+02  0.51100000000E-03 0. -1.
         11   -1    0    0    0    0 -0.00000000000E+00 -0.00000000000E+00 -0.45593999997E+02  0.45594000000E+02  0.51100000000E-03 0.  1.
    9900012    2    1    2    0    0  0.30885421599E+02  0.58834994880E+01 -0.25780626518E+02  0.50528861577E+02  0.30000005251E+02 0.  0.
         12    1    1    2    0    0 -0.30885421599E+02 -0.58834994880E+01  0.25780626518E+02  0.40659138423E+02  0.00000000000E+00 0. -1.
         11    1    3    3    0    0  0.26991987092E+01 -0.39593796353E+01 -0.54083922291E+01  0.72258610236E+01  0.51100000000E-03 0. -1.
        -11    1    3    3    0    0 -0.59167706893E+00  0.90617861408E+01 -0.25035769380E+01  0.94198698272E+01  0.51100000000E-03 0.  1.
        -12    1    3    3    0    0  0.28777899959E+02  0.78109298258E+00 -0.17868657351E+02  0.33883130727E+02  0.00000000000E+00 0.  1.
</event>
<event>
 7    1  0.2942034E-011  0.5052885E+02  0.7816164E-02  0.1300439E+00
        -11   -1    0    0    0    0  0.00000000000E+00  0.00000000000E+00  0.45593999997E+02  0.45594000000E+02  0.51100000000E-03 0. -1.
         11   -1    0    0    0    0 -0.00000000000E+00 -0.00000000000E+00 -0.45593999997E+02  0.45594000000E+02  0.51100000000E-03 0.  1.
    9900012    2    1    2    0    0 -0.36265245580E+02  0.16147970802E+02 -0.87887024916E+01  0.50528852327E+02  0.29999977134E+02 0.  0.
         12    1    1    2    0    0  0.36265245580E+02 -0.16147970802E+02  0.87887024916E+01  0.40659147673E+02  0.00000000000E+00 0. -1.
         11    1    3    3    0    0 -0.11557908176E+01  0.11525113234E+01 -0.89031561555E+01  0.90515371377E+01  0.51100000000E-03 0. -1.
        -11    1    3    3    0    0 -0.32361876494E+02  0.18293842345E+02  0.37520752791E+00  0.37176558459E+02  0.51100000000E-03 0.  1.
        -12    1    3    3    0    0 -0.27475782686E+01 -0.32983828666E+01 -0.26075386410E+00  0.43007567305E+01  0.00000000000E+00 0.  1.
</event>
<event>
 7    1  0.2942034E-011  0.5052886E+02  0.7816164E-02  0.1300439E+00
        -11   -1    0    0    0    0  0.00000000000E+00  0.00000000000E+00  0.45593999997E+02  0.45594000000E+02  0.51100000000E-03 0.  1.
         11   -1    0    0    0    0 -0.00000000000E+00 -0.00000000000E+00 -0.45593999997E+02  0.45594000000E+02  0.51100000000E-03 0. -1.
    9900012    2    1    2    0    0  0.31705021895E+02 -0.13677624189E+02  0.21468114106E+02  0.50528859083E+02  0.29999997670E+02 0.  0.
         12    1    1    2    0    0 -0.31705021895E+02  0.13677624189E+02 -0.21468114106E+02  0.40659140917E+02  0.00000000000E+00 0. -1.
         11    1    3    3    0    0  0.11039019348E+02 -0.17096343858E+02  0.83252896047E+01  0.21987618533E+02  0.51100000000E-03 0. -1.
        -11    1    3    3    0    0  0.20554369606E+02 -0.46320667902E+00  0.13570199261E+02  0.24634264319E+02  0.51100000000E-03 0.  1.
        -12    1    3    3    0    0  0.11163294185E+00  0.38819263484E+01 -0.42737475968E+00  0.39069762315E+01  0.00000000000E+00 0.  1.
</event>
<event>
 7    1  0.2942034E-011  0.5052886E+02  0.7816164E-02  0.1300439E+00
        -11   -1    0    0    0    0  0.00000000000E+00  0.00000000000E+00  0.45593999997E+02  0.45594000000E+02  0.51100000000E-03 0.  1.
         11   -1    0    0    0    0 -0.00000000000E+00 -0.00000000000E+00 -0.45593999997E+02  0.45594000000E+02  0.51100000000E-03 0. -1.
    9900012    2    1    2    0    0  0.32842031959E+02  0.23181788801E+02 -0.60968104969E+01  0.50528862116E+02  0.30000006888E+02 0.  0.
         12    1    1    2    0    0 -0.32842031959E+02 -0.23181788801E+02  0.60968104969E+01  0.40659137884E+02  0.00000000000E+00 0. -1.
         11    1    3    3    0    0  0.17070130460E+02  0.23547264327E+02 -0.12271272661E+02  0.31566551035E+02  0.51100000000E-03 0. -1.
        -11    1    3    3    0    0  0.77801993908E+00  0.17807625713E+01  0.28591036177E+01  0.34570079720E+01  0.51100000000E-03 0.  1.
         12    1    3    3    0    0  0.14993881560E+02 -0.21462380981E+01  0.33153585469E+01  0.15505303109E+02  0.00000000000E+00 0. -1.
</event>
<event>
 7    1  0.2942034E-011  0.5052886E+02  0.7816164E-02  0.1300439E+00
        -11   -1    0    0    0    0  0.00000000000E+00  0.00000000000E+00  0.45593999997E+02  0.45594000000E+02  0.51100000000E-03 0.  1.
         11   -1    0    0    0    0 -0.00000000000E+00 -0.00000000000E+00 -0.45593999997E+02  0.45594000000E+02  0.51100000000E-03 0. -1.
    9900012    2    1    2    0    0  0.26936982485E+02  0.46681505154E+01  0.30096065303E+02  0.50528858330E+02  0.29999995379E+02 0.  0.
         12    1    1    2    0    0 -0.26936982485E+02 -0.46681505154E+01 -0.30096065303E+02  0.40659141670E+02  0.00000000000E+00 0. -1.
         11    1    3    3    0    0  0.36303113032E+00  0.13648058749E+01 -0.79917514748E+00  0.16227038717E+01  0.51100000000E-03 0. -1.
        -11    1    3    3    0    0  0.89649425377E+01 -0.24889677829E+01  0.28782514873E+02  0.30248939122E+02  0.51100000000E-03 0.  1.
        -12    1    3    3    0    0  0.17609008817E+02  0.57923124234E+01  0.21127255775E+01  0.18657215336E+02  0.00000000000E+00 0.  1.
</event>
<event>
 7    1  0.2942034E-011  0.5052886E+02  0.7816164E-02  0.1300439E+00
        -11   -1    0    0    0    0  0.00000000000E+00  0.00000000000E+00  0.45593999997E+02  0.45594000000E+02  0.51100000000E-03 0.  1.
         11   -1    0    0    0    0 -0.00000000000E+00 -0.00000000000E+00 -0.45593999997E+02  0.45594000000E+02  0.51100000000E-03 0. -1.
    9900012    2    1    2    0    0  0.10909149954E+02 -0.13675350769E+02  0.36703420064E+02  0.50528858153E+02  0.29999994841E+02 0.  0.
         12    1    1    2    0    0 -0.10909149954E+02  0.13675350769E+02 -0.36703420064E+02  0.40659141847E+02  0.00000000000E+00 0. -1.
         11    1    3    3    0    0  0.40138096599E+01  0.33450866359E+01 -0.87145591837E+00  0.52971415184E+01  0.51100000000E-03 0. -1.
        -11    1    3    3    0    0  0.12717996298E+02 -0.12072349211E+02  0.26519932649E+02  0.31793016109E+02  0.51100000000E-03 0.  1.
        -12    1    3    3    0    0 -0.58226560044E+01 -0.49480881935E+01  0.11054943333E+02  0.13438700525E+02  0.00000000000E+00 0.  1.
</event>
<event>
 7    1  0.2942034E-011  0.5052882E+02  0.7816164E-02  0.1300439E+00
        -11   -1    0    0    0    0  0.00000000000E+00  0.00000000000E+00  0.45593999997E+02  0.45594000000E+02  0.51100000000E-03 0.  1.
         11   -1    0    0    0    0 -0.00000000000E+00 -0.00000000000E+00 -0.45593999997E+02  0.45594000000E+02  0.51100000000E-03 0. -1.
    9900012    2    1    2    0    0 -0.61808871717E+01  0.36992675952E+02  0.15700569458E+02  0.50528815040E+02  0.29999863794E+02 0.  0.
         12    1    1    2    0    0  0.61808871717E+01 -0.36992675952E+02 -0.15700569458E+02  0.40659184960E+02  0.00000000000E+00 0. -1.
         11    1    3    3    0    0 -0.11475624116E+02  0.61945064986E+01 -0.12541958772E+01  0.13100949094E+02  0.51100000000E-03 0. -1.
        -11    1    3    3    0    0 -0.12436074742E+01 -0.21350144782E-01  0.24419928025E+01  0.27405007731E+01  0.51100000000E-03 0.  1.
         12    1    3    3    0    0  0.65383444185E+01  0.30819519599E+02  0.14512772532E+02  0.34687365172E+02  0.00000000000E+00 0. -1.
</event>
<event>
 7    1  0.2942034E-011  0.5052885E+02  0.7816164E-02  0.1300439E+00
        -11   -1    0    0    0    0  0.00000000000E+00  0.00000000000E+00  0.45593999997E+02  0.45594000000E+02  0.51100000000E-03 0. -1.
         11   -1    0    0    0    0 -0.00000000000E+00 -0.00000000000E+00 -0.45593999997E+02  0.45594000000E+02  0.51100000000E-03 0.  1.
    9900012    2    1    2    0    0  0.23691882851E+01 -0.38330370485E+02 -0.13354250381E+02  0.50528851487E+02  0.29999974578E+02 0.  0.
         12    1    1    2    0    0 -0.23691882851E+01  0.38330370485E+02  0.13354250381E+02  0.40659148513E+02  0.00000000000E+00 0. -1.
         11    1    3    3    0    0  0.12267265680E+02 -0.70906382697E+01 -0.20016552581E+01  0.14309772268E+02  0.51100000000E-03 0. -1.
        -11    1    3    3    0    0 -0.13806653669E+01 -0.20023364594E+02 -0.87570578085E+01  0.21898114719E+02  0.51100000000E-03 0.  1.
         12    1    3    3    0    0 -0.85174120276E+01 -0.11216367620E+02 -0.25955373139E+01  0.14320964499E+02  0.00000000000E+00 0. -1.
</event>
<event>
 7    1  0.2942034E-011  0.5052886E+02  0.7816164E-02  0.1300439E+00
        -11   -1    0    0    0    0  0.00000000000E+00  0.00000000000E+00  0.45593999997E+02  0.45594000000E+02  0.51100000000E-03 0.  1.
         11   -1    0    0    0    0 -0.00000000000E+00 -0.00000000000E+00 -0.45593999997E+02  0.45594000000E+02  0.51100000000E-03 0. -1.
    9900012    2    1    2    0    0  0.11079301239E+02 -0.38462194415E+02  0.71466070849E+01  0.50528864397E+02  0.30000013820E+02 0.  0.
         12    1    1    2    0    0 -0.11079301239E+02  0.38462194415E+02 -0.71466070849E+01  0.40659135603E+02  0.00000000000E+00 0. -1.
         11    1    3    3    0    0  0.12084603967E+02 -0.19686994158E+02  0.88807377707E+01  0.24748391778E+02  0.51100000000E-03 0. -1.
        -11    1    3    3    0    0 -0.84592289880E+01 -0.14866307985E+02  0.35561434356E+00  0.17108247426E+02  0.51100000000E-03 0.  1.
        -12    1    3    3    0    0  0.74539262607E+01 -0.39088922724E+01 -0.20897450293E+01  0.86722251922E+01  0.00000000000E+00 0.  1.
</event>
<event>
 7    1  0.2942034E-011  0.5052886E+02  0.7816164E-02  0.1300439E+00
        -11   -1    0    0    0    0  0.00000000000E+00  0.00000000000E+00  0.45593999997E+02  0.45594000000E+02  0.51100000000E-03 0.  1.
         11   -1    0    0    0    0 -0.00000000000E+00 -0.00000000000E+00 -0.45593999997E+02  0.45594000000E+02  0.51100000000E-03 0. -1.
    9900012    2    1    2    0    0  0.23177241962E+02 -0.18894206386E+02  0.27549768329E+02  0.50528864312E+02  0.30000013562E+02 0.  0.
         12    1    1    2    0    0 -0.23177241962E+02  0.18894206386E+02 -0.27549768329E+02  0.40659135688E+02  0.00000000000E+00 0. -1.
         11    1    3    3    0    0  0.24757044406E+02 -0.23519620355E+02  0.21321246350E+02  0.40257661824E+02  0.51100000000E-03 0.  1.
        -11    1    3    3    0    0  0.22482433521E+01  0.27380116833E+01  0.43443247553E+01  0.56057527585E+01  0.51100000000E-03 0. -1.
         12    1    3    3    0    0 -0.38280457955E+01  0.18874022860E+01  0.18841972242E+01  0.46654497298E+01  0.00000000000E+00 0. -1.
</event>
<event>
 7    1  0.2942034E-011  0.5052889E+02  0.7816164E-02  0.1300439E+00
        -11   -1    0    0    0    0  0.00000000000E+00  0.00000000000E+00  0.45593999997E+02  0.45594000000E+02  0.51100000000E-03 0. -1.
         11   -1    0    0    0    0 -0.00000000000E+00 -0.00000000000E+00 -0.45593999997E+02  0.45594000000E+02  0.51100000000E-03 0.  1.
    9900012    2    1    2    0    0 -0.38015158895E+02 -0.11708310055E+02  0.84217629007E+01  0.50528893756E+02  0.30000103062E+02 0.  0.
         12    1    1    2    0    0  0.38015158895E+02  0.11708310055E+02 -0.84217629007E+01  0.40659106244E+02  0.00000000000E+00 0. -1.
         11    1    3    3    0    0  0.83832692699E+00 -0.27661516812E+01 -0.53284872132E+01  0.60619438633E+01  0.51100000000E-03 0. -1.
        -11    1    3    3    0    0 -0.39129524740E+02 -0.10543308656E+02  0.12475755665E+02  0.42401952118E+02  0.51100000000E-03 0.  1.
        -12    1    3    3    0    0  0.27603891765E+00  0.16011502816E+01  0.12744944493E+01  0.20649977748E+01  0.00000000000E+00 0.  1.
</event>
<event>
 7    1  0.2942034E-011  0.5052886E+02  0.7816164E-02  0.1300439E+00
        -11   -1    0    0    0    0  0.00000000000E+00  0.00000000000E+00  0.45593999997E+02  0.45594000000E+02  0.51100000000E-03 0.  1.
         11   -1    0    0    0    0 -0.00000000000E+00 -0.00000000000E+00 -0.45593999997E+02  0.45594000000E+02  0.51100000000E-03 0. -1.
    9900012    2    1    2    0    0  0.32105282184E+01  0.72414168146E+01  0.39880071495E+02  0.50528859436E+02  0.29999998742E+02 0.  0.
         12    1    1    2    0    0 -0.32105282184E+01 -0.72414168146E+01 -0.39880071495E+02  0.40659140564E+02  0.00000000000E+00 0. -1.
         11    1    3    3    0    0  0.78590189272E+01  0.34880547864E+01  0.10439886758E+02  0.13524863787E+02  0.51100000000E-03 0. -1.
        -11    1    3    3    0    0 -0.10484345457E+02  0.89333315202E+01  0.23332059038E+02  0.27094480821E+02  0.51100000000E-03 0.  1.
        -12    1    3    3    0    0  0.58358547480E+01 -0.51799694920E+01  0.61081256990E+01  0.99095148283E+01  0.00000000000E+00 0.  1.
</event>
<event>
 7    1  0.2942034E-011  0.5052886E+02  0.7816164E-02  0.1300439E+00
        -11   -1    0    0    0    0  0.00000000000E+00  0.00000000000E+00  0.45593999997E+02  0.45594000000E+02  0.51100000000E-03 0. -1.
         11   -1    0    0    0    0 -0.00000000000E+00 -0.00000000000E+00 -0.45593999997E+02  0.45594000000E+02  0.51100000000E-03 0.  1.
    9900012    2    1    2    0    0  0.19927245991E+02 -0.28812457418E+02 -0.20637656331E+02  0.50528859649E+02  0.29999999390E+02 0.  0.
         12    1    1    2    0    0 -0.19927245991E+02  0.28812457418E+02  0.20637656331E+02  0.40659140351E+02  0.00000000000E+00 0. -1.
         11    1    3    3    0    0  0.88186615442E+01  0.10588666334E+01 -0.19978808538E+01  0.91039287203E+01  0.51100000000E-03 0. -1.
        -11    1    3    3    0    0  0.90192307556E+01 -0.31193454970E+02 -0.12479052089E+02  0.34786562027E+02  0.51100000000E-03 0.  1.
        -12    1    3    3    0    0  0.20893536909E+01  0.13221309183E+01 -0.61607233882E+01  0.66383689018E+01  0.00000000000E+00 0.  1.
</event>
<event>
 7    1  0.2942034E-011  0.5052883E+02  0.7816164E-02  0.1300439E+00
        -11   -1    0    0    0    0  0.00000000000E+00  0.00000000000E+00  0.45593999997E+02  0.45594000000E+02  0.51100000000E-03 0.  1.
         11   -1    0    0    0    0 -0.00000000000E+00 -0.00000000000E+00 -0.45593999997E+02  0.45594000000E+02  0.51100000000E-03 0. -1.
    9900012    2    1    2    0    0  0.20589441978E+02  0.24682372535E+02  0.24900270261E+02  0.50528830137E+02  0.29999909683E+02 0.  0.
         12    1    1    2    0    0 -0.20589441978E+02 -0.24682372535E+02 -0.24900270261E+02  0.40659169863E+02  0.00000000000E+00 0. -1.
         11    1    3    3    0    0  0.25592573232E+01  0.22971062069E+01 -0.20981762315E+01  0.40285032868E+01  0.51100000000E-03 0. -1.
        -11    1    3    3    0    0  0.18730649511E+02  0.98219065009E+01  0.26503325030E+02  0.33907717651E+02  0.51100000000E-03 0.  1.
        -12    1    3    3    0    0 -0.70046485626E+00  0.12563359827E+02  0.49512146249E+00  0.12592609199E+02  0.00000000000E+00 0.  1.
</event>
<event>
 7    1  0.2942034E-011  0.5052886E+02  0.7816164E-02  0.1300439E+00
        -11   -1    0    0    0    0  0.00000000000E+00  0.00000000000E+00  0.45593999997E+02  0.45594000000E+02  0.51100000000E-03 0. -1.
         11   -1    0    0    0    0 -0.00000000000E+00 -0.00000000000E+00 -0.45593999997E+02  0.45594000000E+02  0.51100000000E-03 0.  1.
    9900012    2    1    2    0    0 -0.17013133742E+02 -0.11119155262E+02 -0.35214811748E+02  0.50528864497E+02  0.30000014124E+02 0.  0.
         12    1    1    2    0    0  0.17013133742E+02  0.11119155262E+02  0.35214811748E+02  0.40659135503E+02  0.00000000000E+00 0. -1.
         11    1    3    3    0    0  0.10520310178E+01 -0.11644218525E+02 -0.13039416288E+02  0.17513451165E+02  0.51100000000E-03 0. -1.
        -11    1    3    3    0    0 -0.30821921802E+01  0.45863648499E+01 -0.14860576780E+02  0.15854696265E+02  0.51100000000E-03 0.  1.
         12    1    3    3    0    0 -0.14982972580E+02 -0.40613015865E+01 -0.73148186792E+01  0.17160717066E+02  0.00000000000E+00 0. -1.
</event>
<event>
 7    1  0.2942034E-011  0.5052886E+02  0.7816164E-02  0.1300439E+00
        -11   -1    0    0    0    0  0.00000000000E+00  0.00000000000E+00  0.45593999997E+02  0.45594000000E+02  0.51100000000E-03 0. -1.
         11   -1    0    0    0    0 -0.00000000000E+00 -0.00000000000E+00 -0.45593999997E+02  0.45594000000E+02  0.51100000000E-03 0.  1.
    9900012    2    1    2    0    0  0.14879381777E+02  0.27323948368E+02 -0.26175777885E+02  0.50528861982E+02  0.30000006481E+02 0.  0.
         12    1    1    2    0    0 -0.14879381777E+02 -0.27323948368E+02  0.26175777885E+02  0.40659138018E+02  0.00000000000E+00 0. -1.
         11    1    3    3    0    0  0.78150579766E+01 -0.29017996523E+01 -0.80586279427E+01  0.11594699521E+02  0.51100000000E-03 0. -1.
        -11    1    3    3    0    0  0.25054739224E+01  0.18967396984E+02 -0.18727694050E+02  0.26772487233E+02  0.51100000000E-03 0.  1.
         12    1    3    3    0    0  0.45588498780E+01  0.11258351036E+02  0.61054410787E+00  0.12161675228E+02  0.00000000000E+00 0. -1.
</event>
<event>
 7    1  0.2942034E-011  0.5052886E+02  0.7816164E-02  0.1300439E+00
        -11   -1    0    0    0    0  0.00000000000E+00  0.00000000000E+00  0.45593999997E+02  0.45594000000E+02  0.51100000000E-03 0. -1.
         11   -1    0    0    0    0 -0.00000000000E+00 -0.00000000000E+00 -0.45593999997E+02  0.45594000000E+02  0.51100000000E-03 0.  1.
    9900012    2    1    2    0    0  0.21514005092E+02 -0.16967655639E+02 -0.30040177005E+02  0.50528856041E+02  0.29999988422E+02 0.  0.
         12    1    1    2    0    0 -0.21514005092E+02  0.16967655639E+02  0.30040177005E+02  0.40659143959E+02  0.00000000000E+00 0. -1.
         11    1    3    3    0    0  0.13141382640E+02  0.88288468648E+00 -0.15995528464E+02  0.20720336730E+02  0.51100000000E-03 0. -1.
        -11    1    3    3    0    0  0.84553854247E+01 -0.20471422303E+02 -0.85899151045E+01  0.23756247927E+02  0.51100000000E-03 0.  1.
         12    1    3    3    0    0 -0.82762973133E-01  0.26208819775E+01 -0.54547334365E+01  0.60522713846E+01  0.00000000000E+00 0. -1.
</event>
<event>
 7    1  0.2942034E-011  0.5052885E+02  0.7816164E-02  0.1300439E+00
        -11   -1    0    0    0    0  0.00000000000E+00  0.00000000000E+00  0.45593999997E+02  0.45594000000E+02  0.51100000000E-03 0. -1.
         11   -1    0    0    0    0 -0.00000000000E+00 -0.00000000000E+00 -0.45593999997E+02  0.45594000000E+02  0.51100000000E-03 0.  1.
    9900012    2    1    2    0    0  0.16155948320E+02 -0.35315150873E+02  0.12041251883E+02  0.50528852269E+02  0.29999976957E+02 0.  0.
         12    1    1    2    0    0 -0.16155948320E+02  0.35315150873E+02 -0.12041251883E+02  0.40659147731E+02  0.00000000000E+00 0. -1.
         11    1    3    3    0    0  0.48281539113E+01 -0.24743112280E+02 -0.38176674592E+01  0.25497201035E+02  0.51100000000E-03 0. -1.
        -11    1    3    3    0    0  0.87361049059E+00 -0.58423858376E+01  0.11170757767E+02  0.12636553997E+02  0.51100000000E-03 0.  1.
        -12    1    3    3    0    0  0.10454183918E+02 -0.47296527550E+01  0.46881615753E+01  0.12395097238E+02  0.00000000000E+00 0.  1.
</event>
<event>
 7    1  0.2942034E-011  0.5052887E+02  0.7816164E-02  0.1300439E+00
        -11   -1    0    0    0    0  0.00000000000E+00  0.00000000000E+00  0.45593999997E+02  0.45594000000E+02  0.51100000000E-03 0.  1.
         11   -1    0    0    0    0 -0.00000000000E+00 -0.00000000000E+00 -0.45593999997E+02  0.45594000000E+02  0.51100000000E-03 0. -1.
    9900012    2    1    2    0    0 -0.27811322053E+02 -0.15357344421E+02  0.25374148575E+02  0.50528867226E+02  0.30000022420E+02 0.  0.
         12    1    1    2    0    0  0.27811322053E+02  0.15357344421E+02 -0.25374148575E+02  0.40659132774E+02  0.00000000000E+00 0. -1.
         11    1    3    3    0    0 -0.21700469965E+02 -0.81342117652E+01  0.36649569088E+01  0.23462900655E+02  0.51100000000E-03 0. -1.
        -11    1    3    3    0    0 -0.10132185060E+02 -0.63194965487E+01  0.17395329191E+02  0.21099637169E+02  0.51100000000E-03 0.  1.
         12    1    3    3    0    0  0.40213329717E+01 -0.90363610714E+00  0.43138624753E+01  0.59663294025E+01  0.00000000000E+00 0. -1.
</event>
<event>
 7    1  0.2942034E-011  0.5052886E+02  0.7816164E-02  0.1300439E+00
        -11   -1    0    0    0    0  0.00000000000E+00  0.00000000000E+00  0.45593999997E+02  0.45594000000E+02  0.51100000000E-03 0.  1.
         11   -1    0    0    0    0 -0.00000000000E+00 -0.00000000000E+00 -0.45593999997E+02  0.45594000000E+02  0.51100000000E-03 0. -1.
    9900012    2    1    2    0    0 -0.18366534050E+02  0.16136411363E+02  0.32487722561E+02  0.50528862505E+02  0.30000008069E+02 0.  0.
         12    1    1    2    0    0  0.18366534050E+02 -0.16136411363E+02 -0.32487722561E+02  0.40659137495E+02  0.00000000000E+00 0. -1.
         11    1    3    3    0    0  0.39136381734E+01  0.22312738972E+01  0.18195402030E+02  0.18744807341E+02  0.51100000000E-03 0. -1.
        -11    1    3    3    0    0 -0.82809954406E+01  0.11495607211E+02  0.65929368581E+01  0.15626601912E+02  0.51100000000E-03 0.  1.
         12    1    3    3    0    0 -0.13999176783E+02  0.24095302549E+01  0.76993836728E+01  0.16157453252E+02  0.00000000000E+00 0. -1.
</event>
<event>
 7    1  0.2942034E-011  0.5052886E+02  0.7816164E-02  0.1300439E+00
        -11   -1    0    0    0    0  0.00000000000E+00  0.00000000000E+00  0.45593999997E+02  0.45594000000E+02  0.51100000000E-03 0. -1.
         11   -1    0    0    0    0 -0.00000000000E+00 -0.00000000000E+00 -0.45593999997E+02  0.45594000000E+02  0.51100000000E-03 0.  1.
    9900012    2    1    2    0    0  0.30350248869E+02  0.26807796558E+02  0.36565688600E+01  0.50528855167E+02  0.29999985766E+02 0.  0.
         12    1    1    2    0    0 -0.30350248869E+02 -0.26807796558E+02 -0.36565688600E+01  0.40659144833E+02  0.00000000000E+00 0. -1.
         11    1    3    3    0    0 -0.38991555958E+01  0.50383702609E+01 -0.24758989457E-01  0.63709655873E+01  0.51100000000E-03 0. -1.
        -11    1    3    3    0    0  0.27250788708E+02  0.10491804353E+02 -0.28975385874E+01  0.29344150591E+02  0.51100000000E-03 0.  1.
         12    1    3    3    0    0  0.69986157566E+01  0.11277621945E+02  0.65788664369E+01  0.14813738989E+02  0.00000000000E+00 0. -1.
</event>
<event>
 7    1  0.2942034E-011  0.5052886E+02  0.7816164E-02  0.1300439E+00
        -11   -1    0    0    0    0  0.00000000000E+00  0.00000000000E+00  0.45593999997E+02  0.45594000000E+02  0.51100000000E-03 0. -1.
         11   -1    0    0    0    0 -0.00000000000E+00 -0.00000000000E+00 -0.45593999997E+02  0.45594000000E+02  0.51100000000E-03 0.  1.
    9900012    2    1    2    0    0  0.17567563304E+02  0.36394108326E+02 -0.44738073624E+01  0.50528863836E+02  0.30000012116E+02 0.  0.
         12    1    1    2    0    0 -0.17567563304E+02 -0.36394108326E+02  0.44738073624E+01  0.40659136164E+02  0.00000000000E+00 0. -1.
         11    1    3    3    0    0  0.13824817782E+02  0.12193033464E+02  0.10188387557E+02  0.21061787508E+02  0.51100000000E-03 0. -1.
        -11    1    3    3    0    0 -0.18269103233E+01  0.76596541195E+01 -0.27728260914E+01  0.83484410134E+01  0.51100000000E-03 0.  1.
         12    1    3    3    0    0  0.55696558449E+01  0.16541420742E+02 -0.11889368828E+02  0.21118635314E+02  0.00000000000E+00 0. -1.
</event>
<event>
 7    1  0.2942034E-011  0.5052883E+02  0.7816164E-02  0.1300439E+00
        -11   -1    0    0    0    0  0.00000000000E+00  0.00000000000E+00  0.45593999997E+02  0.45594000000E+02  0.51100000000E-03 0.  1.
         11   -1    0    0    0    0 -0.00000000000E+00 -0.00000000000E+00 -0.45593999997E+02  0.45594000000E+02  0.51100000000E-03 0. -1.
    9900012    2    1    2    0    0 -0.37013770860E+00 -0.79864769065E+01  0.39865360585E+02  0.50528833876E+02  0.29999921050E+02 0.  0.
         12    1    1    2    0    0  0.37013770860E+00  0.79864769065E+01 -0.39865360585E+02  0.40659166124E+02  0.00000000000E+00 0. -1.
         11    1    3    3    0    0  0.11340934215E+02 -0.87546401193E+01  0.27525322646E+02  0.31030692862E+02  0.51100000000E-03 0. -1.
        -11    1    3    3    0    0  0.44744717983E-01 -0.27218573440E+01  0.32148637489E+01  0.42125833732E+01  0.51100000000E-03 0.  1.
         12    1    3    3    0    0 -0.11755816641E+02  0.34900205568E+01  0.91251741900E+01  0.15285557641E+02  0.00000000000E+00 0. -1.
</event>
<event>
 7    1  0.2942034E-011  0.5052888E+02  0.7816164E-02  0.1300439E+00
        -11   -1    0    0    0    0  0.00000000000E+00  0.00000000000E+00  0.45593999997E+02  0.45594000000E+02  0.51100000000E-03 0. -1.
         11   -1    0    0    0    0 -0.00000000000E+00 -0.00000000000E+00 -0.45593999997E+02  0.45594000000E+02  0.51100000000E-03 0.  1.
    9900012    2    1    2    0    0  0.23925208510E+02 -0.29655710062E+02 -0.14187581265E+02  0.50528877977E+02  0.30000055100E+02 0.  0.
         12    1    1    2    0    0 -0.23925208510E+02  0.29655710062E+02  0.14187581265E+02  0.40659122023E+02  0.00000000000E+00 0. -1.
         11    1    3    3    0    0  0.95419712417E+01 -0.20784505081E+02  0.49335087628E+01  0.23396247041E+02  0.51100000000E-03 0. -1.
        -11    1    3    3    0    0  0.43429210878E+01 -0.75907218812E+01 -0.11576756909E+02  0.14508663724E+02  0.51100000000E-03 0.  1.
         12    1    3    3    0    0  0.10040316181E+02 -0.12804830991E+01 -0.75443331185E+01  0.12623967212E+02  0.00000000000E+00 0. -1.
</event>
<event>
 7    1  0.2942034E-011  0.5052886E+02  0.7816164E-02  0.1300439E+00
        -11   -1    0    0    0    0  0.00000000000E+00  0.00000000000E+00  0.45593999997E+02  0.45594000000E+02  0.51100000000E-03 0. -1.
         11   -1    0    0    0    0 -0.00000000000E+00 -0.00000000000E+00 -0.45593999997E+02  0.45594000000E+02  0.51100000000E-03 0.  1.
    9900012    2    1    2    0    0  0.33023412711E+02  0.33433627584E+01 -0.23482797024E+02  0.50528860588E+02  0.30000002244E+02 0.  0.
         12    1    1    2    0    0 -0.33023412711E+02 -0.33433627584E+01  0.23482797024E+02  0.40659139412E+02  0.00000000000E+00 0. -1.
         11    1    3    3    0    0  0.15701902281E+02 -0.64681615533E+01 -0.24837056601E+02  0.30087642480E+02  0.51100000000E-03 0. -1.
        -11    1    3    3    0    0  0.10556541866E+02  0.83560716134E+01  0.12410251182E+01  0.13520527082E+02  0.51100000000E-03 0.  1.
        -12    1    3    3    0    0  0.67649685644E+01  0.14554526984E+01  0.11323445936E+00  0.69206910260E+01  0.00000000000E+00 0.  1.
</event>
<event>
 7    1  0.2942034E-011  0.5052882E+02  0.7816164E-02  0.1300439E+00
        -11   -1    0    0    0    0  0.00000000000E+00  0.00000000000E+00  0.45593999997E+02  0.45594000000E+02  0.51100000000E-03 0. -1.
         11   -1    0    0    0    0 -0.00000000000E+00 -0.00000000000E+00 -0.45593999997E+02  0.45594000000E+02  0.51100000000E-03 0.  1.
    9900012    2    1    2    0    0 -0.35493520816E+02  0.19012960862E+02 -0.56468110979E+01  0.50528816828E+02  0.29999869229E+02 0.  0.
         12    1    1    2    0    0  0.35493520816E+02 -0.19012960862E+02  0.56468110979E+01  0.40659183172E+02  0.00000000000E+00 0. -1.
         11    1    3    3    0    0 -0.83480669762E+01 -0.69806329653E+00  0.52200374712E+01  0.98704764863E+01  0.51100000000E-03 0. -1.
        -11    1    3    3    0    0 -0.29103544418E+02  0.12495829333E+02 -0.94154095509E+01  0.33042578376E+02  0.51100000000E-03 0.  1.
        -12    1    3    3    0    0  0.19580905787E+01  0.72151948261E+01 -0.14514390182E+01  0.76157619656E+01  0.00000000000E+00 0.  1.
</event>
<event>
 7    1  0.2942034E-011  0.5052888E+02  0.7816164E-02  0.1300439E+00
        -11   -1    0    0    0    0  0.00000000000E+00  0.00000000000E+00  0.45593999997E+02  0.45594000000E+02  0.51100000000E-03 0.  1.
         11   -1    0    0    0    0 -0.00000000000E+00 -0.00000000000E+00 -0.45593999997E+02  0.45594000000E+02  0.51100000000E-03 0. -1.
    9900012    2    1    2    0    0 -0.30062400608E+02 -0.19997890239E+02  0.18694942980E+02  0.50528875103E+02  0.30000046364E+02 0.  0.
         12    1    1    2    0    0  0.30062400608E+02  0.19997890239E+02 -0.18694942980E+02  0.40659124897E+02  0.00000000000E+00 0. -1.
         11    1    3    3    0    0 -0.10310454930E+02 -0.15399528689E+02  0.20028889655E+02  0.27287495044E+02  0.51100000000E-03 0. -1.
        -11    1    3    3    0    0 -0.21196974598E+02 -0.45577670802E+01 -0.17066508786E+01  0.21748508693E+02  0.51100000000E-03 0.  1.
         12    1    3    3    0    0  0.14450289205E+01 -0.40594470273E-01  0.37270420306E+00  0.14928713658E+01  0.00000000000E+00 0. -1.
</event>
<event>
 7    1  0.2942034E-011  0.5052886E+02  0.7816164E-02  0.1300439E+00
        -11   -1    0    0    0    0  0.00000000000E+00  0.00000000000E+00  0.45593999997E+02  0.45594000000E+02  0.51100000000E-03 0.  1.
         11   -1    0    0    0    0 -0.00000000000E+00 -0.00000000000E+00 -0.45593999997E+02  0.45594000000E+02  0.51100000000E-03 0. -1.
    9900012    2    1    2    0    0 -0.27256948390E+02 -0.29335840635E+02  0.70450643423E+01  0.50528859418E+02  0.29999998687E+02 0.  0.
         12    1    1    2    0    0  0.27256948390E+02  0.29335840635E+02 -0.70450643423E+01  0.40659140582E+02  0.00000000000E+00 0. -1.
         11    1    3    3    0    0  0.42674039356E+01 -0.26515379247E+01  0.44769958858E+01  0.67294042929E+01  0.51100000000E-03 0. -1.
        -11    1    3    3    0    0 -0.16810104605E+02 -0.84727489475E+01  0.67842698142E+01  0.20009832802E+02  0.51100000000E-03 0.  1.
        -12    1    3    3    0    0 -0.14714247720E+02 -0.18211553763E+02 -0.42162013577E+01  0.23789622324E+02  0.00000000000E+00 0.  1.
</event>
<event>
 7    1  0.2942034E-011  0.5052886E+02  0.7816164E-02  0.1300439E+00
        -11   -1    0    0    0    0  0.00000000000E+00  0.00000000000E+00  0.45593999997E+02  0.45594000000E+02  0.51100000000E-03 0.  1.
         11   -1    0    0    0    0 -0.00000000000E+00 -0.00000000000E+00 -0.45593999997E+02  0.45594000000E+02  0.51100000000E-03 0. -1.
    9900012    2    1    2    0    0  0.56557607441E+01  0.37047035228E+02  0.15770078724E+02  0.50528857956E+02  0.29999994244E+02 0.  0.
         12    1    1    2    0    0 -0.56557607441E+01 -0.37047035228E+02 -0.15770078724E+02  0.40659142044E+02  0.00000000000E+00 0. -1.
         11    1    3    3    0    0 -0.92133312037E+01  0.43451669817E+01 -0.39467055933E+00  0.10194199972E+02  0.51100000000E-03 0. -1.
        -11    1    3    3    0    0  0.42576259310E+01  0.99345977226E+01  0.68721666509E+00  0.10830322132E+02  0.51100000000E-03 0.  1.
         12    1    3    3    0    0  0.10611466017E+02  0.22767270524E+02  0.15477532618E+02  0.29504335852E+02  0.00000000000E+00 0. -1.
</event>
<event>
 7    1  0.2942034E-011  0.5052885E+02  0.7816164E-02  0.1300439E+00
        -11   -1    0    0    0    0  0.00000000000E+00  0.00000000000E+00  0.45593999997E+02  0.45594000000E+02  0.51100000000E-03 0.  1.
         11   -1    0    0    0    0 -0.00000000000E+00 -0.00000000000E+00 -0.45593999997E+02  0.45594000000E+02  0.51100000000E-03 0. -1.
    9900012    2    1    2    0    0  0.36515187568E+02  0.16645634509E+02  0.65368728621E+01  0.50528846318E+02  0.29999958868E+02 0.  0.
         12    1    1    2    0    0 -0.36515187568E+02 -0.16645634509E+02 -0.65368728621E+01  0.40659153682E+02  0.00000000000E+00 0. -1.
         11    1    3    3    0    0 -0.19221740577E+01 -0.39590423431E+01  0.75043738336E+00  0.44645185530E+01  0.51100000000E-03 0. -1.
        -11    1    3    3    0    0  0.12849937841E+02  0.89657341959E+01 -0.42188604238E+01  0.16226647088E+02  0.51100000000E-03 0.  1.
         12    1    3    3    0    0  0.25587423784E+02  0.11638942656E+02  0.10005295903E+02  0.29837680677E+02  0.00000000000E+00 0. -1.
</event>
<event>
 7    1  0.2942034E-011  0.5052884E+02  0.7816164E-02  0.1300439E+00
        -11   -1    0    0    0    0  0.00000000000E+00  0.00000000000E+00  0.45593999997E+02  0.45594000000E+02  0.51100000000E-03 0. -1.
         11   -1    0    0    0    0 -0.00000000000E+00 -0.00000000000E+00 -0.45593999997E+02  0.45594000000E+02  0.51100000000E-03 0.  1.
    9900012    2    1    2    0    0 -0.22253677494E+02  0.34015648042E+02 -0.93651996352E+00  0.50528836907E+02  0.29999930263E+02 0.  0.
         12    1    1    2    0    0  0.22253677494E+02 -0.34015648042E+02  0.93651996352E+00  0.40659163093E+02  0.00000000000E+00 0. -1.
         11    1    3    3    0    0 -0.17530091250E+02  0.21750007028E+02  0.80672010207E+01  0.29076565091E+02  0.51100000000E-03 0.  1.
        -11    1    3    3    0    0  0.46681922480E+01  0.15362622690E+01 -0.40134169390E+01  0.63450481803E+01  0.51100000000E-03 0. -1.
         12    1    3    3    0    0 -0.93917784928E+01  0.10729378745E+02 -0.49903040452E+01  0.15107223636E+02  0.00000000000E+00 0. -1.
</event>
<event>
 7    1  0.2942034E-011  0.5052886E+02  0.7816164E-02  0.1300439E+00
        -11   -1    0    0    0    0  0.00000000000E+00  0.00000000000E+00  0.45593999997E+02  0.45594000000E+02  0.51100000000E-03 0.  1.
         11   -1    0    0    0    0 -0.00000000000E+00 -0.00000000000E+00 -0.45593999997E+02  0.45594000000E+02  0.51100000000E-03 0. -1.
    9900012    2    1    2    0    0 -0.39430014744E+02  0.69131444180E+01  0.71167701752E+01  0.50528855319E+02  0.29999986228E+02 0.  0.
         12    1    1    2    0    0  0.39430014744E+02 -0.69131444180E+01 -0.71167701752E+01  0.40659144681E+02  0.00000000000E+00 0. -1.
         11    1    3    3    0    0 -0.14123235464E+01  0.10468347560E+01  0.84318121309E+01  0.86131281703E+01  0.51100000000E-03 0. -1.
        -11    1    3    3    0    0 -0.10558206550E+02  0.77629022505E+01 -0.52374775675E+01  0.14112744185E+02  0.51100000000E-03 0.  1.
         12    1    3    3    0    0 -0.27459484648E+02 -0.18965925885E+01  0.39224356118E+01  0.27802982964E+02  0.00000000000E+00 0. -1.
</event>
<event>
 7    1  0.2942034E-011  0.5052886E+02  0.7816164E-02  0.1300439E+00
        -11   -1    0    0    0    0  0.00000000000E+00  0.00000000000E+00  0.45593999997E+02  0.45594000000E+02  0.51100000000E-03 0.  1.
         11   -1    0    0    0    0 -0.00000000000E+00 -0.00000000000E+00 -0.45593999997E+02  0.45594000000E+02  0.51100000000E-03 0. -1.
    9900012    2    1    2    0    0  0.64392527658E+01  0.30449438098E+02  0.26163585789E+02  0.50528862306E+02  0.30000007465E+02 0.  0.
         12    1    1    2    0    0 -0.64392527658E+01 -0.30449438098E+02 -0.26163585789E+02  0.40659137694E+02  0.00000000000E+00 0. -1.
         11    1    3    3    0    0 -0.83505318363E+01  0.12370303370E+02  0.94730951845E+01  0.17677537160E+02  0.51100000000E-03 0. -1.
        -11    1    3    3    0    0  0.15278330825E+02  0.19376591175E+02  0.18304582818E+02  0.30723564747E+02  0.51100000000E-03 0.  1.
        -12    1    3    3    0    0 -0.48854622298E+00 -0.12974564462E+01 -0.16140922136E+01  0.21277603990E+01  0.00000000000E+00 0.  1.
</event>
<event>
 7    1  0.2942034E-011  0.5052887E+02  0.7816164E-02  0.1300439E+00
        -11   -1    0    0    0    0  0.00000000000E+00  0.00000000000E+00  0.45593999997E+02  0.45594000000E+02  0.51100000000E-03 0.  1.
         11   -1    0    0    0    0 -0.00000000000E+00 -0.00000000000E+00 -0.45593999997E+02  0.45594000000E+02  0.51100000000E-03 0. -1.
    9900012    2    1    2    0    0  0.36182024637E+02  0.16615187368E+02  0.82438967360E+01  0.50528865830E+02  0.30000018176E+02 0.  0.
         12    1    1    2    0    0 -0.36182024637E+02 -0.16615187368E+02 -0.82438967360E+01  0.40659134170E+02  0.00000000000E+00 0. -1.
         11    1    3    3    0    0  0.22788703852E+02  0.15433294710E+02 -0.64625508941E+01  0.28271472780E+02  0.51100000000E-03 0. -1.
        -11    1    3    3    0    0  0.13646775299E+02 -0.21078387705E+00  0.89304881210E+01  0.16310503495E+02  0.51100000000E-03 0.  1.
         12    1    3    3    0    0 -0.25345451436E+00  0.13926765351E+01  0.57759595091E+01  0.59468895544E+01  0.00000000000E+00 0. -1.
</event>
<event>
 7    1  0.2942034E-011  0.5052885E+02  0.7816164E-02  0.1300439E+00
        -11   -1    0    0    0    0  0.00000000000E+00  0.00000000000E+00  0.45593999997E+02  0.45594000000E+02  0.51100000000E-03 0.  1.
         11   -1    0    0    0    0 -0.00000000000E+00 -0.00000000000E+00 -0.45593999997E+02  0.45594000000E+02  0.51100000000E-03 0. -1.
    9900012    2    1    2    0    0 -0.76980855161E+01 -0.24809467202E+02  0.31279324546E+02  0.50528851860E+02  0.29999975713E+02 0.  0.
         12    1    1    2    0    0  0.76980855161E+01  0.24809467202E+02 -0.31279324546E+02  0.40659148140E+02  0.00000000000E+00 0. -1.
         11    1    3    3    0    0 -0.13524436874E+01 -0.69050813472E+01  0.76945771078E+00  0.70782284343E+01  0.51100000000E-03 0. -1.
        -11    1    3    3    0    0 -0.53193534135E+01 -0.15858841724E+02  0.34787026564E+02  0.38599683924E+02  0.51100000000E-03 0.  1.
        -12    1    3    3    0    0 -0.10262884152E+01 -0.20455441308E+01 -0.42771597291E+01  0.48509395018E+01  0.00000000000E+00 0.  1.
</event>
<event>
 7    1  0.2942034E-011  0.5052886E+02  0.7816164E-02  0.1300439E+00
        -11   -1    0    0    0    0  0.00000000000E+00  0.00000000000E+00  0.45593999997E+02  0.45594000000E+02  0.51100000000E-03 0.  1.
         11   -1    0    0    0    0 -0.00000000000E+00 -0.00000000000E+00 -0.45593999997E+02  0.45594000000E+02  0.51100000000E-03 0. -1.
    9900012    2    1    2    0    0  0.89284231582E+01 -0.21892512279E+02  0.33078197806E+02  0.50528855837E+02  0.29999987802E+02 0.  0.
         12    1    1    2    0    0 -0.89284231582E+01  0.21892512279E+02 -0.33078197806E+02  0.40659144163E+02  0.00000000000E+00 0. -1.
         11    1    3    3    0    0 -0.73734454843E+01  0.21456502950E+01  0.67228049160E+01  0.10206253950E+02  0.51100000000E-03 0. -1.
        -11    1    3    3    0    0  0.58443647661E+01 -0.11958034641E+02  0.17715953822E+02  0.22158659979E+02  0.51100000000E-03 0.  1.
         12    1    3    3    0    0  0.10457503876E+02 -0.12080127934E+02  0.86394390672E+01  0.18163941907E+02  0.00000000000E+00 0. -1.
</event>
<event>
 7    1  0.2942034E-011  0.5052891E+02  0.7816164E-02  0.1300439E+00
        -11   -1    0    0    0    0  0.00000000000E+00  0.00000000000E+00  0.45593999997E+02  0.45594000000E+02  0.51100000000E-03 0.  1.
         11   -1    0    0    0    0 -0.00000000000E+00 -0.00000000000E+00 -0.45593999997E+02  0.45594000000E+02  0.51100000000E-03 0. -1.
    9900012    2    1    2    0    0  0.11983974588E+02 -0.33528843061E+02  0.19630658863E+02  0.50528908381E+02  0.30000147513E+02 0.  0.
         12    1    1    2    0    0 -0.11983974588E+02  0.33528843061E+02 -0.19630658863E+02  0.40659091619E+02  0.00000000000E+00 0. -1.
         11    1    3    3    0    0  0.65978706719E+01 -0.33651981069E+02  0.92204724818E+01  0.35510629962E+02  0.51100000000E-03 0. -1.
        -11    1    3    3    0    0  0.38810812322E+01 -0.39601865722E+01  0.87531312062E+01  0.10361620307E+02  0.51100000000E-03 0.  1.
         12    1    3    3    0    0  0.15050226842E+01  0.40833245806E+01  0.16570551751E+01  0.46566581111E+01  0.00000000000E+00 0. -1.
</event>
<event>
 7    1  0.2942034E-011  0.5052886E+02  0.7816164E-02  0.1300439E+00
        -11   -1    0    0    0    0  0.00000000000E+00  0.00000000000E+00  0.45593999997E+02  0.45594000000E+02  0.51100000000E-03 0.  1.
         11   -1    0    0    0    0 -0.00000000000E+00 -0.00000000000E+00 -0.45593999997E+02  0.45594000000E+02  0.51100000000E-03 0. -1.
    9900012    2    1    2    0    0  0.30634605763E+02 -0.23193677158E+02  0.13294358385E+02  0.50528859635E+02  0.29999999346E+02 0.  0.
         12    1    1    2    0    0 -0.30634605763E+02  0.23193677158E+02 -0.13294358385E+02  0.40659140365E+02  0.00000000000E+00 0. -1.
         11    1    3    3    0    0  0.27461560457E+02 -0.11722670220E+02  0.51319538398E+01  0.30296786138E+02  0.51100000000E-03 0.  1.
        -11    1    3    3    0    0 -0.33067756607E+01 -0.55665052530E+01 -0.20326975121E+01  0.67862069994E+01  0.51100000000E-03 0. -1.
        -12    1    3    3    0    0  0.64798209667E+01 -0.59045016854E+01  0.10195102057E+02  0.13445866498E+02  0.00000000000E+00 0.  1.
</event>
<event>
 7    1  0.2942034E-011  0.5052886E+02  0.7816164E-02  0.1300439E+00
        -11   -1    0    0    0    0  0.00000000000E+00  0.00000000000E+00  0.45593999997E+02  0.45594000000E+02  0.51100000000E-03 0.  1.
         11   -1    0    0    0    0 -0.00000000000E+00 -0.00000000000E+00 -0.45593999997E+02  0.45594000000E+02  0.51100000000E-03 0. -1.
    9900012    2    1    2    0    0 -0.17741010747E+02 -0.35625970029E+02  0.83194005039E+01  0.50528860467E+02  0.30000001876E+02 0.  0.
         12    1    1    2    0    0  0.17741010747E+02  0.35625970029E+02 -0.83194005039E+01  0.40659139533E+02  0.00000000000E+00 0. -1.
         11    1    3    3    0    0 -0.91137852950E+01 -0.12963057354E+02 -0.10420675261E+02  0.18965558561E+02  0.51100000000E-03 0. -1.
        -11    1    3    3    0    0 -0.22360463256E+01 -0.14974690283E+02  0.90450507624E+01  0.17636728603E+02  0.51100000000E-03 0.  1.
         12    1    3    3    0    0 -0.63911791267E+01 -0.76882223910E+01  0.96950250028E+01  0.13926573303E+02  0.00000000000E+00 0. -1.
</event>
<event>
 7    1  0.2942034E-011  0.5052886E+02  0.7816164E-02  0.1300439E+00
        -11   -1    0    0    0    0  0.00000000000E+00  0.00000000000E+00  0.45593999997E+02  0.45594000000E+02  0.51100000000E-03 0.  1.
         11   -1    0    0    0    0 -0.00000000000E+00 -0.00000000000E+00 -0.45593999997E+02  0.45594000000E+02  0.51100000000E-03 0. -1.
    9900012    2    1    2    0    0  0.86245774961E+01  0.20394700144E+02  0.34100422747E+02  0.50528856348E+02  0.29999989356E+02 0.  0.
         12    1    1    2    0    0 -0.86245774961E+01 -0.20394700144E+02 -0.34100422747E+02  0.40659143652E+02  0.00000000000E+00 0. -1.
         11    1    3    3    0    0 -0.26249140993E+01  0.19384105671E+01  0.28133293044E+01  0.43084140460E+01  0.51100000000E-03 0. -1.
        -11    1    3    3    0    0  0.19852761567E+02  0.11791771019E+02  0.20103890461E+02  0.30616081028E+02  0.51100000000E-03 0.  1.
        -12    1    3    3    0    0 -0.86032699720E+01  0.66645185583E+01  0.11183202982E+02  0.15604361274E+02  0.00000000000E+00 0.  1.
</event>
<event>
 7    1  0.2942034E-011  0.5052885E+02  0.7816164E-02  0.1300439E+00
        -11   -1    0    0    0    0  0.00000000000E+00  0.00000000000E+00  0.45593999997E+02  0.45594000000E+02  0.51100000000E-03 0.  1.
         11   -1    0    0    0    0 -0.00000000000E+00 -0.00000000000E+00 -0.45593999997E+02  0.45594000000E+02  0.51100000000E-03 0. -1.
    9900012    2    1    2    0    0 -0.31182934996E+02 -0.51847163510E+00  0.26086820006E+02  0.50528850650E+02  0.29999972036E+02 0.  0.
         12    1    1    2    0    0  0.31182934996E+02  0.51847163510E+00 -0.26086820006E+02  0.40659149350E+02  0.00000000000E+00 0. -1.
         11    1    3    3    0    0 -0.25311202725E+01 -0.22650032425E+01  0.10358627847E+02  0.10901283441E+02  0.51100000000E-03 0. -1.
        -11    1    3    3    0    0 -0.27690626061E+02  0.73004572956E+01  0.74107239572E+01  0.29580166974E+02  0.51100000000E-03 0.  1.
        -12    1    3    3    0    0 -0.96118866256E+00 -0.55539256882E+01  0.83174682018E+01  0.10047400235E+02  0.00000000000E+00 0.  1.
</event>
<event>
 7    1  0.2942034E-011  0.5052886E+02  0.7816164E-02  0.1300439E+00
        -11   -1    0    0    0    0  0.00000000000E+00  0.00000000000E+00  0.45593999997E+02  0.45594000000E+02  0.51100000000E-03 0.  1.
         11   -1    0    0    0    0 -0.00000000000E+00 -0.00000000000E+00 -0.45593999997E+02  0.45594000000E+02  0.51100000000E-03 0. -1.
    9900012    2    1    2    0    0  0.98115119268E+01 -0.37307787091E+02  0.12846361512E+02  0.50528858985E+02  0.29999997372E+02 0.  0.
         12    1    1    2    0    0 -0.98115119268E+01  0.37307787091E+02 -0.12846361512E+02  0.40659141015E+02  0.00000000000E+00 0. -1.
         11    1    3    3    0    0  0.78911187959E+01 -0.29781553274E+02 -0.70589487319E+00  0.30817348346E+02  0.51100000000E-03 0. -1.
        -11    1    3    3    0    0  0.80939909648E+00 -0.95813931933E+01  0.14323127418E+02  0.17251382603E+02  0.51100000000E-03 0.  1.
         12    1    3    3    0    0  0.11109940344E+01  0.20551593760E+01 -0.77087103269E+00  0.24601280361E+01  0.00000000000E+00 0. -1.
</event>
<event>
 7    1  0.2942034E-011  0.5052884E+02  0.7816164E-02  0.1300439E+00
        -11   -1    0    0    0    0  0.00000000000E+00  0.00000000000E+00  0.45593999997E+02  0.45594000000E+02  0.51100000000E-03 0.  1.
         11   -1    0    0    0    0 -0.00000000000E+00 -0.00000000000E+00 -0.45593999997E+02  0.45594000000E+02  0.51100000000E-03 0. -1.
    9900012    2    1    2    0    0 -0.21955352289E+02  0.24065335075E+02  0.24330829367E+02  0.50528842309E+02  0.29999946683E+02 0.  0.
         12    1    1    2    0    0  0.21955352289E+02 -0.24065335075E+02 -0.24330829367E+02  0.40659157691E+02  0.00000000000E+00 0. -1.
         11    1    3    3    0    0 -0.13183075822E+01 -0.21161286767E+01  0.39575787926E+01  0.46774315194E+01  0.51100000000E-03 0. -1.
        -11    1    3    3    0    0 -0.59476211655E+01  0.20929108200E+02  0.20999378914E+02  0.30238645515E+02  0.51100000000E-03 0.  1.
        -12    1    3    3    0    0 -0.14689423541E+02  0.52523555521E+01 -0.62612833907E+00  0.15612765274E+02  0.00000000000E+00 0.  1.
</event>
<event>
 7    1  0.2942034E-011  0.5052886E+02  0.7816164E-02  0.1300439E+00
        -11   -1    0    0    0    0  0.00000000000E+00  0.00000000000E+00  0.45593999997E+02  0.45594000000E+02  0.51100000000E-03 0.  1.
         11   -1    0    0    0    0 -0.00000000000E+00 -0.00000000000E+00 -0.45593999997E+02  0.45594000000E+02  0.51100000000E-03 0. -1.
    9900012    2    1    2    0    0 -0.21880584277E+02 -0.29461102816E+02  0.17505680786E+02  0.50528863177E+02  0.30000010112E+02 0.  0.
         12    1    1    2    0    0  0.21880584277E+02  0.29461102816E+02 -0.17505680786E+02  0.40659136823E+02  0.00000000000E+00 0. -1.
         11    1    3    3    0    0 -0.19868810873E+01  0.13970515253E+01 -0.42073339583E+01  0.48580972322E+01  0.51100000000E-03 0. -1.
        -11    1    3    3    0    0 -0.75007507948E+01 -0.18915701602E+02  0.19735166679E+02  0.28346813467E+02  0.51100000000E-03 0.  1.
         12    1    3    3    0    0 -0.12392952395E+02 -0.11942452739E+02  0.19778480645E+01  0.17323952478E+02  0.00000000000E+00 0. -1.
</event>
<event>
 7    1  0.2942034E-011  0.5052889E+02  0.7816164E-02  0.1300439E+00
        -11   -1    0    0    0    0  0.00000000000E+00  0.00000000000E+00  0.45593999997E+02  0.45594000000E+02  0.51100000000E-03 0.  1.
         11   -1    0    0    0    0 -0.00000000000E+00 -0.00000000000E+00 -0.45593999997E+02  0.45594000000E+02  0.51100000000E-03 0. -1.
    9900012    2    1    2    0    0  0.19502061108E+02 -0.29932621183E+02  0.19413166747E+02  0.50528889809E+02  0.30000091065E+02 0.  0.
         12    1    1    2    0    0 -0.19502061108E+02  0.29932621183E+02 -0.19413166747E+02  0.40659110191E+02  0.00000000000E+00 0. -1.
         11    1    3    3    0    0  0.54167374088E+00 -0.16717872663E+01  0.13555051913E+02  0.13668493543E+02  0.51100000000E-03 0. -1.
        -11    1    3    3    0    0  0.11041977377E+02 -0.17705856872E+02 -0.28359863376E+01  0.21058619393E+02  0.51100000000E-03 0.  1.
         12    1    3    3    0    0  0.79184099895E+01 -0.10554977045E+02  0.86941011711E+01  0.15801776874E+02  0.00000000000E+00 0. -1.
</event>
<event>
 7    1  0.2942034E-011  0.5052884E+02  0.7816164E-02  0.1300439E+00
        -11   -1    0    0    0    0  0.00000000000E+00  0.00000000000E+00  0.45593999997E+02  0.45594000000E+02  0.51100000000E-03 0.  1.
         11   -1    0    0    0    0 -0.00000000000E+00 -0.00000000000E+00 -0.45593999997E+02  0.45594000000E+02  0.51100000000E-03 0. -1.
    9900012    2    1    2    0    0 -0.16365893031E+02  0.35061535196E+02  0.12490542841E+02  0.50528839095E+02  0.29999936914E+02 0.  0.
         12    1    1    2    0    0  0.16365893031E+02 -0.35061535196E+02 -0.12490542841E+02  0.40659160905E+02  0.00000000000E+00 0. -1.
         11    1    3    3    0    0 -0.49095375020E+01  0.23630633304E+02 -0.50026732889E+01  0.24648268279E+02  0.51100000000E-03 0. -1.
        -11    1    3    3    0    0 -0.88427868173E+01  0.17511177983E+01  0.90361949012E+01  0.12763781211E+02  0.51100000000E-03 0.  1.
        -12    1    3    3    0    0 -0.26135687118E+01  0.96797840934E+01  0.84570212284E+01  0.13116789606E+02  0.00000000000E+00 0.  1.
</event>
<event>
 7    1  0.2942034E-011  0.5052886E+02  0.7816164E-02  0.1300439E+00
        -11   -1    0    0    0    0  0.00000000000E+00  0.00000000000E+00  0.45593999997E+02  0.45594000000E+02  0.51100000000E-03 0.  1.
         11   -1    0    0    0    0 -0.00000000000E+00 -0.00000000000E+00 -0.45593999997E+02  0.45594000000E+02  0.51100000000E-03 0. -1.
    9900012    2    1    2    0    0 -0.27263113022E+02  0.15841761590E+02  0.25669572326E+02  0.50528859757E+02  0.29999999718E+02 0.  0.
         12    1    1    2    0    0  0.27263113022E+02 -0.15841761590E+02 -0.25669572326E+02  0.40659140243E+02  0.00000000000E+00 0. -1.
         11    1    3    3    0    0  0.35987246034E-01  0.41984762716E+01 -0.30842807016E+01  0.52097299155E+01  0.51100000000E-03 0. -1.
        -11    1    3    3    0    0 -0.29529690075E+02  0.12600483117E+02  0.24366548207E+02  0.40305129233E+02  0.51100000000E-03 0.  1.
        -12    1    3    3    0    0  0.22305898073E+01 -0.95719779892E+00  0.43873048201E+01  0.50140006082E+01  0.00000000000E+00 0.  1.
</event>
<event>
 7    1  0.2942034E-011  0.5052887E+02  0.7816164E-02  0.1300439E+00
        -11   -1    0    0    0    0  0.00000000000E+00  0.00000000000E+00  0.45593999997E+02  0.45594000000E+02  0.51100000000E-03 0. -1.
         11   -1    0    0    0    0 -0.00000000000E+00 -0.00000000000E+00 -0.45593999997E+02  0.45594000000E+02  0.51100000000E-03 0.  1.
    9900012    2    1    2    0    0  0.51645699327E+01 -0.39930500453E+02  0.56610505612E+01  0.50528866432E+02  0.30000020008E+02 0.  0.
         12    1    1    2    0    0 -0.51645699327E+01  0.39930500453E+02 -0.56610505612E+01  0.40659133568E+02  0.00000000000E+00 0. -1.
         11    1    3    3    0    0  0.55131687951E+01  0.12546639996E+01  0.42389295170E+00  0.56699997717E+01  0.51100000000E-03 0. -1.
        -11    1    3    3    0    0 -0.71776868179E+01 -0.33447816891E+02  0.46273854904E+01  0.34520839208E+02  0.51100000000E-03 0.  1.
        -12    1    3    3    0    0  0.68290879556E+01 -0.77373475610E+01  0.60977211911E+00  0.10338027453E+02  0.00000000000E+00 0.  1.
</event>
<event>
 7    1  0.2942034E-011  0.5052885E+02  0.7816164E-02  0.1300439E+00
        -11   -1    0    0    0    0  0.00000000000E+00  0.00000000000E+00  0.45593999997E+02  0.45594000000E+02  0.51100000000E-03 0.  1.
         11   -1    0    0    0    0 -0.00000000000E+00 -0.00000000000E+00 -0.45593999997E+02  0.45594000000E+02  0.51100000000E-03 0. -1.
    9900012    2    1    2    0    0 -0.16643952874E+02  0.22612392523E+02  0.29407901604E+02  0.50528854170E+02  0.29999982735E+02 0.  0.
         12    1    1    2    0    0  0.16643952874E+02 -0.22612392523E+02 -0.29407901604E+02  0.40659145830E+02  0.00000000000E+00 0. -1.
         11    1    3    3    0    0  0.32341243187E+01 -0.49516141266E+01  0.55651751551E+01  0.81209123463E+01  0.51100000000E-03 0. -1.
        -11    1    3    3    0    0 -0.18693260733E+02  0.22761074346E+02  0.23044069478E+02  0.37396973682E+02  0.51100000000E-03 0.  1.
        -12    1    3    3    0    0 -0.11848164591E+01  0.48029323043E+01  0.79865697046E+00  0.50109681417E+01  0.00000000000E+00 0.  1.
</event>
<event>
 7    1  0.2942034E-011  0.5052886E+02  0.7816164E-02  0.1300439E+00
        -11   -1    0    0    0    0  0.00000000000E+00  0.00000000000E+00  0.45593999997E+02  0.45594000000E+02  0.51100000000E-03 0.  1.
         11   -1    0    0    0    0 -0.00000000000E+00 -0.00000000000E+00 -0.45593999997E+02  0.45594000000E+02  0.51100000000E-03 0. -1.
    9900012    2    1    2    0    0  0.17804006097E+02 -0.22043142645E+02  0.29159613665E+02  0.50528857856E+02  0.29999993940E+02 0.  0.
         12    1    1    2    0    0 -0.17804006097E+02  0.22043142645E+02 -0.29159613665E+02  0.40659142144E+02  0.00000000000E+00 0. -1.
         11    1    3    3    0    0 -0.44758457005E+01 -0.83904199566E+01  0.18574970820E+02  0.20867723475E+02  0.51100000000E-03 0. -1.
        -11    1    3    3    0    0  0.12534207293E+02 -0.11054999470E+02  0.28573313629E+01  0.16955344541E+02  0.51100000000E-03 0.  1.
         12    1    3    3    0    0  0.97456445048E+01 -0.25977232187E+01  0.77273114817E+01  0.12705789840E+02  0.00000000000E+00 0. -1.
</event>
<event>
 7    1  0.2942034E-011  0.5052886E+02  0.7816164E-02  0.1300439E+00
        -11   -1    0    0    0    0  0.00000000000E+00  0.00000000000E+00  0.45593999997E+02  0.45594000000E+02  0.51100000000E-03 0.  1.
         11   -1    0    0    0    0 -0.00000000000E+00 -0.00000000000E+00 -0.45593999997E+02  0.45594000000E+02  0.51100000000E-03 0. -1.
    9900012    2    1    2    0    0 -0.25957673730E+02 -0.98239959149E+01  0.29712857468E+02  0.50528860558E+02  0.30000002153E+02 0.  0.
         12    1    1    2    0    0  0.25957673730E+02  0.98239959149E+01 -0.29712857468E+02  0.40659139442E+02  0.00000000000E+00 0. -1.
         11    1    3    3    0    0 -0.47656087489E+01  0.24014834200E+01  0.11311802007E+02  0.12507398381E+02  0.51100000000E-03 0. -1.
        -11    1    3    3    0    0  0.13710786747E+01 -0.75274818377E+01 -0.12267835760E+01  0.77490539909E+01  0.51100000000E-03 0.  1.
        -12    1    3    3    0    0 -0.22563143656E+02 -0.46979974972E+01  0.19627839037E+02  0.30272408186E+02  0.00000000000E+00 0.  1.
</event>
<event>
 7    1  0.2942034E-011  0.5052886E+02  0.7816164E-02  0.1300439E+00
        -11   -1    0    0    0    0  0.00000000000E+00  0.00000000000E+00  0.45593999997E+02  0.45594000000E+02  0.51100000000E-03 0.  1.
         11   -1    0    0    0    0 -0.00000000000E+00 -0.00000000000E+00 -0.45593999997E+02  0.45594000000E+02  0.51100000000E-03 0. -1.
    9900012    2    1    2    0    0 -0.38060060108E+02  0.19465162520E+01  0.14170691932E+02  0.50528860673E+02  0.30000002503E+02 0.  0.
         12    1    1    2    0    0  0.38060060108E+02 -0.19465162520E+01 -0.14170691932E+02  0.40659139327E+02  0.00000000000E+00 0. -1.
         11    1    3    3    0    0 -0.10479867519E+01  0.14662101185E+01 -0.46388992543E+01  0.49766891501E+01  0.51100000000E-03 0. -1.
        -11    1    3    3    0    0 -0.33364701883E+02  0.25901833003E+01  0.86670874107E+01  0.34569217314E+02  0.51100000000E-03 0.  1.
         12    1    3    3    0    0 -0.36473714731E+01 -0.21098771668E+01  0.10142503775E+02  0.10982954209E+02  0.00000000000E+00 0. -1.
</event>
<event>
 7    1  0.2942034E-011  0.5052891E+02  0.7816164E-02  0.1300439E+00
        -11   -1    0    0    0    0  0.00000000000E+00  0.00000000000E+00  0.45593999997E+02  0.45594000000E+02  0.51100000000E-03 0. -1.
         11   -1    0    0    0    0 -0.00000000000E+00 -0.00000000000E+00 -0.45593999997E+02  0.45594000000E+02  0.51100000000E-03 0.  1.
    9900012    2    1    2    0    0  0.13857977233E+02  0.94065407089E+01 -0.37049091157E+02  0.50528908806E+02  0.30000148807E+02 0.  0.
         12    1    1    2    0    0 -0.13857977233E+02 -0.94065407089E+01  0.37049091157E+02  0.40659091194E+02  0.00000000000E+00 0. -1.
         11    1    3    3    0    0  0.20382575038E+02  0.76290882513E+01 -0.16801784114E+02  0.27494586784E+02  0.51100000000E-03 0. -1.
        -11    1    3    3    0    0 -0.24605082298E+01  0.90853479621E-01 -0.17858711601E+02  0.18027643645E+02  0.51100000000E-03 0.  1.
         12    1    3    3    0    0 -0.40640895749E+01  0.16865989779E+01 -0.23885954427E+01  0.50066783773E+01  0.00000000000E+00 0. -1.
</event>
<event>
 7    1  0.2942034E-011  0.5052886E+02  0.7816164E-02  0.1300439E+00
        -11   -1    0    0    0    0  0.00000000000E+00  0.00000000000E+00  0.45593999997E+02  0.45594000000E+02  0.51100000000E-03 0.  1.
         11   -1    0    0    0    0 -0.00000000000E+00 -0.00000000000E+00 -0.45593999997E+02  0.45594000000E+02  0.51100000000E-03 0. -1.
    9900012    2    1    2    0    0 -0.12823576105E+02  0.37724190713E+02 -0.80998201067E+01  0.50528858902E+02  0.29999997119E+02 0.  0.
         12    1    1    2    0    0  0.12823576105E+02 -0.37724190713E+02  0.80998201067E+01  0.40659141098E+02  0.00000000000E+00 0. -1.
         11    1    3    3    0    0 -0.52678101247E+01 -0.37726263041E+01  0.22238481916E+01  0.68504039137E+01  0.51100000000E-03 0. -1.
        -11    1    3    3    0    0 -0.44560241719E+01  0.33350827499E+02 -0.92586868334E+01  0.34897809794E+02  0.51100000000E-03 0.  1.
         12    1    3    3    0    0 -0.30997418088E+01  0.81459895177E+01 -0.10649814649E+01  0.87806451941E+01  0.00000000000E+00 0. -1.
</event>
<event>
 7    1  0.2942034E-011  0.5052887E+02  0.7816164E-02  0.1300439E+00
        -11   -1    0    0    0    0  0.00000000000E+00  0.00000000000E+00  0.45593999997E+02  0.45594000000E+02  0.51100000000E-03 0. -1.
         11   -1    0    0    0    0 -0.00000000000E+00 -0.00000000000E+00 -0.45593999997E+02  0.45594000000E+02  0.51100000000E-03 0.  1.
    9900012    2    1    2    0    0 -0.30510476896E+02  0.23315928990E+02 -0.13365754339E+02  0.50528866535E+02  0.30000020320E+02 0.  0.
         12    1    1    2    0    0  0.30510476896E+02 -0.23315928990E+02  0.13365754339E+02  0.40659133465E+02  0.00000000000E+00 0. -1.
         11    1    3    3    0    0 -0.26140664887E+01  0.16223437004E+02 -0.12229391811E+02  0.20483927264E+02  0.51100000000E-03 0. -1.
        -11    1    3    3    0    0 -0.23553761827E+02  0.49958572646E+01 -0.40423573695E+01  0.24414727919E+02  0.51100000000E-03 0.  1.
        -12    1    3    3    0    0 -0.43426485801E+01  0.20966347214E+01  0.29059948420E+01  0.56302113519E+01  0.00000000000E+00 0.  1.
</event>
<event>
 7    1  0.2942034E-011  0.5052886E+02  0.7816164E-02  0.1300439E+00
        -11   -1    0    0    0    0  0.00000000000E+00  0.00000000000E+00  0.45593999997E+02  0.45594000000E+02  0.51100000000E-03 0.  1.
         11   -1    0    0    0    0 -0.00000000000E+00 -0.00000000000E+00 -0.45593999997E+02  0.45594000000E+02  0.51100000000E-03 0. -1.
    9900012    2    1    2    0    0  0.39077118518E+02  0.10131023983E+02  0.48484062033E+01  0.50528857347E+02  0.29999992391E+02 0.  0.
         12    1    1    2    0    0 -0.39077118518E+02 -0.10131023983E+02 -0.48484062033E+01  0.40659142653E+02  0.00000000000E+00 0. -1.
         11    1    3    3    0    0 -0.43444162161E+01 -0.60346245709E+00  0.21929387487E+01  0.49037842339E+01  0.51100000000E-03 0. -1.
        -11    1    3    3    0    0  0.15646366313E+02  0.64507100775E+01 -0.23271921542E+01  0.17083215824E+02  0.51100000000E-03 0.  1.
         12    1    3    3    0    0  0.27775168421E+02  0.42837763627E+01  0.49826596087E+01  0.28541857289E+02  0.00000000000E+00 0. -1.
</event>
<event>
 7    1  0.2942034E-011  0.5052887E+02  0.7816164E-02  0.1300439E+00
        -11   -1    0    0    0    0  0.00000000000E+00  0.00000000000E+00  0.45593999997E+02  0.45594000000E+02  0.51100000000E-03 0.  1.
         11   -1    0    0    0    0 -0.00000000000E+00 -0.00000000000E+00 -0.45593999997E+02  0.45594000000E+02  0.51100000000E-03 0. -1.
    9900012    2    1    2    0    0  0.19510445893E+02 -0.23339780650E+02  0.26977071245E+02  0.50528865323E+02  0.30000016636E+02 0.  0.
         12    1    1    2    0    0 -0.19510445893E+02  0.23339780650E+02 -0.26977071245E+02  0.40659134677E+02  0.00000000000E+00 0. -1.
         11    1    3    3    0    0 -0.17299472483E+01  0.21717219324E+01  0.33692543320E+01  0.43658869257E+01  0.51100000000E-03 0. -1.
        -11    1    3    3    0    0  0.20466273147E+02 -0.95466217104E+01  0.19042347285E+02  0.29540096699E+02  0.51100000000E-03 0.  1.
        -12    1    3    3    0    0  0.77411999371E+00 -0.15964880872E+02  0.45654696279E+01  0.16622881698E+02  0.00000000000E+00 0.  1.
</event>
<event>
 7    1  0.2942034E-011  0.5052886E+02  0.7816164E-02  0.1300439E+00
        -11   -1    0    0    0    0  0.00000000000E+00  0.00000000000E+00  0.45593999997E+02  0.45594000000E+02  0.51100000000E-03 0.  1.
         11   -1    0    0    0    0 -0.00000000000E+00 -0.00000000000E+00 -0.45593999997E+02  0.45594000000E+02  0.51100000000E-03 0. -1.
    9900012    2    1    2    0    0  0.25696404908E+01  0.37782350711E+02  0.14800565673E+02  0.50528858079E+02  0.29999994616E+02 0.  0.
         12    1    1    2    0    0 -0.25696404908E+01 -0.37782350711E+02 -0.14800565673E+02  0.40659141921E+02  0.00000000000E+00 0. -1.
         11    1    3    3    0    0  0.67512692276E+01  0.45727394204E+01  0.77529341383E+01  0.11251558559E+02  0.51100000000E-03 0. -1.
        -11    1    3    3    0    0 -0.10775832816E+01  0.21810066025E+02 -0.50016656838E+01  0.22402161182E+02  0.51100000000E-03 0.  1.
         12    1    3    3    0    0 -0.31040454552E+01  0.11399545266E+02  0.12049297219E+02  0.16875138338E+02  0.00000000000E+00 0. -1.
</event>
<event>
 7    1  0.2942034E-011  0.5052885E+02  0.7816164E-02  0.1300439E+00
        -11   -1    0    0    0    0  0.00000000000E+00  0.00000000000E+00  0.45593999997E+02  0.45594000000E+02  0.51100000000E-03 0.  1.
         11   -1    0    0    0    0 -0.00000000000E+00 -0.00000000000E+00 -0.45593999997E+02  0.45594000000E+02  0.51100000000E-03 0. -1.
    9900012    2    1    2    0    0 -0.21070263053E+02 -0.92671911521E+01  0.33516109136E+02  0.50528851109E+02  0.29999973430E+02 0.  0.
         12    1    1    2    0    0  0.21070263053E+02  0.92671911521E+01 -0.33516109136E+02  0.40659148891E+02  0.00000000000E+00 0. -1.
         11    1    3    3    0    0  0.15295625459E+01 -0.20817869045E+01 -0.34783299634E+01  0.43326871446E+01  0.51100000000E-03 0. -1.
        -11    1    3    3    0    0 -0.12863024568E+02  0.24067822089E+01  0.24005575666E+02  0.27340769282E+02  0.51100000000E-03 0.  1.
        -12    1    3    3    0    0 -0.97368010308E+01 -0.95921864565E+01  0.12988863434E+02  0.18855394682E+02  0.00000000000E+00 0.  1.
</event>
<event>
 7    1  0.2942034E-011  0.5052886E+02  0.7816164E-02  0.1300439E+00
        -11   -1    0    0    0    0  0.00000000000E+00  0.00000000000E+00  0.45593999997E+02  0.45594000000E+02  0.51100000000E-03 0.  1.
         11   -1    0    0    0    0 -0.00000000000E+00 -0.00000000000E+00 -0.45593999997E+02  0.45594000000E+02  0.51100000000E-03 0. -1.
    9900012    2    1    2    0    0  0.35687785883E+02  0.14320130776E+02  0.13209130661E+02  0.50528864009E+02  0.30000012642E+02 0.  0.
         12    1    1    2    0    0 -0.35687785883E+02 -0.14320130776E+02 -0.13209130661E+02  0.40659135991E+02  0.00000000000E+00 0. -1.
         11    1    3    3    0    0  0.17643841202E+02  0.13198670090E+02  0.74648922228E+01  0.23264450147E+02  0.51100000000E-03 0. -1.
        -11    1    3    3    0    0  0.17728586541E+02 -0.65165176536E+01  0.52481498804E+01  0.19603848104E+02  0.51100000000E-03 0.  1.
         12    1    3    3    0    0  0.31535814106E+00  0.76379783397E+01  0.49608855813E+00  0.76605657580E+01  0.00000000000E+00 0. -1.
</event>
<event>
 7    1  0.2942034E-011  0.5052886E+02  0.7816164E-02  0.1300439E+00
        -11   -1    0    0    0    0  0.00000000000E+00  0.00000000000E+00  0.45593999997E+02  0.45594000000E+02  0.51100000000E-03 0.  1.
         11   -1    0    0    0    0 -0.00000000000E+00 -0.00000000000E+00 -0.45593999997E+02  0.45594000000E+02  0.51100000000E-03 0. -1.
    9900012    2    1    2    0    0  0.96436829245E+01  0.54714427716E+01  0.39118130379E+02  0.50528862887E+02  0.30000009233E+02 0.  0.
         12    1    1    2    0    0 -0.96436829245E+01 -0.54714427716E+01 -0.39118130379E+02  0.40659137113E+02  0.00000000000E+00 0. -1.
         11    1    3    3    0    0 -0.30784482183E+01  0.26910034198E+01 -0.33615789349E+01  0.52932557122E+01  0.51100000000E-03 0. -1.
        -11    1    3    3    0    0  0.11774278953E+02 -0.84024601523E+00  0.32044896368E+02  0.34149890801E+02  0.51100000000E-03 0.  1.
         12    1    3    3    0    0  0.94785218955E+00  0.36206853670E+01  0.10434812947E+02  0.11085716374E+02  0.00000000000E+00 0. -1.
</event>
<event>
 7    1  0.2942034E-011  0.5052886E+02  0.7816164E-02  0.1300439E+00
        -11   -1    0    0    0    0  0.00000000000E+00  0.00000000000E+00  0.45593999997E+02  0.45594000000E+02  0.51100000000E-03 0. -1.
         11   -1    0    0    0    0 -0.00000000000E+00 -0.00000000000E+00 -0.45593999997E+02  0.45594000000E+02  0.51100000000E-03 0.  1.
    9900012    2    1    2    0    0 -0.11033701717E+02 -0.16015454030E+02 -0.35706138965E+02  0.50528859562E+02  0.29999999124E+02 0.  0.
         12    1    1    2    0    0  0.11033701717E+02  0.16015454030E+02  0.35706138965E+02  0.40659140438E+02  0.00000000000E+00 0. -1.
         11    1    3    3    0    0  0.40475332417E+01  0.38739890198E+01  0.23299148271E+00  0.56075486231E+01  0.51100000000E-03 0. -1.
        -11    1    3    3    0    0 -0.78284718224E+01 -0.11142594078E+02 -0.27762555768E+02  0.30922514078E+02  0.51100000000E-03 0.  1.
         12    1    3    3    0    0 -0.72527631367E+01 -0.87468489724E+01 -0.81765746798E+01  0.13998796861E+02  0.00000000000E+00 0. -1.
</event>
<event>
 7    1  0.2942034E-011  0.5052886E+02  0.7816164E-02  0.1300439E+00
        -11   -1    0    0    0    0  0.00000000000E+00  0.00000000000E+00  0.45593999997E+02  0.45594000000E+02  0.51100000000E-03 0.  1.
         11   -1    0    0    0    0 -0.00000000000E+00 -0.00000000000E+00 -0.45593999997E+02  0.45594000000E+02  0.51100000000E-03 0. -1.
    9900012    2    1    2    0    0  0.10069217926E+01 -0.15830090462E+02  0.37437418818E+02  0.50528856092E+02  0.29999988578E+02 0.  0.
         12    1    1    2    0    0 -0.10069217926E+01  0.15830090462E+02 -0.37437418818E+02  0.40659143908E+02  0.00000000000E+00 0. -1.
         11    1    3    3    0    0  0.13404249735E+01  0.28256815601E+01  0.90066540954E+00  0.32545988739E+01  0.51100000000E-03 0. -1.
        -11    1    3    3    0    0 -0.98222316828E+01 -0.17269028715E+02  0.28616927617E+02  0.34837108584E+02  0.51100000000E-03 0.  1.
        -12    1    3    3    0    0  0.94887285019E+01 -0.13867433070E+01  0.79198257921E+01  0.12437148635E+02  0.00000000000E+00 0.  1.
</event>
<event>
 7    1  0.2942034E-011  0.5052887E+02  0.7816164E-02  0.1300439E+00
        -11   -1    0    0    0    0  0.00000000000E+00  0.00000000000E+00  0.45593999997E+02  0.45594000000E+02  0.51100000000E-03 0.  1.
         11   -1    0    0    0    0 -0.00000000000E+00 -0.00000000000E+00 -0.45593999997E+02  0.45594000000E+02  0.51100000000E-03 0. -1.
    9900012    2    1    2    0    0  0.14754711583E+02  0.13973048673E+02  0.35216723425E+02  0.50528865579E+02  0.30000017413E+02 0.  0.
         12    1    1    2    0    0 -0.14754711583E+02 -0.13973048673E+02 -0.35216723425E+02  0.40659134421E+02  0.00000000000E+00 0. -1.
         11    1    3    3    0    0  0.60352001672E+01 -0.33763988481E+01  0.18156478948E+02  0.19428881550E+02  0.51100000000E-03 0. -1.
        -11    1    3    3    0    0  0.12937877909E+01  0.17562762160E+02  0.78866973944E+01  0.19295711896E+02  0.51100000000E-03 0.  1.
        -12    1    3    3    0    0  0.74257236249E+01 -0.21331463947E+00  0.91735470823E+01  0.11804272132E+02  0.00000000000E+00 0.  1.
</event>
<event>
 7    1  0.2942034E-011  0.5052886E+02  0.7816164E-02  0.1300439E+00
        -11   -1    0    0    0    0  0.00000000000E+00  0.00000000000E+00  0.45593999997E+02  0.45594000000E+02  0.51100000000E-03 0.  1.
         11   -1    0    0    0    0 -0.00000000000E+00 -0.00000000000E+00 -0.45593999997E+02  0.45594000000E+02  0.51100000000E-03 0. -1.
    9900012    2    1    2    0    0  0.29751973543E+02 -0.13327623530E+01  0.27680494521E+02  0.50528856353E+02  0.29999989371E+02 0.  0.
         12    1    1    2    0    0 -0.29751973543E+02  0.13327623530E+01 -0.27680494521E+02  0.40659143647E+02  0.00000000000E+00 0. -1.
         11    1    3    3    0    0  0.29827716263E+01  0.21923363325E+01 -0.83306025314E+00  0.37943714652E+01  0.51100000000E-03 0. -1.
        -11    1    3    3    0    0  0.29052564498E+02 -0.89459791215E+01  0.27006295248E+02  0.40662292478E+02  0.51100000000E-03 0.  1.
        -12    1    3    3    0    0 -0.22833625809E+01  0.54208804360E+01  0.15072595261E+01  0.60721924094E+01  0.00000000000E+00 0.  1.
</event>
<event>
 7    1  0.2942034E-011  0.5052886E+02  0.7816164E-02  0.1300439E+00
        -11   -1    0    0    0    0  0.00000000000E+00  0.00000000000E+00  0.45593999997E+02  0.45594000000E+02  0.51100000000E-03 0.  1.
         11   -1    0    0    0    0 -0.00000000000E+00 -0.00000000000E+00 -0.45593999997E+02  0.45594000000E+02  0.51100000000E-03 0. -1.
    9900012    2    1    2    0    0  0.26249991171E+02 -0.16560651118E+02  0.26264960716E+02  0.50528863716E+02  0.30000011751E+02 0.  0.
         12    1    1    2    0    0 -0.26249991171E+02  0.16560651118E+02 -0.26264960716E+02  0.40659136284E+02  0.00000000000E+00 0. -1.
         11    1    3    3    0    0  0.51808013090E+01 -0.45195040373E+01 -0.27718509092E+01  0.74128116576E+01  0.51100000000E-03 0. -1.
        -11    1    3    3    0    0  0.89428917934E+01 -0.15206384090E+00  0.23673841116E+02  0.25307097630E+02  0.51100000000E-03 0.  1.
        -12    1    3    3    0    0  0.12126298069E+02 -0.11889083240E+02  0.53629705096E+01  0.17808954428E+02  0.00000000000E+00 0.  1.
</event>
<event>
 7    1  0.2942034E-011  0.5052886E+02  0.7816164E-02  0.1300439E+00
        -11   -1    0    0    0    0  0.00000000000E+00  0.00000000000E+00  0.45593999997E+02  0.45594000000E+02  0.51100000000E-03 0.  1.
         11   -1    0    0    0    0 -0.00000000000E+00 -0.00000000000E+00 -0.45593999997E+02  0.45594000000E+02  0.51100000000E-03 0. -1.
    9900012    2    1    2    0    0  0.20688650876E+02  0.29896251849E+02  0.18203273423E+02  0.50528864335E+02  0.30000013633E+02 0.  0.
         12    1    1    2    0    0 -0.20688650876E+02 -0.29896251849E+02 -0.18203273423E+02  0.40659135665E+02  0.00000000000E+00 0. -1.
         11    1    3    3    0    0 -0.67785140526E+00  0.81831272182E+01  0.20854711078E+01  0.84718500695E+01  0.51100000000E-03 0. -1.
        -11    1    3    3    0    0  0.91891448758E+01  0.10775838346E+02  0.20680668322E+02  0.25064898127E+02  0.51100000000E-03 0.  1.
        -12    1    3    3    0    0  0.12177357405E+02  0.10937286285E+02 -0.45628660071E+01  0.16992116138E+02  0.00000000000E+00 0.  1.
</event>
<event>
 7    1  0.2942034E-011  0.5052886E+02  0.7816164E-02  0.1300439E+00
        -11   -1    0    0    0    0  0.00000000000E+00  0.00000000000E+00  0.45593999997E+02  0.45594000000E+02  0.51100000000E-03 0. -1.
         11   -1    0    0    0    0 -0.00000000000E+00 -0.00000000000E+00 -0.45593999997E+02  0.45594000000E+02  0.51100000000E-03 0.  1.
    9900012    2    1    2    0    0  0.15521820883E+02  0.83711289696E+01 -0.36635546829E+02  0.50528855700E+02  0.29999987385E+02 0.  0.
         12    1    1    2    0    0 -0.15521820883E+02 -0.83711289696E+01  0.36635546829E+02  0.40659144300E+02  0.00000000000E+00 0. -1.
         11    1    3    3    0    0  0.43795189511E+01  0.41179135424E+01 -0.33349235808E+02  0.33886707238E+02  0.51100000000E-03 0. -1.
        -11    1    3    3    0    0  0.73752334946E+01 -0.31353495174E+01 -0.13720519108E+01  0.81306218953E+01  0.51100000000E-03 0.  1.
         12    1    3    3    0    0  0.37670684377E+01  0.73885649446E+01 -0.19142591104E+01  0.85115265668E+01  0.00000000000E+00 0. -1.
</event>
<event>
 7    1  0.2942034E-011  0.5052892E+02  0.7816164E-02  0.1300439E+00
        -11   -1    0    0    0    0  0.00000000000E+00  0.00000000000E+00  0.45593999997E+02  0.45594000000E+02  0.51100000000E-03 0.  1.
         11   -1    0    0    0    0 -0.00000000000E+00 -0.00000000000E+00 -0.45593999997E+02  0.45594000000E+02  0.51100000000E-03 0. -1.
    9900012    2    1    2    0    0  0.15124264582E+02 -0.12333000707E+02  0.35669516785E+02  0.50528920900E+02  0.30000185569E+02 0.  0.
         12    1    1    2    0    0 -0.15124264582E+02  0.12333000707E+02 -0.35669516785E+02  0.40659079100E+02  0.00000000000E+00 0. -1.
         11    1    3    3    0    0  0.69969294858E+01  0.80141298447E+01  0.33312278176E+01  0.11148110980E+02  0.51100000000E-03 0. -1.
        -11    1    3    3    0    0  0.75487090837E+01 -0.13995606694E+02  0.25304031925E+02  0.29885682985E+02  0.51100000000E-03 0.  1.
         12    1    3    3    0    0  0.57862601213E+00 -0.63515238580E+01  0.70342570423E+01  0.94951269353E+01  0.00000000000E+00 0. -1.
</event>
<event>
 7    1  0.2942034E-011  0.5052886E+02  0.7816164E-02  0.1300439E+00
        -11   -1    0    0    0    0  0.00000000000E+00  0.00000000000E+00  0.45593999997E+02  0.45594000000E+02  0.51100000000E-03 0.  1.
         11   -1    0    0    0    0 -0.00000000000E+00 -0.00000000000E+00 -0.45593999997E+02  0.45594000000E+02  0.51100000000E-03 0. -1.
    9900012    2    1    2    0    0  0.12740588122E+02  0.37428867500E+02 -0.94827886733E+01  0.50528856022E+02  0.29999988364E+02 0.  0.
         12    1    1    2    0    0 -0.12740588122E+02 -0.37428867500E+02  0.94827886733E+01  0.40659143978E+02  0.00000000000E+00 0. -1.
         11    1    3    3    0    0  0.18902498862E+02  0.16565150001E+02 -0.11453009029E+02  0.27620283740E+02  0.51100000000E-03 0. -1.
        -11    1    3    3    0    0 -0.60718837971E+01  0.15795049533E+02  0.40973729041E+01  0.17410911164E+02  0.51100000000E-03 0.  1.
         12    1    3    3    0    0 -0.90026943413E-01  0.50686679664E+01 -0.21271525481E+01  0.54976611179E+01  0.00000000000E+00 0. -1.
</event>
<event>
 7    1  0.2942034E-011  0.5052886E+02  0.7816164E-02  0.1300439E+00
        -11   -1    0    0    0    0  0.00000000000E+00  0.00000000000E+00  0.45593999997E+02  0.45594000000E+02  0.51100000000E-03 0.  1.
         11   -1    0    0    0    0 -0.00000000000E+00 -0.00000000000E+00 -0.45593999997E+02  0.45594000000E+02  0.51100000000E-03 0. -1.
    9900012    2    1    2    0    0 -0.82644729685E+01 -0.40633592111E+01  0.39602438524E+02  0.50528861561E+02  0.30000005200E+02 0.  0.
         12    1    1    2    0    0  0.82644729685E+01  0.40633592111E+01 -0.39602438524E+02  0.40659138439E+02  0.00000000000E+00 0. -1.
         11    1    3    3    0    0 -0.80295931927E+01 -0.60386723921E+01  0.72018832572E+01  0.12361515029E+02  0.51100000000E-03 0. -1.
        -11    1    3    3    0    0 -0.49813724977E+01  0.42179632334E+01  0.32262213715E+02  0.32915888563E+02  0.51100000000E-03 0.  1.
        -12    1    3    3    0    0  0.47464927219E+01 -0.22426500523E+01  0.13834155184E+00  0.52514579691E+01  0.00000000000E+00 0.  1.
</event>
<event>
 7    1  0.2942034E-011  0.5052886E+02  0.7816164E-02  0.1300439E+00
        -11   -1    0    0    0    0  0.00000000000E+00  0.00000000000E+00  0.45593999997E+02  0.45594000000E+02  0.51100000000E-03 0. -1.
         11   -1    0    0    0    0 -0.00000000000E+00 -0.00000000000E+00 -0.45593999997E+02  0.45594000000E+02  0.51100000000E-03 0.  1.
    9900012    2    1    2    0    0 -0.35413604754E+02 -0.16127332144E+02 -0.11787760001E+02  0.50528861672E+02  0.30000005537E+02 0.  0.
         12    1    1    2    0    0  0.35413604754E+02  0.16127332144E+02  0.11787760001E+02  0.40659138328E+02  0.00000000000E+00 0. -1.
         11    1    3    3    0    0 -0.34685055450E+02 -0.14437443884E+02 -0.53681840782E+01  0.37951419710E+02  0.51100000000E-03 0.  1.
        -11    1    3    3    0    0  0.43152348198E+01 -0.24509624934E+01 -0.86758551433E+00  0.50379731619E+01  0.51100000000E-03 0. -1.
        -12    1    3    3    0    0 -0.50437841240E+01  0.76107423296E+00 -0.55519904090E+01  0.75394687995E+01  0.00000000000E+00 0.  1.
</event>
<event>
 7    1  0.2942034E-011  0.5052892E+02  0.7816164E-02  0.1300439E+00
        -11   -1    0    0    0    0  0.00000000000E+00  0.00000000000E+00  0.45593999997E+02  0.45594000000E+02  0.51100000000E-03 0.  1.
         11   -1    0    0    0    0 -0.00000000000E+00 -0.00000000000E+00 -0.45593999997E+02  0.45594000000E+02  0.51100000000E-03 0. -1.
    9900012    2    1    2    0    0  0.16581521526E+02  0.30552631686E+02  0.21089102622E+02  0.50528924648E+02  0.30000196960E+02 0.  0.
         12    1    1    2    0    0 -0.16581521526E+02 -0.30552631686E+02 -0.21089102622E+02  0.40659075352E+02  0.00000000000E+00 0. -1.
         11    1    3    3    0    0  0.76587686095E+01  0.39798484813E+01  0.15320715503E+02  0.17584659631E+02  0.51100000000E-03 0. -1.
        -11    1    3    3    0    0  0.12138879519E+02  0.26215972855E+02  0.37545087998E+01  0.29132901766E+02  0.51100000000E-03 0.  1.
         12    1    3    3    0    0 -0.32161266025E+01  0.35681034958E+00  0.20138783198E+01  0.38113632517E+01  0.00000000000E+00 0. -1.
</event>
<event>
 7    1  0.2942034E-011  0.5052887E+02  0.7816164E-02  0.1300439E+00
        -11   -1    0    0    0    0  0.00000000000E+00  0.00000000000E+00  0.45593999997E+02  0.45594000000E+02  0.51100000000E-03 0. -1.
         11   -1    0    0    0    0 -0.00000000000E+00 -0.00000000000E+00 -0.45593999997E+02  0.45594000000E+02  0.51100000000E-03 0.  1.
    9900012    2    1    2    0    0 -0.12712023702E+02  0.75474399825E+01 -0.37876186811E+02  0.50528869116E+02  0.30000028166E+02 0.  0.
         12    1    1    2    0    0  0.12712023702E+02 -0.75474399825E+01  0.37876186811E+02  0.40659130884E+02  0.00000000000E+00 0. -1.
         11    1    3    3    0    0  0.86246187393E+00 -0.45662001155E+01 -0.24521883591E+02  0.24958301206E+02  0.51100000000E-03 0. -1.
        -11    1    3    3    0    0 -0.59367257932E+01  0.51155859693E+01  0.96631907989E+00  0.78960563434E+01  0.51100000000E-03 0.  1.
        -12    1    3    3    0    0 -0.76377597830E+01  0.69980541287E+01 -0.14320622299E+02  0.17674511567E+02  0.00000000000E+00 0.  1.
</event>
<event>
 7    1  0.2942034E-011  0.5052886E+02  0.7816164E-02  0.1300439E+00
        -11   -1    0    0    0    0  0.00000000000E+00  0.00000000000E+00  0.45593999997E+02  0.45594000000E+02  0.51100000000E-03 0. -1.
         11   -1    0    0    0    0 -0.00000000000E+00 -0.00000000000E+00 -0.45593999997E+02  0.45594000000E+02  0.51100000000E-03 0.  1.
    9900012    2    1    2    0    0  0.24511051202E+02  0.35295674715E+01  0.32247732278E+02  0.50528859396E+02  0.29999998621E+02 0.  0.
         12    1    1    2    0    0 -0.24511051202E+02 -0.35295674715E+01 -0.32247732278E+02  0.40659140604E+02  0.00000000000E+00 0. -1.
         11    1    3    3    0    0 -0.75199447582E+00  0.70178324812E+01 -0.14775506134E+01  0.72110071767E+01  0.51100000000E-03 0. -1.
        -11    1    3    3    0    0  0.20756634199E+02 -0.65074441893E+01  0.27413108983E+02  0.34995188777E+02  0.51100000000E-03 0.  1.
         12    1    3    3    0    0  0.45064114788E+01  0.30191791796E+01  0.63121739086E+01  0.83226634431E+01  0.00000000000E+00 0. -1.
</event>
<event>
 7    1  0.2942034E-011  0.5052889E+02  0.7816164E-02  0.1300439E+00
        -11   -1    0    0    0    0  0.00000000000E+00  0.00000000000E+00  0.45593999997E+02  0.45594000000E+02  0.51100000000E-03 0.  1.
         11   -1    0    0    0    0 -0.00000000000E+00 -0.00000000000E+00 -0.45593999997E+02  0.45594000000E+02  0.51100000000E-03 0. -1.
    9900012    2    1    2    0    0 -0.34158673659E+02  0.22052707512E+02  0.16310977369E+00  0.50528886636E+02  0.30000081419E+02 0.  0.
         12    1    1    2    0    0  0.34158673659E+02 -0.22052707512E+02 -0.16310977369E+00  0.40659113364E+02  0.00000000000E+00 0. -1.
         11    1    3    3    0    0 -0.93641160474E+01 -0.58429543987E+01 -0.17791135943E+01  0.11179983493E+02  0.51100000000E-03 0. -1.
        -11    1    3    3    0    0  0.49429841665E-01  0.56525764105E+01  0.20188148545E+01  0.60024725791E+01  0.51100000000E-03 0.  1.
         12    1    3    3    0    0 -0.24843987453E+02  0.22243085500E+02 -0.76591486503E-01  0.33346430564E+02  0.00000000000E+00 0. -1.
</event>
<event>
 7    1  0.2942034E-011  0.5052887E+02  0.7816164E-02  0.1300439E+00
        -11   -1    0    0    0    0  0.00000000000E+00  0.00000000000E+00  0.45593999997E+02  0.45594000000E+02  0.51100000000E-03 0. -1.
         11   -1    0    0    0    0 -0.00000000000E+00 -0.00000000000E+00 -0.45593999997E+02  0.45594000000E+02  0.51100000000E-03 0.  1.
    9900012    2    1    2    0    0 -0.18144722007E+02  0.32764540191E+02 -0.15824637318E+02  0.50528866009E+02  0.30000018722E+02 0.  0.
         12    1    1    2    0    0  0.18144722007E+02 -0.32764540191E+02  0.15824637318E+02  0.40659133991E+02  0.00000000000E+00 0. -1.
         11    1    3    3    0    0 -0.12508725300E+02  0.25924051070E+02 -0.29322109673E+00  0.28785597291E+02  0.51100000000E-03 0. -1.
        -11    1    3    3    0    0 -0.85988354146E+01  0.78273050313E+01 -0.14186972829E+02  0.18343305941E+02  0.51100000000E-03 0.  1.
        -12    1    3    3    0    0  0.29628387083E+01 -0.98681591072E+00 -0.13444433930E+01  0.33999627777E+01  0.00000000000E+00 0.  1.
</event>
<event>
 7    1  0.2942034E-011  0.5052886E+02  0.7816164E-02  0.1300439E+00
        -11   -1    0    0    0    0  0.00000000000E+00  0.00000000000E+00  0.45593999997E+02  0.45594000000E+02  0.51100000000E-03 0.  1.
         11   -1    0    0    0    0 -0.00000000000E+00 -0.00000000000E+00 -0.45593999997E+02  0.45594000000E+02  0.51100000000E-03 0. -1.
    9900012    2    1    2    0    0 -0.27660144297E+02  0.27823538927E+02  0.10673932526E+02  0.50528859127E+02  0.29999997802E+02 0.  0.
         12    1    1    2    0    0  0.27660144297E+02 -0.27823538927E+02 -0.10673932526E+02  0.40659140873E+02  0.00000000000E+00 0. -1.
         11    1    3    3    0    0 -0.73336822632E+01  0.23316065003E+02  0.12921874696E+02  0.27647723752E+02  0.51100000000E-03 0. -1.
        -11    1    3    3    0    0 -0.11293685209E+02 -0.15091153403E+01  0.12877454660E+01  0.11466605573E+02  0.51100000000E-03 0.  1.
        -12    1    3    3    0    0 -0.90327768248E+01  0.60165892649E+01 -0.35356876356E+01  0.11414529802E+02  0.00000000000E+00 0.  1.
</event>
<event>
 7    1  0.2942034E-011  0.5052886E+02  0.7816164E-02  0.1300439E+00
        -11   -1    0    0    0    0  0.00000000000E+00  0.00000000000E+00  0.45593999997E+02  0.45594000000E+02  0.51100000000E-03 0.  1.
         11   -1    0    0    0    0 -0.00000000000E+00 -0.00000000000E+00 -0.45593999997E+02  0.45594000000E+02  0.51100000000E-03 0. -1.
    9900012    2    1    2    0    0 -0.16594750237E+02  0.32606610520E+02  0.17736647154E+02  0.50528862806E+02  0.30000008987E+02 0.  0.
         12    1    1    2    0    0  0.16594750237E+02 -0.32606610520E+02 -0.17736647154E+02  0.40659137194E+02  0.00000000000E+00 0. -1.
         11    1    3    3    0    0  0.29507211940E+01  0.80962178969E+01 -0.44875180980E+01  0.97156224062E+01  0.51100000000E-03 0. -1.
        -11    1    3    3    0    0 -0.16081479921E+02  0.10222678640E+02  0.91477660048E+01  0.21137615243E+02  0.51100000000E-03 0.  1.
         12    1    3    3    0    0 -0.34639915100E+01  0.14287713984E+02  0.13076399247E+02  0.19675625158E+02  0.00000000000E+00 0. -1.
</event>
<event>
 7    1  0.2942034E-011  0.5052886E+02  0.7816164E-02  0.1300439E+00
        -11   -1    0    0    0    0  0.00000000000E+00  0.00000000000E+00  0.45593999997E+02  0.45594000000E+02  0.51100000000E-03 0.  1.
         11   -1    0    0    0    0 -0.00000000000E+00 -0.00000000000E+00 -0.45593999997E+02  0.45594000000E+02  0.51100000000E-03 0. -1.
    9900012    2    1    2    0    0 -0.34624988341E+02 -0.17490386812E+02  0.12180408769E+02  0.50528858270E+02  0.29999995198E+02 0.  0.
         12    1    1    2    0    0  0.34624988341E+02  0.17490386812E+02 -0.12180408769E+02  0.40659141730E+02  0.00000000000E+00 0. -1.
         11    1    3    3    0    0 -0.40380554313E+00 -0.96913497745E+01  0.36430244826E+01  0.10361319752E+02  0.51100000000E-03 0. -1.
        -11    1    3    3    0    0 -0.34590210367E+02 -0.55095754685E+01  0.11069661099E+02  0.36733846411E+02  0.51100000000E-03 0.  1.
        -12    1    3    3    0    0  0.36902756896E+00 -0.22894615692E+01 -0.25322768132E+01  0.34336921065E+01  0.00000000000E+00 0.  1.
</event>
<event>
 7    1  0.2942034E-011  0.5052888E+02  0.7816164E-02  0.1300439E+00
        -11   -1    0    0    0    0  0.00000000000E+00  0.00000000000E+00  0.45593999997E+02  0.45594000000E+02  0.51100000000E-03 0.  1.
         11   -1    0    0    0    0 -0.00000000000E+00 -0.00000000000E+00 -0.45593999997E+02  0.45594000000E+02  0.51100000000E-03 0. -1.
    9900012    2    1    2    0    0  0.31367415670E+02  0.25335829803E+02  0.52292616994E+01  0.50528877831E+02  0.30000054655E+02 0.  0.
         12    1    1    2    0    0 -0.31367415670E+02 -0.25335829803E+02 -0.52292616994E+01  0.40659122169E+02  0.00000000000E+00 0. -1.
         11    1    3    3    0    0  0.14346763705E+02  0.10090915413E+01  0.11707750311E+02  0.18545061665E+02  0.51100000000E-03 0. -1.
        -11    1    3    3    0    0  0.64794729556E+01  0.69416070592E+01  0.24064633510E+01  0.97959453075E+01  0.51100000000E-03 0.  1.
         12    1    3    3    0    0  0.10541179009E+02  0.17385131202E+02 -0.88849519630E+01  0.22187870858E+02  0.00000000000E+00 0. -1.
</event>
<event>
 7    1  0.2942034E-011  0.5052886E+02  0.7816164E-02  0.1300439E+00
        -11   -1    0    0    0    0  0.00000000000E+00  0.00000000000E+00  0.45593999997E+02  0.45594000000E+02  0.51100000000E-03 0.  1.
         11   -1    0    0    0    0 -0.00000000000E+00 -0.00000000000E+00 -0.45593999997E+02  0.45594000000E+02  0.51100000000E-03 0. -1.
    9900012    2    1    2    0    0  0.10030448217E+02  0.38127907602E+02 -0.99407371636E+01  0.50528862222E+02  0.30000007209E+02 0.  0.
         12    1    1    2    0    0 -0.10030448217E+02 -0.38127907602E+02  0.99407371636E+01  0.40659137778E+02  0.00000000000E+00 0. -1.
         11    1    3    3    0    0  0.11384755277E+02  0.28633650668E+02 -0.19514640851E+02  0.36473549473E+02  0.51100000000E-03 0. -1.
        -11    1    3    3    0    0 -0.69683173606E+00  0.89388820376E+01  0.71023773527E+01  0.11438223239E+02  0.51100000000E-03 0.  1.
         12    1    3    3    0    0 -0.65747532439E+00  0.55537489598E+00  0.24715263350E+01  0.26170895097E+01  0.00000000000E+00 0. -1.
</event>
<event>
 7    1  0.2942034E-011  0.5052888E+02  0.7816164E-02  0.1300439E+00
        -11   -1    0    0    0    0  0.00000000000E+00  0.00000000000E+00  0.45593999997E+02  0.45594000000E+02  0.51100000000E-03 0.  1.
         11   -1    0    0    0    0 -0.00000000000E+00 -0.00000000000E+00 -0.45593999997E+02  0.45594000000E+02  0.51100000000E-03 0. -1.
    9900012    2    1    2    0    0 -0.26399410763E+02 -0.25841097274E+02  0.16984500124E+02  0.50528875053E+02  0.30000046211E+02 0.  0.
         12    1    1    2    0    0  0.26399410763E+02  0.25841097274E+02 -0.16984500124E+02  0.40659124947E+02  0.00000000000E+00 0. -1.
         11    1    3    3    0    0 -0.80279320531E+01 -0.24506423911E+02  0.14753979976E+02  0.29710140211E+02  0.51100000000E-03 0. -1.
        -11    1    3    3    0    0 -0.12119720013E+02 -0.33530973007E+01  0.52019176347E+01  0.13608483458E+02  0.51100000000E-03 0.  1.
         12    1    3    3    0    0 -0.62517586975E+01  0.20184239373E+01 -0.29713974862E+01  0.72102513842E+01  0.00000000000E+00 0. -1.
</event>
<event>
 7    1  0.2942034E-011  0.5052884E+02  0.7816164E-02  0.1300439E+00
        -11   -1    0    0    0    0  0.00000000000E+00  0.00000000000E+00  0.45593999997E+02  0.45594000000E+02  0.51100000000E-03 0. -1.
         11   -1    0    0    0    0 -0.00000000000E+00 -0.00000000000E+00 -0.45593999997E+02  0.45594000000E+02  0.51100000000E-03 0.  1.
    9900012    2    1    2    0    0 -0.17198190153E+02  0.36358695089E+02 -0.59526861714E+01  0.50528844503E+02  0.29999953350E+02 0.  0.
         12    1    1    2    0    0  0.17198190153E+02 -0.36358695089E+02  0.59526861714E+01  0.40659155497E+02  0.00000000000E+00 0. -1.
         11    1    3    3    0    0  0.59130029379E+01  0.52802310444E+01  0.54182586385E+01  0.96021857179E+01  0.51100000000E-03 0. -1.
        -11    1    3    3    0    0 -0.45181357612E+01  0.89198081161E+01 -0.54974816554E+01  0.11410470297E+02  0.51100000000E-03 0.  1.
         12    1    3    3    0    0 -0.18593057330E+02  0.22158655928E+02 -0.58734631546E+01  0.29516188488E+02  0.00000000000E+00 0. -1.
</event>
<event>
 7    1  0.2942034E-011  0.5052885E+02  0.7816164E-02  0.1300439E+00
        -11   -1    0    0    0    0  0.00000000000E+00  0.00000000000E+00  0.45593999997E+02  0.45594000000E+02  0.51100000000E-03 0.  1.
         11   -1    0    0    0    0 -0.00000000000E+00 -0.00000000000E+00 -0.45593999997E+02  0.45594000000E+02  0.51100000000E-03 0. -1.
    9900012    2    1    2    0    0 -0.20282718523E+02  0.26295944156E+01  0.35140615369E+02  0.50528852370E+02  0.29999977263E+02 0.  0.
         12    1    1    2    0    0  0.20282718523E+02 -0.26295944156E+01 -0.35140615369E+02  0.40659147630E+02  0.00000000000E+00 0. -1.
         11    1    3    3    0    0  0.63673188485E+01  0.40648255421E+01  0.11694231134E+02  0.13921946634E+02  0.51100000000E-03 0. -1.
        -11    1    3    3    0    0 -0.10159322875E+02 -0.27901457707E+01  0.14106599261E+02  0.17606615168E+02  0.51100000000E-03 0.  1.
         12    1    3    3    0    0 -0.16490714496E+02  0.13549146442E+01  0.93397849742E+01  0.19000290568E+02  0.00000000000E+00 0. -1.
</event>
<event>
 7    1  0.2942034E-011  0.5052888E+02  0.7816164E-02  0.1300439E+00
        -11   -1    0    0    0    0  0.00000000000E+00  0.00000000000E+00  0.45593999997E+02  0.45594000000E+02  0.51100000000E-03 0.  1.
         11   -1    0    0    0    0 -0.00000000000E+00 -0.00000000000E+00 -0.45593999997E+02  0.45594000000E+02  0.51100000000E-03 0. -1.
    9900012    2    1    2    0    0  0.14473354535E+02 -0.22188809748E+02  0.30843843304E+02  0.50528881228E+02  0.30000064981E+02 0.  0.
         12    1    1    2    0    0 -0.14473354535E+02  0.22188809748E+02 -0.30843843304E+02  0.40659118772E+02  0.00000000000E+00 0. -1.
         11    1    3    3    0    0  0.20712555529E+01 -0.58179779194E+01 -0.43417323286E+01  0.75491460782E+01  0.51100000000E-03 0. -1.
        -11    1    3    3    0    0  0.98270000088E+01 -0.20538571641E+01  0.16260083668E+02  0.19109646244E+02  0.51100000000E-03 0.  1.
        -12    1    3    3    0    0  0.25750989731E+01 -0.14316974665E+02  0.18925491965E+02  0.23870088906E+02  0.00000000000E+00 0.  1.
</event>
<event>
 7    1  0.2942034E-011  0.5052886E+02  0.7816164E-02  0.1300439E+00
        -11   -1    0    0    0    0  0.00000000000E+00  0.00000000000E+00  0.45593999997E+02  0.45594000000E+02  0.51100000000E-03 0.  1.
         11   -1    0    0    0    0 -0.00000000000E+00 -0.00000000000E+00 -0.45593999997E+02  0.45594000000E+02  0.51100000000E-03 0. -1.
    9900012    2    1    2    0    0  0.24520155529E+02 -0.15644470750E+02  0.28410876479E+02  0.50528863333E+02  0.30000010587E+02 0.  0.
         12    1    1    2    0    0 -0.24520155529E+02  0.15644470750E+02 -0.28410876479E+02  0.40659136667E+02  0.00000000000E+00 0. -1.
         11    1    3    3    0    0  0.88991589916E+01 -0.35140630677E+01  0.27189032088E+02  0.28823378291E+02  0.51100000000E-03 0.  1.
        -11    1    3    3    0    0  0.39339241867E+01 -0.24910959850E+01 -0.35135894385E+01  0.58332349273E+01  0.51100000000E-03 0. -1.
        -12    1    3    3    0    0  0.11687072351E+02 -0.96393116974E+01  0.47354338296E+01  0.15872250114E+02  0.00000000000E+00 0.  1.
</event>
<event>
 7    1  0.2942034E-011  0.5052886E+02  0.7816164E-02  0.1300439E+00
        -11   -1    0    0    0    0  0.00000000000E+00  0.00000000000E+00  0.45593999997E+02  0.45594000000E+02  0.51100000000E-03 0.  1.
         11   -1    0    0    0    0 -0.00000000000E+00 -0.00000000000E+00 -0.45593999997E+02  0.45594000000E+02  0.51100000000E-03 0. -1.
    9900012    2    1    2    0    0 -0.79398358295E+01  0.39702962343E+02  0.37147916949E+01  0.50528857250E+02  0.29999992098E+02 0.  0.
         12    1    1    2    0    0  0.79398358295E+01 -0.39702962343E+02 -0.37147916949E+01  0.40659142750E+02  0.00000000000E+00 0. -1.
         11    1    3    3    0    0  0.25065358382E+01 -0.32033597670E+01 -0.24224128738E+01  0.47341651954E+01  0.51100000000E-03 0. -1.
        -11    1    3    3    0    0 -0.62458589809E+01  0.93646790776E+01  0.39158970544E+01  0.11918146611E+02  0.51100000000E-03 0.  1.
         12    1    3    3    0    0 -0.42005126869E+01  0.33541643032E+02  0.22213075142E+01  0.33876545444E+02  0.00000000000E+00 0. -1.
</event>
<event>
 7    1  0.2942034E-011  0.5052886E+02  0.7816164E-02  0.1300439E+00
        -11   -1    0    0    0    0  0.00000000000E+00  0.00000000000E+00  0.45593999997E+02  0.45594000000E+02  0.51100000000E-03 0. -1.
         11   -1    0    0    0    0 -0.00000000000E+00 -0.00000000000E+00 -0.45593999997E+02  0.45594000000E+02  0.51100000000E-03 0.  1.
    9900012    2    1    2    0    0 -0.20229196334E+02  0.20015456696E+02 -0.29040090228E+02  0.50528859189E+02  0.29999997990E+02 0.  0.
         12    1    1    2    0    0  0.20229196334E+02 -0.20015456696E+02  0.29040090228E+02  0.40659140811E+02  0.00000000000E+00 0. -1.
         11    1    3    3    0    0 -0.26608513418E+01 -0.76137277584E+00 -0.10390572429E+02  0.10752851437E+02  0.51100000000E-03 0. -1.
        -11    1    3    3    0    0 -0.24267291799E+01  0.14291859842E+02  0.51482632954E+00  0.14505561646E+02  0.51100000000E-03 0.  1.
        -12    1    3    3    0    0 -0.15141615812E+02  0.64849696300E+01 -0.19164344128E+02  0.25270446105E+02  0.00000000000E+00 0.  1.
</event>
<event>
 7    1  0.2942034E-011  0.5052886E+02  0.7816164E-02  0.1300439E+00
        -11   -1    0    0    0    0  0.00000000000E+00  0.00000000000E+00  0.45593999997E+02  0.45594000000E+02  0.51100000000E-03 0.  1.
         11   -1    0    0    0    0 -0.00000000000E+00 -0.00000000000E+00 -0.45593999997E+02  0.45594000000E+02  0.51100000000E-03 0. -1.
    9900012    2    1    2    0    0  0.20060600274E+02  0.13968927358E+02  0.32490110356E+02  0.50528857291E+02  0.29999992223E+02 0.  0.
         12    1    1    2    0    0 -0.20060600274E+02 -0.13968927358E+02 -0.32490110356E+02  0.40659142709E+02  0.00000000000E+00 0. -1.
         11    1    3    3    0    0 -0.36502175854E+01 -0.60402932229E+01  0.72461767154E+01  0.10115152391E+02  0.51100000000E-03 0. -1.
        -11    1    3    3    0    0  0.20460772591E+01  0.17794054545E+01  0.47199966679E+01  0.54434441972E+01  0.51100000000E-03 0.  1.
         12    1    3    3    0    0  0.21664740600E+02  0.18229815126E+02  0.20523936972E+02  0.34970260703E+02  0.00000000000E+00 0. -1.
</event>
<event>
 7    1  0.2942034E-011  0.5052888E+02  0.7816164E-02  0.1300439E+00
        -11   -1    0    0    0    0  0.00000000000E+00  0.00000000000E+00  0.45593999997E+02  0.45594000000E+02  0.51100000000E-03 0.  1.
         11   -1    0    0    0    0 -0.00000000000E+00 -0.00000000000E+00 -0.45593999997E+02  0.45594000000E+02  0.51100000000E-03 0. -1.
    9900012    2    1    2    0    0 -0.20492327965E+02  0.91546022962E+01  0.33903125742E+02  0.50528878223E+02  0.30000055846E+02 0.  0.
         12    1    1    2    0    0  0.20492327965E+02 -0.91546022962E+01 -0.33903125742E+02  0.40659121777E+02  0.00000000000E+00 0. -1.
         11    1    3    3    0    0  0.19756184928E+01  0.45630070542E+01  0.48644987349E+01  0.69561088266E+01  0.51100000000E-03 0. -1.
        -11    1    3    3    0    0 -0.15079918445E+02  0.38606490277E+01  0.21935902725E+01  0.15720063288E+02  0.51100000000E-03 0.  1.
        -12    1    3    3    0    0 -0.73880280125E+01  0.73094621440E+00  0.26845036734E+02  0.27852706108E+02  0.00000000000E+00 0.  1.
</event>
<event>
 7    1  0.2942034E-011  0.5052886E+02  0.7816164E-02  0.1300439E+00
        -11   -1    0    0    0    0  0.00000000000E+00  0.00000000000E+00  0.45593999997E+02  0.45594000000E+02  0.51100000000E-03 0.  1.
         11   -1    0    0    0    0 -0.00000000000E+00 -0.00000000000E+00 -0.45593999997E+02  0.45594000000E+02  0.51100000000E-03 0. -1.
    9900012    2    1    2    0    0 -0.17140560309E+02 -0.33706208096E+02  0.14941833310E+02  0.50528860135E+02  0.30000000867E+02 0.  0.
         12    1    1    2    0    0  0.17140560309E+02  0.33706208096E+02 -0.14941833310E+02  0.40659139865E+02  0.00000000000E+00 0. -1.
         11    1    3    3    0    0  0.50837962256E+01 -0.24519783279E+01 -0.43636881629E+01  0.71343504559E+01  0.51100000000E-03 0. -1.
        -11    1    3    3    0    0 -0.95995006710E+01 -0.93142506914E+01  0.47437511618E+01  0.14191858737E+02  0.51100000000E-03 0.  1.
         12    1    3    3    0    0 -0.12624855864E+02 -0.21939979076E+02  0.14561770311E+02  0.29202650942E+02  0.00000000000E+00 0. -1.
</event>
<event>
 7    1  0.2942034E-011  0.5052886E+02  0.7816164E-02  0.1300439E+00
        -11   -1    0    0    0    0  0.00000000000E+00  0.00000000000E+00  0.45593999997E+02  0.45594000000E+02  0.51100000000E-03 0. -1.
         11   -1    0    0    0    0 -0.00000000000E+00 -0.00000000000E+00 -0.45593999997E+02  0.45594000000E+02  0.51100000000E-03 0.  1.
    9900012    2    1    2    0    0  0.84625209830E+01 -0.22292471487E+02 -0.32933218312E+02  0.50528863084E+02  0.30000009831E+02 0.  0.
         12    1    1    2    0    0 -0.84625209830E+01  0.22292471487E+02  0.32933218312E+02  0.40659136916E+02  0.00000000000E+00 0. -1.
         11    1    3    3    0    0  0.18402788388E+00 -0.28873240316E+01  0.47853590825E+01  0.55919735456E+01  0.51100000000E-03 0. -1.
        -11    1    3    3    0    0  0.79020414763E+01 -0.19369878807E+02 -0.26735628463E+02  0.33947434278E+02  0.51100000000E-03 0.  1.
         12    1    3    3    0    0  0.37645162279E+00 -0.35268648099E-01 -0.10982948931E+02  0.10989455260E+02  0.00000000000E+00 0. -1.
</event>
<event>
 7    1  0.2942034E-011  0.5052887E+02  0.7816164E-02  0.1300439E+00
        -11   -1    0    0    0    0  0.00000000000E+00  0.00000000000E+00  0.45593999997E+02  0.45594000000E+02  0.51100000000E-03 0. -1.
         11   -1    0    0    0    0 -0.00000000000E+00 -0.00000000000E+00 -0.45593999997E+02  0.45594000000E+02  0.51100000000E-03 0.  1.
    9900012    2    1    2    0    0  0.38817890228E+02 -0.80569144717E+01  0.90234552314E+01  0.50528865517E+02  0.30000017226E+02 0.  0.
         12    1    1    2    0    0 -0.38817890228E+02  0.80569144717E+01 -0.90234552314E+01  0.40659134483E+02  0.00000000000E+00 0. -1.
         11    1    3    3    0    0  0.13316918062E+01  0.10183204312E+01  0.10935533414E+02  0.11063284814E+02  0.51100000000E-03 0. -1.
        -11    1    3    3    0    0  0.69005184333E+01 -0.20777528030E+01 -0.35771458662E+01  0.80455070796E+01  0.51100000000E-03 0.  1.
         12    1    3    3    0    0  0.30585679989E+02 -0.69974820999E+01  0.16650676838E+01  0.31420073624E+02  0.00000000000E+00 0. -1.
</event>
<event>
 7    1  0.2942034E-011  0.5052886E+02  0.7816164E-02  0.1300439E+00
        -11   -1    0    0    0    0  0.00000000000E+00  0.00000000000E+00  0.45593999997E+02  0.45594000000E+02  0.51100000000E-03 0.  1.
         11   -1    0    0    0    0 -0.00000000000E+00 -0.00000000000E+00 -0.45593999997E+02  0.45594000000E+02  0.51100000000E-03 0. -1.
    9900012    2    1    2    0    0  0.22188340388E+02  0.28625815517E+02  0.18477182910E+02  0.50528855254E+02  0.29999986029E+02 0.  0.
         12    1    1    2    0    0 -0.22188340388E+02 -0.28625815517E+02 -0.18477182910E+02  0.40659144746E+02  0.00000000000E+00 0. -1.
         11    1    3    3    0    0 -0.18170764754E+01  0.18119817558E+02  0.10569671546E+02  0.21055818960E+02  0.51100000000E-03 0. -1.
        -11    1    3    3    0    0  0.20446156064E+02  0.55407429642E+01  0.94134419885E+01  0.23180984033E+02  0.51100000000E-03 0.  1.
        -12    1    3    3    0    0  0.35592607993E+01  0.49652549952E+01 -0.15059306239E+01  0.62920522605E+01  0.00000000000E+00 0.  1.
</event>
<event>
 7    1  0.2942034E-011  0.5052884E+02  0.7816164E-02  0.1300439E+00
        -11   -1    0    0    0    0  0.00000000000E+00  0.00000000000E+00  0.45593999997E+02  0.45594000000E+02  0.51100000000E-03 0.  1.
         11   -1    0    0    0    0 -0.00000000000E+00 -0.00000000000E+00 -0.45593999997E+02  0.45594000000E+02  0.51100000000E-03 0. -1.
    9900012    2    1    2    0    0  0.46926537210E+01 -0.35627701763E+02  0.19021395867E+02  0.50528835811E+02  0.29999926931E+02 0.  0.
         12    1    1    2    0    0 -0.46926537210E+01  0.35627701763E+02 -0.19021395867E+02  0.40659164189E+02  0.00000000000E+00 0. -1.
         11    1    3    3    0    0 -0.23282990873E+00  0.26576034175E+01 -0.44875045714E+01  0.52206094692E+01  0.51100000000E-03 0. -1.
        -11    1    3    3    0    0  0.37643884432E+00 -0.11623727984E+02  0.81923838147E+01  0.14225607589E+02  0.51100000000E-03 0.  1.
         12    1    3    3    0    0  0.45490447854E+01 -0.26661577196E+02  0.15316516623E+02  0.31082618753E+02  0.00000000000E+00 0. -1.
</event>
<event>
 7    1  0.2942034E-011  0.5052885E+02  0.7816164E-02  0.1300439E+00
        -11   -1    0    0    0    0  0.00000000000E+00  0.00000000000E+00  0.45593999997E+02  0.45594000000E+02  0.51100000000E-03 0.  1.
         11   -1    0    0    0    0 -0.00000000000E+00 -0.00000000000E+00 -0.45593999997E+02  0.45594000000E+02  0.51100000000E-03 0. -1.
    9900012    2    1    2    0    0  0.35167166499E+02 -0.15568060285E+02 -0.13193636847E+02  0.50528853995E+02  0.29999982202E+02 0.  0.
         12    1    1    2    0    0 -0.35167166499E+02  0.15568060285E+02  0.13193636847E+02  0.40659146005E+02  0.00000000000E+00 0. -1.
         11    1    3    3    0    0 -0.86729257380E+00  0.28113624435E+01  0.14997574938E+01  0.33023064665E+01  0.51100000000E-03 0. -1.
        -11    1    3    3    0    0  0.28968727280E+02 -0.22515051421E+02 -0.12313160484E+02  0.38700498990E+02  0.51100000000E-03 0.  1.
        -12    1    3    3    0    0  0.70657317931E+01  0.41356286927E+01 -0.23802338570E+01  0.85260485378E+01  0.00000000000E+00 0.  1.
</event>
<event>
 7    1  0.2942034E-011  0.5052883E+02  0.7816164E-02  0.1300439E+00
        -11   -1    0    0    0    0  0.00000000000E+00  0.00000000000E+00  0.45593999997E+02  0.45594000000E+02  0.51100000000E-03 0.  1.
         11   -1    0    0    0    0 -0.00000000000E+00 -0.00000000000E+00 -0.45593999997E+02  0.45594000000E+02  0.51100000000E-03 0. -1.
    9900012    2    1    2    0    0  0.17398414784E+02  0.36742295381E+02 -0.68327080961E+00  0.50528831712E+02  0.29999914472E+02 0.  0.
         12    1    1    2    0    0 -0.17398414784E+02 -0.36742295381E+02  0.68327080961E+00  0.40659168288E+02  0.00000000000E+00 0. -1.
         11    1    3    3    0    0 -0.20424161860E+00 -0.41168982230E+01  0.33330644500E+01  0.53009324186E+01  0.51100000000E-03 0. -1.
        -11    1    3    3    0    0  0.95087019892E+01  0.21016881328E+02  0.14458216537E+01  0.23113094012E+02  0.51100000000E-03 0.  1.
         12    1    3    3    0    0  0.80939544131E+01  0.19842312276E+02 -0.54621569133E+01  0.22114805282E+02  0.00000000000E+00 0. -1.
</event>
<event>
 7    1  0.2942034E-011  0.5052886E+02  0.7816164E-02  0.1300439E+00
        -11   -1    0    0    0    0  0.00000000000E+00  0.00000000000E+00  0.45593999997E+02  0.45594000000E+02  0.51100000000E-03 0.  1.
         11   -1    0    0    0    0 -0.00000000000E+00 -0.00000000000E+00 -0.45593999997E+02  0.45594000000E+02  0.51100000000E-03 0. -1.
    9900012    2    1    2    0    0  0.25074030587E+02 -0.25192993645E+02  0.19742632809E+02  0.50528862172E+02  0.30000007058E+02 0.  0.
         12    1    1    2    0    0 -0.25074030587E+02  0.25192993645E+02 -0.19742632809E+02  0.40659137828E+02  0.00000000000E+00 0. -1.
         11    1    3    3    0    0  0.30582645741E+02 -0.19805524080E+02  0.17055966072E+02  0.40230125323E+02  0.51100000000E-03 0. -1.
        -11    1    3    3    0    0 -0.48985656982E+01 -0.66134089201E+01  0.32085189892E+01  0.88333299389E+01  0.51100000000E-03 0.  1.
         12    1    3    3    0    0 -0.61004945526E+00  0.12259393549E+01 -0.52185225197E+00  0.14654069103E+01  0.00000000000E+00 0. -1.
</event>
<event>
 7    1  0.2942034E-011  0.5052886E+02  0.7816164E-02  0.1300439E+00
        -11   -1    0    0    0    0  0.00000000000E+00  0.00000000000E+00  0.45593999997E+02  0.45594000000E+02  0.51100000000E-03 0. -1.
         11   -1    0    0    0    0 -0.00000000000E+00 -0.00000000000E+00 -0.45593999997E+02  0.45594000000E+02  0.51100000000E-03 0.  1.
    9900012    2    1    2    0    0  0.11229364189E+02  0.15187525918E+02 -0.36005636692E+02  0.50528862808E+02  0.30000008991E+02 0.  0.
         12    1    1    2    0    0 -0.11229364189E+02 -0.15187525918E+02  0.36005636692E+02  0.40659137192E+02  0.00000000000E+00 0. -1.
         11    1    3    3    0    0  0.10416812016E+01  0.16678205187E+02 -0.62581602765E+01  0.17844108223E+02  0.51100000000E-03 0. -1.
        -11    1    3    3    0    0  0.89576438511E+01  0.13061331150E+01 -0.27325462382E+02  0.28785869132E+02  0.51100000000E-03 0.  1.
        -12    1    3    3    0    0  0.12300391365E+01 -0.27968123840E+01 -0.24220140341E+01  0.38988854523E+01  0.00000000000E+00 0.  1.
</event>
<event>
 7    1  0.2942034E-011  0.5052885E+02  0.7816164E-02  0.1300439E+00
        -11   -1    0    0    0    0  0.00000000000E+00  0.00000000000E+00  0.45593999997E+02  0.45594000000E+02  0.51100000000E-03 0.  1.
         11   -1    0    0    0    0 -0.00000000000E+00 -0.00000000000E+00 -0.45593999997E+02  0.45594000000E+02  0.51100000000E-03 0. -1.
    9900012    2    1    2    0    0 -0.39070558889E+02 -0.91202050147E+01 -0.65939078406E+01  0.50528851804E+02  0.29999975543E+02 0.  0.
         12    1    1    2    0    0  0.39070558889E+02  0.91202050147E+01  0.65939078406E+01  0.40659148196E+02  0.00000000000E+00 0. -1.
         11    1    3    3    0    0 -0.18247319416E+02 -0.16484890902E+02 -0.45506223946E+01  0.25008487727E+02  0.51100000000E-03 0. -1.
        -11    1    3    3    0    0 -0.15566675642E+02  0.53391034595E-01 -0.44671352421E+01  0.16195046733E+02  0.51100000000E-03 0.  1.
         12    1    3    3    0    0 -0.52565638308E+01  0.73112948528E+01  0.24238497962E+01  0.93253173440E+01  0.00000000000E+00 0. -1.
</event>
<event>
 7    1  0.2942034E-011  0.5052886E+02  0.7816164E-02  0.1300439E+00
        -11   -1    0    0    0    0  0.00000000000E+00  0.00000000000E+00  0.45593999997E+02  0.45594000000E+02  0.51100000000E-03 0.  1.
         11   -1    0    0    0    0 -0.00000000000E+00 -0.00000000000E+00 -0.45593999997E+02  0.45594000000E+02  0.51100000000E-03 0. -1.
    9900012    2    1    2    0    0  0.13482109982E+02 -0.70813765743E+01  0.37699502077E+02  0.50528860306E+02  0.30000001387E+02 0.  0.
         12    1    1    2    0    0 -0.13482109982E+02  0.70813765743E+01 -0.37699502077E+02  0.40659139694E+02  0.00000000000E+00 0. -1.
         11    1    3    3    0    0 -0.87664878732E+01  0.71172067473E+00  0.68006165901E+01  0.11117834421E+02  0.51100000000E-03 0. -1.
        -11    1    3    3    0    0  0.37313803344E+01 -0.22725877730E+01  0.10192163863E+02  0.11089096395E+02  0.51100000000E-03 0.  1.
         12    1    3    3    0    0  0.18517217521E+02 -0.55205094760E+01  0.20706721624E+02  0.28321929490E+02  0.00000000000E+00 0. -1.
</event>
<event>
 7    1  0.2942034E-011  0.5052886E+02  0.7816164E-02  0.1300439E+00
        -11   -1    0    0    0    0  0.00000000000E+00  0.00000000000E+00  0.45593999997E+02  0.45594000000E+02  0.51100000000E-03 0.  1.
         11   -1    0    0    0    0 -0.00000000000E+00 -0.00000000000E+00 -0.45593999997E+02  0.45594000000E+02  0.51100000000E-03 0. -1.
    9900012    2    1    2    0    0 -0.39788982189E+02 -0.33412197466E+01  0.76706609889E+01  0.50528857202E+02  0.29999991953E+02 0.  0.
         12    1    1    2    0    0  0.39788982189E+02  0.33412197466E+01 -0.76706609889E+01  0.40659142798E+02  0.00000000000E+00 0. -1.
         11    1    3    3    0    0 -0.51113374135E+01  0.91152195376E+01  0.26680843839E+01  0.10785716106E+02  0.51100000000E-03 0. -1.
        -11    1    3    3    0    0 -0.29223816602E+02 -0.49012301882E+01  0.11330892126E+01  0.29653623818E+02  0.51100000000E-03 0.  1.
        -12    1    3    3    0    0 -0.54538281737E+01 -0.75552090960E+01  0.38694873923E+01  0.10089517278E+02  0.00000000000E+00 0.  1.
</event>
<event>
 7    1  0.2942034E-011  0.5052885E+02  0.7816164E-02  0.1300439E+00
        -11   -1    0    0    0    0  0.00000000000E+00  0.00000000000E+00  0.45593999997E+02  0.45594000000E+02  0.51100000000E-03 0. -1.
         11   -1    0    0    0    0 -0.00000000000E+00 -0.00000000000E+00 -0.45593999997E+02  0.45594000000E+02  0.51100000000E-03 0.  1.
    9900012    2    1    2    0    0 -0.20141088549E+02 -0.28335704868E+02 -0.21085317721E+02  0.50528852915E+02  0.29999978920E+02 0.  0.
         12    1    1    2    0    0  0.20141088549E+02  0.28335704868E+02  0.21085317721E+02  0.40659147085E+02  0.00000000000E+00 0. -1.
         11    1    3    3    0    0 -0.43659936295E+01 -0.23446218617E+02 -0.34924694105E+01  0.24103618206E+02  0.51100000000E-03 0. -1.
        -11    1    3    3    0    0 -0.61702024939E+01 -0.59527033601E+01 -0.13362078240E+02  0.15876120788E+02  0.51100000000E-03 0.  1.
         12    1    3    3    0    0 -0.96048924257E+01  0.10632171085E+01 -0.42307700696E+01  0.10549113921E+02  0.00000000000E+00 0. -1.
</event>
<event>
 7    1  0.2942034E-011  0.5052885E+02  0.7816164E-02  0.1300439E+00
        -11   -1    0    0    0    0  0.00000000000E+00  0.00000000000E+00  0.45593999997E+02  0.45594000000E+02  0.51100000000E-03 0.  1.
         11   -1    0    0    0    0 -0.00000000000E+00 -0.00000000000E+00 -0.45593999997E+02  0.45594000000E+02  0.51100000000E-03 0. -1.
    9900012    2    1    2    0    0 -0.11887867275E+02 -0.21814883644E+02  0.32186263348E+02  0.50528854841E+02  0.29999984773E+02 0.  0.
         12    1    1    2    0    0  0.11887867275E+02  0.21814883644E+02 -0.32186263348E+02  0.40659145159E+02  0.00000000000E+00 0. -1.
         11    1    3    3    0    0 -0.46656418514E+01  0.67746514464E+01  0.11400939558E+02  0.14058646420E+02  0.51100000000E-03 0.  1.
        -11    1    3    3    0    0 -0.42138213028E+01 -0.18245279896E+02  0.16205846456E+02  0.24764409706E+02  0.51100000000E-03 0. -1.
        -12    1    3    3    0    0 -0.30084041205E+01 -0.10344255195E+02  0.45794773347E+01  0.11705798715E+02  0.00000000000E+00 0.  1.
</event>
<event>
 7    1  0.2942034E-011  0.5052886E+02  0.7816164E-02  0.1300439E+00
        -11   -1    0    0    0    0  0.00000000000E+00  0.00000000000E+00  0.45593999997E+02  0.45594000000E+02  0.51100000000E-03 0. -1.
         11   -1    0    0    0    0 -0.00000000000E+00 -0.00000000000E+00 -0.45593999997E+02  0.45594000000E+02  0.51100000000E-03 0.  1.
    9900012    2    1    2    0    0 -0.34340766981E+02  0.16302643538E+02 -0.14425709455E+02  0.50528861342E+02  0.30000004534E+02 0.  0.
         12    1    1    2    0    0  0.34340766981E+02 -0.16302643538E+02  0.14425709455E+02  0.40659138658E+02  0.00000000000E+00 0. -1.
         11    1    3    3    0    0 -0.15667302065E+01 -0.18908522135E+01 -0.10500399234E+02  0.10783707617E+02  0.51100000000E-03 0. -1.
        -11    1    3    3    0    0 -0.26116533631E+02  0.15740811189E+02 -0.80504325125E+01  0.31538166239E+02  0.51100000000E-03 0.  1.
        -12    1    3    3    0    0 -0.66575031432E+01  0.24526845624E+01  0.41251222921E+01  0.82069874856E+01  0.00000000000E+00 0.  1.
</event>
<event>
 7    1  0.2942034E-011  0.5052884E+02  0.7816164E-02  0.1300439E+00
        -11   -1    0    0    0    0  0.00000000000E+00  0.00000000000E+00  0.45593999997E+02  0.45594000000E+02  0.51100000000E-03 0. -1.
         11   -1    0    0    0    0 -0.00000000000E+00 -0.00000000000E+00 -0.45593999997E+02  0.45594000000E+02  0.51100000000E-03 0.  1.
    9900012    2    1    2    0    0  0.33973350980E+02 -0.14951259930E+02 -0.16596340445E+02  0.50528840312E+02  0.29999940614E+02 0.  0.
         12    1    1    2    0    0 -0.33973350980E+02  0.14951259930E+02  0.16596340445E+02  0.40659159688E+02  0.00000000000E+00 0. -1.
         11    1    3    3    0    0  0.12429852965E+02 -0.36562637610E+01  0.59135181478E+01  0.14242162987E+02  0.51100000000E-03 0. -1.
        -11    1    3    3    0    0  0.62159372488E+01 -0.84292472215E+01 -0.16566066605E+02  0.19599098133E+02  0.51100000000E-03 0.  1.
         12    1    3    3    0    0  0.15327560767E+02 -0.28657489472E+01 -0.59437919882E+01  0.16687579192E+02  0.00000000000E+00 0. -1.
</event>
<event>
 7    1  0.2942034E-011  0.5052886E+02  0.7816164E-02  0.1300439E+00
        -11   -1    0    0    0    0  0.00000000000E+00  0.00000000000E+00  0.45593999997E+02  0.45594000000E+02  0.51100000000E-03 0.  1.
         11   -1    0    0    0    0 -0.00000000000E+00 -0.00000000000E+00 -0.45593999997E+02  0.45594000000E+02  0.51100000000E-03 0. -1.
    9900012    2    1    2    0    0  0.47740726502E+01 -0.31088653296E+00  0.40376695605E+02  0.50528856280E+02  0.29999989148E+02 0.  0.
         12    1    1    2    0    0 -0.47740726502E+01  0.31088653296E+00 -0.40376695605E+02  0.40659143720E+02  0.00000000000E+00 0. -1.
         11    1    3    3    0    0  0.92356020840E+00 -0.99266432119E+01  0.42450798527E+01  0.10835677742E+02  0.51100000000E-03 0. -1.
        -11    1    3    3    0    0  0.68519066480E+01  0.49029763530E+01  0.30938171178E+02  0.32064906641E+02  0.51100000000E-03 0.  1.
         12    1    3    3    0    0 -0.30013942062E+01  0.47127803259E+01  0.51934445742E+01  0.76282718965E+01  0.00000000000E+00 0. -1.
</event>
<event>
 7    1  0.2942034E-011  0.5052886E+02  0.7816164E-02  0.1300439E+00
        -11   -1    0    0    0    0  0.00000000000E+00  0.00000000000E+00  0.45593999997E+02  0.45594000000E+02  0.51100000000E-03 0.  1.
         11   -1    0    0    0    0 -0.00000000000E+00 -0.00000000000E+00 -0.45593999997E+02  0.45594000000E+02  0.51100000000E-03 0. -1.
    9900012    2    1    2    0    0 -0.34763239517E+02 -0.86467244444E+00  0.21069770134E+02  0.50528859654E+02  0.29999999404E+02 0.  0.
         12    1    1    2    0    0  0.34763239517E+02  0.86467244444E+00 -0.21069770134E+02  0.40659140346E+02  0.00000000000E+00 0. -1.
         11    1    3    3    0    0 -0.48921702856E+01  0.54907573244E+01 -0.27826032876E+01  0.78628638178E+01  0.51100000000E-03 0. -1.
        -11    1    3    3    0    0 -0.16778348838E+02 -0.12059828785E+02  0.17318956757E+02  0.26961059391E+02  0.51100000000E-03 0.  1.
        -12    1    3    3    0    0 -0.13092720394E+02  0.57043990158E+01  0.65334166645E+01  0.15704936445E+02  0.00000000000E+00 0.  1.
</event>
<event>
 7    1  0.2942034E-011  0.5052886E+02  0.7816164E-02  0.1300439E+00
        -11   -1    0    0    0    0  0.00000000000E+00  0.00000000000E+00  0.45593999997E+02  0.45594000000E+02  0.51100000000E-03 0.  1.
         11   -1    0    0    0    0 -0.00000000000E+00 -0.00000000000E+00 -0.45593999997E+02  0.45594000000E+02  0.51100000000E-03 0. -1.
    9900012    2    1    2    0    0  0.17616123341E+02  0.10536717615E+02  0.35097226618E+02  0.50528861594E+02  0.30000005300E+02 0.  0.
         12    1    1    2    0    0 -0.17616123341E+02 -0.10536717615E+02 -0.35097226618E+02  0.40659138406E+02  0.00000000000E+00 0. -1.
         11    1    3    3    0    0  0.38818636066E+01  0.11147326582E+02  0.67406737614E+01  0.13592955455E+02  0.51100000000E-03 0. -1.
        -11    1    3    3    0    0 -0.69048404691E+00 -0.75547305946E+01  0.77986082408E+01  0.10879752448E+02  0.51100000000E-03 0.  1.
        -12    1    3    3    0    0  0.14424743781E+02  0.69441216281E+01  0.20557944616E+02  0.26056153691E+02  0.00000000000E+00 0.  1.
</event>
<event>
 7    1  0.2942034E-011  0.5052885E+02  0.7816164E-02  0.1300439E+00
        -11   -1    0    0    0    0  0.00000000000E+00  0.00000000000E+00  0.45593999997E+02  0.45594000000E+02  0.51100000000E-03 0.  1.
         11   -1    0    0    0    0 -0.00000000000E+00 -0.00000000000E+00 -0.45593999997E+02  0.45594000000E+02  0.51100000000E-03 0. -1.
    9900012    2    1    2    0    0  0.55927482140E+01  0.38051728479E+02 -0.13189141612E+02  0.50528851838E+02  0.29999975646E+02 0.  0.
         12    1    1    2    0    0 -0.55927482140E+01 -0.38051728479E+02  0.13189141612E+02  0.40659148162E+02  0.00000000000E+00 0. -1.
         11    1    3    3    0    0 -0.16095554522E+01  0.34215463318E+01 -0.63387341330E+01  0.73808670713E+01  0.51100000000E-03 0. -1.
        -11    1    3    3    0    0  0.12777197263E+02  0.33995232709E+02 -0.32081358301E+01  0.36458534702E+02  0.51100000000E-03 0.  1.
        -12    1    3    3    0    0 -0.55748935968E+01  0.63494943807E+00 -0.36422716493E+01  0.66894500650E+01  0.00000000000E+00 0.  1.
</event>
<event>
 7    1  0.2942034E-011  0.5052888E+02  0.7816164E-02  0.1300439E+00
        -11   -1    0    0    0    0  0.00000000000E+00  0.00000000000E+00  0.45593999997E+02  0.45594000000E+02  0.51100000000E-03 0.  1.
         11   -1    0    0    0    0 -0.00000000000E+00 -0.00000000000E+00 -0.45593999997E+02  0.45594000000E+02  0.51100000000E-03 0. -1.
    9900012    2    1    2    0    0  0.36288615757E+02  0.17392888730E+02 -0.58127426965E+01  0.50528878150E+02  0.30000055625E+02 0.  0.
         12    1    1    2    0    0 -0.36288615757E+02 -0.17392888730E+02  0.58127426965E+01  0.40659121850E+02  0.00000000000E+00 0. -1.
         11    1    3    3    0    0  0.15104318913E+02 -0.52033718547E+01 -0.58683659236E+01  0.17019202312E+02  0.51100000000E-03 0. -1.
        -11    1    3    3    0    0  0.14896353747E+02  0.91507823323E+01  0.44305944907E+01  0.18035197256E+02  0.51100000000E-03 0.  1.
         12    1    3    3    0    0  0.62879430976E+01  0.13445478252E+02 -0.43749712637E+01  0.15474478582E+02  0.00000000000E+00 0. -1.
</event>
<event>
 7    1  0.2942034E-011  0.5052886E+02  0.7816164E-02  0.1300439E+00
        -11   -1    0    0    0    0  0.00000000000E+00  0.00000000000E+00  0.45593999997E+02  0.45594000000E+02  0.51100000000E-03 0.  1.
         11   -1    0    0    0    0 -0.00000000000E+00 -0.00000000000E+00 -0.45593999997E+02  0.45594000000E+02  0.51100000000E-03 0. -1.
    9900012    2    1    2    0    0 -0.25802320100E+02  0.14276136398E+01  0.31390564674E+02  0.50528863834E+02  0.30000012110E+02 0.  0.
         12    1    1    2    0    0  0.25802320100E+02 -0.14276136398E+01 -0.31390564674E+02  0.40659136166E+02  0.00000000000E+00 0. -1.
         11    1    3    3    0    0 -0.88792404031E+01  0.10203825255E+02  0.10107122856E+02  0.16885286277E+02  0.51100000000E-03 0. -1.
        -11    1    3    3    0    0 -0.11043416551E+02 -0.10139558197E+02  0.42658444755E+01  0.15587338416E+02  0.51100000000E-03 0.  1.
         12    1    3    3    0    0 -0.58796631455E+01  0.13633465810E+01  0.17017597342E+02  0.18056239141E+02  0.00000000000E+00 0. -1.
</event>
<event>
 7    1  0.2942034E-011  0.5052885E+02  0.7816164E-02  0.1300439E+00
        -11   -1    0    0    0    0  0.00000000000E+00  0.00000000000E+00  0.45593999997E+02  0.45594000000E+02  0.51100000000E-03 0.  1.
         11   -1    0    0    0    0 -0.00000000000E+00 -0.00000000000E+00 -0.45593999997E+02  0.45594000000E+02  0.51100000000E-03 0. -1.
    9900012    2    1    2    0    0 -0.30288095650E+02  0.14180241027E+02  0.23123975659E+02  0.50528853132E+02  0.29999979581E+02 0.  0.
         12    1    1    2    0    0  0.30288095650E+02 -0.14180241027E+02 -0.23123975659E+02  0.40659146868E+02  0.00000000000E+00 0. -1.
         11    1    3    3    0    0 -0.21813570885E+01  0.39757127713E+01  0.10732759853E+01  0.46601000407E+01  0.51100000000E-03 0. -1.
        -11    1    3    3    0    0 -0.10321394331E+02  0.14385815631E+02  0.21141112110E+02  0.27575886093E+02  0.51100000000E-03 0.  1.
        -12    1    3    3    0    0 -0.17785344230E+02 -0.41812873745E+01  0.90958756458E+00  0.18292866999E+02  0.00000000000E+00 0.  1.
</event>
<event>
 7    1  0.2942034E-011  0.5052893E+02  0.7816164E-02  0.1300439E+00
        -11   -1    0    0    0    0  0.00000000000E+00  0.00000000000E+00  0.45593999997E+02  0.45594000000E+02  0.51100000000E-03 0. -1.
         11   -1    0    0    0    0 -0.00000000000E+00 -0.00000000000E+00 -0.45593999997E+02  0.45594000000E+02  0.51100000000E-03 0.  1.
    9900012    2    1    2    0    0  0.83159410188E+01 -0.39736255636E+02 -0.22438771193E+01  0.50528931251E+02  0.30000217031E+02 0.  0.
         12    1    1    2    0    0 -0.83159410188E+01  0.39736255636E+02  0.22438771193E+01  0.40659068749E+02  0.00000000000E+00 0. -1.
         11    1    3    3    0    0 -0.42246021504E+01 -0.59016069605E+01 -0.22361488893E+01  0.75945105281E+01  0.51100000000E-03 0. -1.
        -11    1    3    3    0    0  0.16395314255E+02 -0.33062746258E+02 -0.42524923578E+01  0.37148825165E+02  0.51100000000E-03 0.  1.
        -12    1    3    3    0    0 -0.38547710853E+01 -0.77190241688E+00  0.42447641278E+01  0.57855955581E+01  0.00000000000E+00 0.  1.
</event>
<event>
 7    1  0.2942034E-011  0.5052886E+02  0.7816164E-02  0.1300439E+00
        -11   -1    0    0    0    0  0.00000000000E+00  0.00000000000E+00  0.45593999997E+02  0.45594000000E+02  0.51100000000E-03 0.  1.
         11   -1    0    0    0    0 -0.00000000000E+00 -0.00000000000E+00 -0.45593999997E+02  0.45594000000E+02  0.51100000000E-03 0. -1.
    9900012    2    1    2    0    0  0.11490897102E+01  0.23210552721E+02  0.33363386325E+02  0.50528859431E+02  0.29999998726E+02 0.  0.
         12    1    1    2    0    0 -0.11490897102E+01 -0.23210552721E+02 -0.33363386325E+02  0.40659140569E+02  0.00000000000E+00 0. -1.
         11    1    3    3    0    0  0.45909004591E+01 -0.41428481406E+01  0.43572285696E+01  0.75647206697E+01  0.51100000000E-03 0. -1.
        -11    1    3    3    0    0 -0.60541793748E+01  0.17986913113E+02  0.96232779008E+01  0.21278853565E+02  0.51100000000E-03 0.  1.
        -12    1    3    3    0    0  0.26123686260E+01  0.93664877490E+01  0.19382879854E+02  0.21685285196E+02  0.00000000000E+00 0.  1.
</event>
<event>
 7    1  0.2942034E-011  0.5052885E+02  0.7816164E-02  0.1300439E+00
        -11   -1    0    0    0    0  0.00000000000E+00  0.00000000000E+00  0.45593999997E+02  0.45594000000E+02  0.51100000000E-03 0.  1.
         11   -1    0    0    0    0 -0.00000000000E+00 -0.00000000000E+00 -0.45593999997E+02  0.45594000000E+02  0.51100000000E-03 0. -1.
    9900012    2    1    2    0    0 -0.10224099024E+02  0.14916802229E+02  0.36415970468E+02  0.50528854722E+02  0.29999984413E+02 0.  0.
         12    1    1    2    0    0  0.10224099024E+02 -0.14916802229E+02 -0.36415970468E+02  0.40659145278E+02  0.00000000000E+00 0. -1.
         11    1    3    3    0    0 -0.28175094977E+01 -0.20151321471E+01  0.98572117974E+01  0.10448145387E+02  0.51100000000E-03 0. -1.
        -11    1    3    3    0    0 -0.15313557488E+02  0.13674829671E+02  0.13860254532E+02  0.24771206378E+02  0.51100000000E-03 0.  1.
        -12    1    3    3    0    0  0.79069679622E+01  0.32571047045E+01  0.12698504139E+02  0.15309502957E+02  0.00000000000E+00 0.  1.
</event>
<event>
 7    1  0.2942034E-011  0.5052888E+02  0.7816164E-02  0.1300439E+00
        -11   -1    0    0    0    0  0.00000000000E+00  0.00000000000E+00  0.45593999997E+02  0.45594000000E+02  0.51100000000E-03 0.  1.
         11   -1    0    0    0    0 -0.00000000000E+00 -0.00000000000E+00 -0.45593999997E+02  0.45594000000E+02  0.51100000000E-03 0. -1.
    9900012    2    1    2    0    0  0.27558908822E+02  0.21175405448E+02  0.21101490469E+02  0.50528878620E+02  0.30000057054E+02 0.  0.
         12    1    1    2    0    0 -0.27558908822E+02 -0.21175405448E+02 -0.21101490469E+02  0.40659121380E+02  0.00000000000E+00 0. -1.
         11    1    3    3    0    0  0.65085552966E+01  0.18725375332E+01 -0.80924466487E+00  0.68207452710E+01  0.51100000000E-03 0. -1.
        -11    1    3    3    0    0  0.14708542583E+02  0.21876493272E+02  0.24879444686E+02  0.36247882020E+02  0.51100000000E-03 0.  1.
        -12    1    3    3    0    0  0.63418109423E+01 -0.25736253564E+01 -0.29687095515E+01  0.74602513298E+01  0.00000000000E+00 0.  1.
</event>
<event>
 7    1  0.2942034E-011  0.5052885E+02  0.7816164E-02  0.1300439E+00
        -11   -1    0    0    0    0  0.00000000000E+00  0.00000000000E+00  0.45593999997E+02  0.45594000000E+02  0.51100000000E-03 0.  1.
         11   -1    0    0    0    0 -0.00000000000E+00 -0.00000000000E+00 -0.45593999997E+02  0.45594000000E+02  0.51100000000E-03 0. -1.
    9900012    2    1    2    0    0 -0.16318895348E+01  0.37324788826E+02  0.16042544175E+02  0.50528854067E+02  0.29999982423E+02 0.  0.
         12    1    1    2    0    0  0.16318895348E+01 -0.37324788826E+02 -0.16042544175E+02  0.40659145933E+02  0.00000000000E+00 0. -1.
         11    1    3    3    0    0 -0.16349202834E+01  0.14828132656E+02 -0.18290296612E+00  0.14919113115E+02  0.51100000000E-03 0. -1.
        -11    1    3    3    0    0 -0.47153623551E+01 -0.11780859165E+00  0.10936884812E+02  0.11910666255E+02  0.51100000000E-03 0.  1.
        -12    1    3    3    0    0  0.47183931037E+01  0.22614464762E+02  0.52885623294E+01  0.23699074697E+02  0.00000000000E+00 0.  1.
</event>
<event>
 7    1  0.2942034E-011  0.5052887E+02  0.7816164E-02  0.1300439E+00
        -11   -1    0    0    0    0  0.00000000000E+00  0.00000000000E+00  0.45593999997E+02  0.45594000000E+02  0.51100000000E-03 0.  1.
         11   -1    0    0    0    0 -0.00000000000E+00 -0.00000000000E+00 -0.45593999997E+02  0.45594000000E+02  0.51100000000E-03 0. -1.
    9900012    2    1    2    0    0 -0.33648796638E+02 -0.52171451260E+01  0.22219459491E+02  0.50528874351E+02  0.30000044078E+02 0.  0.
         12    1    1    2    0    0  0.33648796638E+02  0.52171451260E+01 -0.22219459491E+02  0.40659125649E+02  0.00000000000E+00 0. -1.
         11    1    3    3    0    0 -0.70800641674E+01  0.10708999310E+02  0.66017061342E+01  0.14435806142E+02  0.51100000000E-03 0. -1.
        -11    1    3    3    0    0 -0.21355579631E+02 -0.11585080550E+02  0.16327345262E+02  0.29272121144E+02  0.51100000000E-03 0.  1.
         12    1    3    3    0    0 -0.52131528395E+01 -0.43410638860E+01 -0.70959190504E+00  0.68209470649E+01  0.00000000000E+00 0. -1.
</event>
<event>
 7    1  0.2942034E-011  0.5052887E+02  0.7816164E-02  0.1300439E+00
        -11   -1    0    0    0    0  0.00000000000E+00  0.00000000000E+00  0.45593999997E+02  0.45594000000E+02  0.51100000000E-03 0. -1.
         11   -1    0    0    0    0 -0.00000000000E+00 -0.00000000000E+00 -0.45593999997E+02  0.45594000000E+02  0.51100000000E-03 0.  1.
    9900012    2    1    2    0    0  0.27027307066E+02  0.26547529282E+02 -0.14762059776E+02  0.50528867605E+02  0.30000023574E+02 0.  0.
         12    1    1    2    0    0 -0.27027307066E+02 -0.26547529282E+02  0.14762059776E+02  0.40659132395E+02  0.00000000000E+00 0. -1.
         11    1    3    3    0    0 -0.41170327824E+01  0.24015007325E+01 -0.90775779620E+01  0.10252784335E+02  0.51100000000E-03 0. -1.
        -11    1    3    3    0    0  0.90825616273E+01  0.45406337231E+01  0.31058340936E+00  0.10159071938E+02  0.51100000000E-03 0.  1.
         12    1    3    3    0    0  0.22061778221E+02  0.19605394827E+02 -0.59950652235E+01  0.30117011333E+02  0.00000000000E+00 0. -1.
</event>
<event>
 7    1  0.2942034E-011  0.5052892E+02  0.7816164E-02  0.1300439E+00
        -11   -1    0    0    0    0  0.00000000000E+00  0.00000000000E+00  0.45593999997E+02  0.45594000000E+02  0.51100000000E-03 0.  1.
         11   -1    0    0    0    0 -0.00000000000E+00 -0.00000000000E+00 -0.45593999997E+02  0.45594000000E+02  0.51100000000E-03 0. -1.
    9900012    2    1    2    0    0  0.93892719099E+01  0.17342815238E+02  0.35556003049E+02  0.50528917125E+02  0.30000174094E+02 0.  0.
         12    1    1    2    0    0 -0.93892719099E+01 -0.17342815238E+02 -0.35556003049E+02  0.40659082875E+02  0.00000000000E+00 0. -1.
         11    1    3    3    0    0 -0.45080961863E+01 -0.70463471269E+00 -0.26186739795E+01  0.52608834786E+01  0.51100000000E-03 0. -1.
        -11    1    3    3    0    0  0.13506330839E+02  0.18990828056E+02  0.36409664200E+02  0.43228881207E+02  0.51100000000E-03 0.  1.
        -12    1    3    3    0    0  0.39103725772E+00 -0.94337810580E+00  0.17650128289E+01  0.20391524400E+01  0.00000000000E+00 0.  1.
</event>
<event>
 7    1  0.2942034E-011  0.5052886E+02  0.7816164E-02  0.1300439E+00
        -11   -1    0    0    0    0  0.00000000000E+00  0.00000000000E+00  0.45593999997E+02  0.45594000000E+02  0.51100000000E-03 0.  1.
         11   -1    0    0    0    0 -0.00000000000E+00 -0.00000000000E+00 -0.45593999997E+02  0.45594000000E+02  0.51100000000E-03 0. -1.
    9900012    2    1    2    0    0 -0.10005648659E+02  0.39138759116E+02  0.46054466960E+01  0.50528860689E+02  0.30000002551E+02 0.  0.
         12    1    1    2    0    0  0.10005648659E+02 -0.39138759116E+02 -0.46054466960E+01  0.40659139311E+02  0.00000000000E+00 0. -1.
         11    1    3    3    0    0 -0.97283349181E+01  0.13748210365E+02 -0.95451297792E+01  0.19358803973E+02  0.51100000000E-03 0. -1.
        -11    1    3    3    0    0 -0.45306820748E+01  0.16010287418E+02  0.12333101344E+02  0.20711392331E+02  0.51100000000E-03 0.  1.
        -12    1    3    3    0    0  0.42533683339E+01  0.93802613327E+01  0.18174751312E+01  0.10458664384E+02  0.00000000000E+00 0.  1.
</event>
<event>
 7    1  0.2942034E-011  0.5052886E+02  0.7816164E-02  0.1300439E+00
        -11   -1    0    0    0    0  0.00000000000E+00  0.00000000000E+00  0.45593999997E+02  0.45594000000E+02  0.51100000000E-03 0. -1.
         11   -1    0    0    0    0 -0.00000000000E+00 -0.00000000000E+00 -0.45593999997E+02  0.45594000000E+02  0.51100000000E-03 0.  1.
    9900012    2    1    2    0    0 -0.10837978772E+02 -0.29873616470E+02 -0.25362793353E+02  0.50528855499E+02  0.29999986776E+02 0.  0.
         12    1    1    2    0    0  0.10837978772E+02  0.29873616470E+02  0.25362793353E+02  0.40659144501E+02  0.00000000000E+00 0. -1.
         11    1    3    3    0    0  0.13788420836E+01 -0.19775686806E+02 -0.27165069426E+02  0.33629153889E+02  0.51100000000E-03 0. -1.
        -11    1    3    3    0    0 -0.62244889857E+01 -0.33249732760E+01 -0.16027649242E+01  0.72366128874E+01  0.51100000000E-03 0.  1.
         12    1    3    3    0    0 -0.59923318698E+01 -0.67729563878E+01  0.34050409972E+01  0.96630887226E+01  0.00000000000E+00 0. -1.
</event>
<event>
 7    1  0.2942034E-011  0.5052886E+02  0.7816164E-02  0.1300439E+00
        -11   -1    0    0    0    0  0.00000000000E+00  0.00000000000E+00  0.45593999997E+02  0.45594000000E+02  0.51100000000E-03 0.  1.
         11   -1    0    0    0    0 -0.00000000000E+00 -0.00000000000E+00 -0.45593999997E+02  0.45594000000E+02  0.51100000000E-03 0. -1.
    9900012    2    1    2    0    0 -0.37613333060E+02  0.15330837080E+02 -0.18353740002E+01  0.50528856044E+02  0.29999988432E+02 0.  0.
         12    1    1    2    0    0  0.37613333060E+02 -0.15330837080E+02  0.18353740002E+01  0.40659143956E+02  0.00000000000E+00 0. -1.
         11    1    3    3    0    0 -0.36246931480E+02  0.89806490949E+01 -0.83710005264E+01  0.38269645281E+02  0.51100000000E-03 0. -1.
        -11    1    3    3    0    0 -0.38751121825E+01  0.63765097162E+01  0.32843758318E+01  0.81525146705E+01  0.51100000000E-03 0.  1.
         12    1    3    3    0    0  0.25087106021E+01 -0.26321730902E-01  0.32512506944E+01  0.41066960925E+01  0.00000000000E+00 0. -1.
</event>
<event>
 7    1  0.2942034E-011  0.5052886E+02  0.7816164E-02  0.1300439E+00
        -11   -1    0    0    0    0  0.00000000000E+00  0.00000000000E+00  0.45593999997E+02  0.45594000000E+02  0.51100000000E-03 0.  1.
         11   -1    0    0    0    0 -0.00000000000E+00 -0.00000000000E+00 -0.45593999997E+02  0.45594000000E+02  0.51100000000E-03 0. -1.
    9900012    2    1    2    0    0 -0.10579610434E+02 -0.27264452801E+02  0.28246897235E+02  0.50528859000E+02  0.29999997417E+02 0.  0.
         12    1    1    2    0    0  0.10579610434E+02  0.27264452801E+02 -0.28246897235E+02  0.40659141000E+02  0.00000000000E+00 0. -1.
         11    1    3    3    0    0 -0.14984273794E+02 -0.27655616988E+01  0.13194844811E+02  0.20156406488E+02  0.51100000000E-03 0. -1.
        -11    1    3    3    0    0  0.19254326553E+01 -0.23439439961E+02  0.14472888072E+02  0.27614835252E+02  0.51100000000E-03 0.  1.
        -12    1    3    3    0    0  0.24792307054E+01 -0.10594511408E+01  0.57916435217E+00  0.27576172608E+01  0.00000000000E+00 0.  1.
</event>
<event>
 7    1  0.2942034E-011  0.5052886E+02  0.7816164E-02  0.1300439E+00
        -11   -1    0    0    0    0  0.00000000000E+00  0.00000000000E+00  0.45593999997E+02  0.45594000000E+02  0.51100000000E-03 0. -1.
         11   -1    0    0    0    0 -0.00000000000E+00 -0.00000000000E+00 -0.45593999997E+02  0.45594000000E+02  0.51100000000E-03 0.  1.
    9900012    2    1    2    0    0 -0.17599988328E+02  0.80339658735E+01 -0.35761168774E+02  0.50528863402E+02  0.30000010798E+02 0.  0.
         12    1    1    2    0    0  0.17599988328E+02 -0.80339658735E+01  0.35761168774E+02  0.40659136598E+02  0.00000000000E+00 0. -1.
         11    1    3    3    0    0 -0.52243905256E+01 -0.72753016170E+01 -0.51196024008E+01  0.10316714544E+02  0.51100000000E-03 0. -1.
        -11    1    3    3    0    0 -0.67997080437E+00  0.13073889929E+02 -0.21613661212E+02  0.25269335357E+02  0.51100000000E-03 0.  1.
        -12    1    3    3    0    0 -0.11695626998E+02  0.22353775617E+01 -0.90279051609E+01  0.14942813501E+02  0.00000000000E+00 0.  1.
</event>
<event>
 7    1  0.2942034E-011  0.5052884E+02  0.7816164E-02  0.1300439E+00
        -11   -1    0    0    0    0  0.00000000000E+00  0.00000000000E+00  0.45593999997E+02  0.45594000000E+02  0.51100000000E-03 0.  1.
         11   -1    0    0    0    0 -0.00000000000E+00 -0.00000000000E+00 -0.45593999997E+02  0.45594000000E+02  0.51100000000E-03 0. -1.
    9900012    2    1    2    0    0 -0.27636441642E+02 -0.20596345109E+02 -0.21568151333E+02  0.50528837559E+02  0.29999932244E+02 0.  0.
         12    1    1    2    0    0  0.27636441642E+02  0.20596345109E+02  0.21568151333E+02  0.40659162441E+02  0.00000000000E+00 0. -1.
         11    1    3    3    0    0 -0.47719497810E+01 -0.19312243126E+02 -0.17058026770E+02  0.26205162026E+02  0.51100000000E-03 0. -1.
        -11    1    3    3    0    0 -0.20383645001E+02 -0.32673258248E+01 -0.32107673698E+01  0.20892042240E+02  0.51100000000E-03 0.  1.
         12    1    3    3    0    0 -0.24808468603E+01  0.19832238409E+01 -0.12993571932E+01  0.34316332938E+01  0.00000000000E+00 0. -1.
</event>
<event>
 7    1  0.2942034E-011  0.5052888E+02  0.7816164E-02  0.1300439E+00
        -11   -1    0    0    0    0  0.00000000000E+00  0.00000000000E+00  0.45593999997E+02  0.45594000000E+02  0.51100000000E-03 0.  1.
         11   -1    0    0    0    0 -0.00000000000E+00 -0.00000000000E+00 -0.45593999997E+02  0.45594000000E+02  0.51100000000E-03 0. -1.
    9900012    2    1    2    0    0  0.17124815878E+02 -0.35723752798E+02  0.91497531755E+01  0.50528882744E+02  0.30000069590E+02 0.  0.
         12    1    1    2    0    0 -0.17124815878E+02  0.35723752798E+02 -0.91497531755E+01  0.40659117256E+02  0.00000000000E+00 0. -1.
         11    1    3    3    0    0 -0.52924371016E+01  0.13902454444E+01  0.29603675365E+01  0.62214507217E+01  0.51100000000E-03 0. -1.
        -11    1    3    3    0    0  0.89641555189E+01 -0.95272903202E+01  0.49094759610E+00  0.13090698026E+02  0.51100000000E-03 0.  1.
         12    1    3    3    0    0  0.13453097460E+02 -0.27586707922E+02  0.56984380429E+01  0.31216733996E+02  0.00000000000E+00 0. -1.
</event>
<event>
 7    1  0.2942034E-011  0.5052886E+02  0.7816164E-02  0.1300439E+00
        -11   -1    0    0    0    0  0.00000000000E+00  0.00000000000E+00  0.45593999997E+02  0.45594000000E+02  0.51100000000E-03 0.  1.
         11   -1    0    0    0    0 -0.00000000000E+00 -0.00000000000E+00 -0.45593999997E+02  0.45594000000E+02  0.51100000000E-03 0. -1.
    9900012    2    1    2    0    0  0.23780557359E+02  0.27773961443E+02  0.17783641164E+02  0.50528859139E+02  0.29999997838E+02 0.  0.
         12    1    1    2    0    0 -0.23780557359E+02 -0.27773961443E+02 -0.17783641164E+02  0.40659140861E+02  0.00000000000E+00 0. -1.
         11    1    3    3    0    0  0.17643473355E+01 -0.41296545423E+01 -0.91481439759E-01  0.44916964807E+01  0.51100000000E-03 0. -1.
        -11    1    3    3    0    0  0.17834342640E+02  0.30288403842E+02  0.20648841957E+02  0.40765498392E+02  0.51100000000E-03 0.  1.
        -12    1    3    3    0    0  0.41818673835E+01  0.16152121434E+01 -0.27737193539E+01  0.52716642662E+01  0.00000000000E+00 0.  1.
</event>
<event>
 7    1  0.2942034E-011  0.5052886E+02  0.7816164E-02  0.1300439E+00
        -11   -1    0    0    0    0  0.00000000000E+00  0.00000000000E+00  0.45593999997E+02  0.45594000000E+02  0.51100000000E-03 0.  1.
         11   -1    0    0    0    0 -0.00000000000E+00 -0.00000000000E+00 -0.45593999997E+02  0.45594000000E+02  0.51100000000E-03 0. -1.
    9900012    2    1    2    0    0  0.25253915612E+02  0.31129484543E+02 -0.68088782396E+01  0.50528857307E+02  0.29999992271E+02 0.  0.
         12    1    1    2    0    0 -0.25253915612E+02 -0.31129484543E+02  0.68088782396E+01  0.40659142693E+02  0.00000000000E+00 0. -1.
         11    1    3    3    0    0  0.13354290500E+02  0.12550566877E+02  0.60452549281E+01  0.19297640039E+02  0.51100000000E-03 0. -1.
        -11    1    3    3    0    0  0.10425325178E+02  0.18995267744E+02 -0.16527045134E+02  0.27251620555E+02  0.51100000000E-03 0.  1.
         12    1    3    3    0    0  0.14742999347E+01 -0.41635007803E+00  0.36729119666E+01  0.39795967131E+01  0.00000000000E+00 0. -1.
</event>
<event>
 7    1  0.2942034E-011  0.5052886E+02  0.7816164E-02  0.1300439E+00
        -11   -1    0    0    0    0  0.00000000000E+00  0.00000000000E+00  0.45593999997E+02  0.45594000000E+02  0.51100000000E-03 0.  1.
         11   -1    0    0    0    0 -0.00000000000E+00 -0.00000000000E+00 -0.45593999997E+02  0.45594000000E+02  0.51100000000E-03 0. -1.
    9900012    2    1    2    0    0  0.34307926023E+01  0.69276323159E+01  0.39917455164E+02  0.50528860140E+02  0.30000000881E+02 0.  0.
         12    1    1    2    0    0 -0.34307926023E+01 -0.69276323159E+01 -0.39917455164E+02  0.40659139860E+02  0.00000000000E+00 0. -1.
         11    1    3    3    0    0  0.10944388192E+02  0.10904230377E+02  0.15919560341E+02  0.22183648814E+02  0.51100000000E-03 0. -1.
        -11    1    3    3    0    0 -0.58440014035E+01  0.20968599439E+01  0.19862360046E+02  0.20810154273E+02  0.51100000000E-03 0.  1.
         12    1    3    3    0    0 -0.16695941858E+01 -0.60734580049E+01  0.41355347772E+01  0.75350570520E+01  0.00000000000E+00 0. -1.
</event>
<event>
 7    1  0.2942034E-011  0.5052886E+02  0.7816164E-02  0.1300439E+00
        -11   -1    0    0    0    0  0.00000000000E+00  0.00000000000E+00  0.45593999997E+02  0.45594000000E+02  0.51100000000E-03 0.  1.
         11   -1    0    0    0    0 -0.00000000000E+00 -0.00000000000E+00 -0.45593999997E+02  0.45594000000E+02  0.51100000000E-03 0. -1.
    9900012    2    1    2    0    0  0.18537627652E+02 -0.77881293017E+01  0.35339307627E+02  0.50528864981E+02  0.30000015595E+02 0.  0.
         12    1    1    2    0    0 -0.18537627652E+02  0.77881293017E+01 -0.35339307627E+02  0.40659135019E+02  0.00000000000E+00 0. -1.
         11    1    3    3    0    0  0.15034236968E+01  0.43618735230E+01  0.13227488991E+02  0.14009021690E+02  0.51100000000E-03 0. -1.
        -11    1    3    3    0    0  0.21529432666E+02 -0.11729416794E+02  0.19284738519E+02  0.31192897096E+02  0.51100000000E-03 0.  1.
        -12    1    3    3    0    0 -0.44952287107E+01 -0.42058603071E+00  0.28270801169E+01  0.53269461944E+01  0.00000000000E+00 0.  1.
</event>
<event>
 7    1  0.2942034E-011  0.5052886E+02  0.7816164E-02  0.1300439E+00
        -11   -1    0    0    0    0  0.00000000000E+00  0.00000000000E+00  0.45593999997E+02  0.45594000000E+02  0.51100000000E-03 0. -1.
         11   -1    0    0    0    0 -0.00000000000E+00 -0.00000000000E+00 -0.45593999997E+02  0.45594000000E+02  0.51100000000E-03 0.  1.
    9900012    2    1    2    0    0  0.36444394785E+02  0.74602802099E+01 -0.16410845974E+02  0.50528861327E+02  0.30000004490E+02 0.  0.
         12    1    1    2    0    0 -0.36444394785E+02 -0.74602802099E+01  0.16410845974E+02  0.40659138673E+02  0.00000000000E+00 0. -1.
         11    1    3    3    0    0  0.12517703269E+02 -0.95696078744E+01 -0.93052349028E-01  0.15756869898E+02  0.51100000000E-03 0. -1.
        -11    1    3    3    0    0  0.19811184764E+02  0.10157614026E+02 -0.14465883927E+02  0.26550366523E+02  0.51100000000E-03 0.  1.
         12    1    3    3    0    0  0.41155067518E+01  0.68722740586E+01 -0.18519096982E+01  0.82216249058E+01  0.00000000000E+00 0. -1.
</event>
<event>
 7    1  0.2942034E-011  0.5052882E+02  0.7816164E-02  0.1300439E+00
        -11   -1    0    0    0    0  0.00000000000E+00  0.00000000000E+00  0.45593999997E+02  0.45594000000E+02  0.51100000000E-03 0.  1.
         11   -1    0    0    0    0 -0.00000000000E+00 -0.00000000000E+00 -0.45593999997E+02  0.45594000000E+02  0.51100000000E-03 0. -1.
    9900012    2    1    2    0    0 -0.68031418966E+01  0.23358228913E+02  0.32577282202E+02  0.50528820061E+02  0.29999879058E+02 0.  0.
         12    1    1    2    0    0  0.68031418966E+01 -0.23358228913E+02 -0.32577282202E+02  0.40659179939E+02  0.00000000000E+00 0. -1.
         11    1    3    3    0    0 -0.11526256722E+02  0.21120098109E+01  0.44296276036E+01  0.12527441097E+02  0.51100000000E-03 0. -1.
        -11    1    3    3    0    0 -0.18680448190E+01  0.10726779401E+02  0.55561787177E+01  0.12223931853E+02  0.51100000000E-03 0.  1.
         12    1    3    3    0    0  0.65911596447E+01  0.10519439702E+02  0.22591475881E+02  0.25777447111E+02  0.00000000000E+00 0. -1.
</event>
<event>
 7    1  0.2942034E-011  0.5052886E+02  0.7816164E-02  0.1300439E+00
        -11   -1    0    0    0    0  0.00000000000E+00  0.00000000000E+00  0.45593999997E+02  0.45594000000E+02  0.51100000000E-03 0. -1.
         11   -1    0    0    0    0 -0.00000000000E+00 -0.00000000000E+00 -0.45593999997E+02  0.45594000000E+02  0.51100000000E-03 0.  1.
    9900012    2    1    2    0    0 -0.51355959649E+01 -0.37723778820E+02 -0.14272638300E+02  0.50528855414E+02  0.29999986517E+02 0.  0.
         12    1    1    2    0    0  0.51355959649E+01  0.37723778820E+02  0.14272638300E+02  0.40659144586E+02  0.00000000000E+00 0. -1.
         11    1    3    3    0    0  0.92885889528E+01 -0.16331543890E+02  0.15234773648E+01  0.18849885785E+02  0.51100000000E-03 0. -1.
        -11    1    3    3    0    0 -0.13633538415E+02 -0.19817499015E+02 -0.10774358685E+02  0.26357037812E+02  0.51100000000E-03 0.  1.
         12    1    3    3    0    0 -0.79064650310E+00 -0.15747359155E+01 -0.50217569806E+01  0.53219318173E+01  0.00000000000E+00 0. -1.
</event>
<event>
 7    1  0.2942034E-011  0.5052886E+02  0.7816164E-02  0.1300439E+00
        -11   -1    0    0    0    0  0.00000000000E+00  0.00000000000E+00  0.45593999997E+02  0.45594000000E+02  0.51100000000E-03 0.  1.
         11   -1    0    0    0    0 -0.00000000000E+00 -0.00000000000E+00 -0.45593999997E+02  0.45594000000E+02  0.51100000000E-03 0. -1.
    9900012    2    1    2    0    0 -0.20239777495E+02  0.28757264820E+02  0.20409226260E+02  0.50528863395E+02  0.30000010774E+02 0.  0.
         12    1    1    2    0    0  0.20239777495E+02 -0.28757264820E+02 -0.20409226260E+02  0.40659136605E+02  0.00000000000E+00 0. -1.
         11    1    3    3    0    0  0.31303022809E+00 -0.49821008721E+01  0.67757773939E+01  0.84160843969E+01  0.51100000000E-03 0. -1.
        -11    1    3    3    0    0 -0.85383515508E+01  0.18025142262E+02  0.52197244573E+01  0.20616855348E+02  0.51100000000E-03 0.  1.
        -12    1    3    3    0    0 -0.12014456172E+02  0.15714223430E+02  0.84137244086E+01  0.21495923649E+02  0.00000000000E+00 0.  1.
</event>
<event>
 7    1  0.2942034E-011  0.5052887E+02  0.7816164E-02  0.1300439E+00
        -11   -1    0    0    0    0  0.00000000000E+00  0.00000000000E+00  0.45593999997E+02  0.45594000000E+02  0.51100000000E-03 0.  1.
         11   -1    0    0    0    0 -0.00000000000E+00 -0.00000000000E+00 -0.45593999997E+02  0.45594000000E+02  0.51100000000E-03 0. -1.
    9900012    2    1    2    0    0 -0.18383974251E+02  0.24383775162E+01  0.36183542856E+02  0.50528868581E+02  0.30000026538E+02 0.  0.
         12    1    1    2    0    0  0.18383974251E+02 -0.24383775162E+01 -0.36183542856E+02  0.40659131419E+02  0.00000000000E+00 0. -1.
         11    1    3    3    0    0 -0.15167299805E+01 -0.50090757147E+01 -0.23367749205E+01  0.57316513013E+01  0.51100000000E-03 0. -1.
        -11    1    3    3    0    0 -0.16751922803E+02  0.21608817084E+01  0.33443237589E+02  0.37466604704E+02  0.51100000000E-03 0.  1.
         12    1    3    3    0    0 -0.11532146745E+00  0.52865715225E+01  0.50770801869E+01  0.73306125752E+01  0.00000000000E+00 0. -1.
</event>
<event>
 7    1  0.2942034E-011  0.5052886E+02  0.7816164E-02  0.1300439E+00
        -11   -1    0    0    0    0  0.00000000000E+00  0.00000000000E+00  0.45593999997E+02  0.45594000000E+02  0.51100000000E-03 0. -1.
         11   -1    0    0    0    0 -0.00000000000E+00 -0.00000000000E+00 -0.45593999997E+02  0.45594000000E+02  0.51100000000E-03 0.  1.
    9900012    2    1    2    0    0 -0.21112394374E+02  0.14922055347E+02 -0.31380965003E+02  0.50528857160E+02  0.29999991823E+02 0.  0.
         12    1    1    2    0    0  0.21112394374E+02 -0.14922055347E+02  0.31380965003E+02  0.40659142840E+02  0.00000000000E+00 0. -1.
         11    1    3    3    0    0 -0.25018557805E+02  0.15787117142E+02 -0.15712547548E+02  0.33496946921E+02  0.51100000000E-03 0. -1.
        -11    1    3    3    0    0  0.18531638452E+01  0.56583225556E+00 -0.10558741965E+01  0.22066383842E+01  0.51100000000E-03 0.  1.
         12    1    3    3    0    0  0.20529995861E+01 -0.14308940508E+01 -0.14612543259E+02  0.14825271855E+02  0.00000000000E+00 0. -1.
</event>
<event>
 7    1  0.2942034E-011  0.5052888E+02  0.7816164E-02  0.1300439E+00
        -11   -1    0    0    0    0  0.00000000000E+00  0.00000000000E+00  0.45593999997E+02  0.45594000000E+02  0.51100000000E-03 0. -1.
         11   -1    0    0    0    0 -0.00000000000E+00 -0.00000000000E+00 -0.45593999997E+02  0.45594000000E+02  0.51100000000E-03 0.  1.
    9900012    2    1    2    0    0 -0.25890199353E+01 -0.25765186196E+02 -0.31346703640E+02  0.50528884503E+02  0.30000074934E+02 0.  0.
         12    1    1    2    0    0  0.25890199353E+01  0.25765186196E+02  0.31346703640E+02  0.40659115497E+02  0.00000000000E+00 0. -1.
         11    1    3    3    0    0  0.28011551468E+00 -0.50342134379E+00  0.55278064198E+00  0.79841370868E+00  0.51100000000E-03 0. -1.
        -11    1    3    3    0    0  0.58770054632E+01 -0.17819069802E+02 -0.33238099881E+02  0.38168438870E+02  0.51100000000E-03 0.  1.
        -12    1    3    3    0    0 -0.87461409132E+01 -0.74426950503E+01  0.13386155991E+01  0.11562031924E+02  0.00000000000E+00 0.  1.
</event>
<event>
 7    1  0.2942034E-011  0.5052890E+02  0.7816164E-02  0.1300439E+00
        -11   -1    0    0    0    0  0.00000000000E+00  0.00000000000E+00  0.45593999997E+02  0.45594000000E+02  0.51100000000E-03 0. -1.
         11   -1    0    0    0    0 -0.00000000000E+00 -0.00000000000E+00 -0.45593999997E+02  0.45594000000E+02  0.51100000000E-03 0.  1.
    9900012    2    1    2    0    0  0.32196934062E+02 -0.18431494391E+02 -0.16637306665E+02  0.50528898663E+02  0.30000117977E+02 0.  0.
         12    1    1    2    0    0 -0.32196934062E+02  0.18431494391E+02  0.16637306665E+02  0.40659101337E+02  0.00000000000E+00 0. -1.
         11    1    3    3    0    0  0.23404838736E+02 -0.13555888346E+01 -0.39449642974E+01  0.23773658551E+02  0.51100000000E-03 0. -1.
        -11    1    3    3    0    0  0.15501228390E+01 -0.16002704294E+02 -0.10109756756E+02  0.18992014308E+02  0.51100000000E-03 0.  1.
        -12    1    3    3    0    0  0.72419724868E+01 -0.10732012618E+01 -0.25825856115E+01  0.77632258043E+01  0.00000000000E+00 0.  1.
</event>
<event>
 7    1  0.2942034E-011  0.5052887E+02  0.7816164E-02  0.1300439E+00
        -11   -1    0    0    0    0  0.00000000000E+00  0.00000000000E+00  0.45593999997E+02  0.45594000000E+02  0.51100000000E-03 0.  1.
         11   -1    0    0    0    0 -0.00000000000E+00 -0.00000000000E+00 -0.45593999997E+02  0.45594000000E+02  0.51100000000E-03 0. -1.
    9900012    2    1    2    0    0 -0.14088843726E+02  0.22904346460E+02  0.30496893704E+02  0.50528866588E+02  0.30000020479E+02 0.  0.
         12    1    1    2    0    0  0.14088843726E+02 -0.22904346460E+02 -0.30496893704E+02  0.40659133412E+02  0.00000000000E+00 0. -1.
         11    1    3    3    0    0  0.43286583309E+00 -0.13696191935E+01  0.17486325332E+02  0.17545221669E+02  0.51100000000E-03 0. -1.
        -11    1    3    3    0    0 -0.63058345028E+01  0.95203966658E+01 -0.38958204420E+00  0.11425991243E+02  0.51100000000E-03 0.  1.
         12    1    3    3    0    0 -0.82158750564E+01  0.14753568987E+02  0.13400150416E+02  0.21557653675E+02  0.00000000000E+00 0. -1.
</event>
<event>
 7    1  0.2942034E-011  0.5052885E+02  0.7816164E-02  0.1300439E+00
        -11   -1    0    0    0    0  0.00000000000E+00  0.00000000000E+00  0.45593999997E+02  0.45594000000E+02  0.51100000000E-03 0.  1.
         11   -1    0    0    0    0 -0.00000000000E+00 -0.00000000000E+00 -0.45593999997E+02  0.45594000000E+02  0.51100000000E-03 0. -1.
    9900012    2    1    2    0    0 -0.20449986592E+02  0.29586011740E+02  0.18963979785E+02  0.50528848858E+02  0.29999966588E+02 0.  0.
         12    1    1    2    0    0  0.20449986592E+02 -0.29586011740E+02 -0.18963979785E+02  0.40659151142E+02  0.00000000000E+00 0. -1.
         11    1    3    3    0    0 -0.35726248082E+01  0.39295533328E+01 -0.25771066037E+01  0.59030937756E+01  0.51100000000E-03 0. -1.
        -11    1    3    3    0    0 -0.30235106271E+01  0.15832122635E+02  0.22427796907E+02  0.27618902911E+02  0.51100000000E-03 0.  1.
        -12    1    3    3    0    0 -0.13853851157E+02  0.98243357724E+01 -0.88671051772E+00  0.17006852171E+02  0.00000000000E+00 0.  1.
</event>
<event>
 7    1  0.2942034E-011  0.5052886E+02  0.7816164E-02  0.1300439E+00
        -11   -1    0    0    0    0  0.00000000000E+00  0.00000000000E+00  0.45593999997E+02  0.45594000000E+02  0.51100000000E-03 0. -1.
         11   -1    0    0    0    0 -0.00000000000E+00 -0.00000000000E+00 -0.45593999997E+02  0.45594000000E+02  0.51100000000E-03 0.  1.
    9900012    2    1    2    0    0  0.10136726453E+02 -0.36968202170E+02  0.13555979276E+02  0.50528858728E+02  0.29999996588E+02 0.  0.
         12    1    1    2    0    0 -0.10136726453E+02  0.36968202170E+02 -0.13555979276E+02  0.40659141272E+02  0.00000000000E+00 0. -1.
         11    1    3    3    0    0  0.81925291821E+00  0.14380529876E+01 -0.58132906508E+01  0.60442965009E+01  0.51100000000E-03 0. -1.
        -11    1    3    3    0    0  0.99349908472E+01 -0.29692820203E+02  0.15203266659E+02  0.34806708148E+02  0.51100000000E-03 0.  1.
         12    1    3    3    0    0 -0.61751731200E+00 -0.87134349544E+01  0.41660032681E+01  0.96778540785E+01  0.00000000000E+00 0. -1.
</event>
<event>
 7    1  0.2942034E-011  0.5052885E+02  0.7816164E-02  0.1300439E+00
        -11   -1    0    0    0    0  0.00000000000E+00  0.00000000000E+00  0.45593999997E+02  0.45594000000E+02  0.51100000000E-03 0.  1.
         11   -1    0    0    0    0 -0.00000000000E+00 -0.00000000000E+00 -0.45593999997E+02  0.45594000000E+02  0.51100000000E-03 0. -1.
    9900012    2    1    2    0    0  0.22007816594E+02  0.23803968017E+01  0.34105075273E+02  0.50528850481E+02  0.29999971524E+02 0.  0.
         12    1    1    2    0    0 -0.22007816594E+02 -0.23803968017E+01 -0.34105075273E+02  0.40659149519E+02  0.00000000000E+00 0. -1.
         11    1    3    3    0    0  0.40368313907E+01  0.68601470624E+01  0.17157085271E+01  0.81425598804E+01  0.51100000000E-03 0. -1.
        -11    1    3    3    0    0  0.11516544180E+01 -0.62982855559E+01  0.21094854365E+02  0.22045126214E+02  0.51100000000E-03 0.  1.
        -12    1    3    3    0    0  0.16819330786E+02  0.18185352952E+01  0.11294512380E+02  0.20341164387E+02  0.00000000000E+00 0.  1.
</event>
<event>
 7    1  0.2942034E-011  0.5052887E+02  0.7816164E-02  0.1300439E+00
        -11   -1    0    0    0    0  0.00000000000E+00  0.00000000000E+00  0.45593999997E+02  0.45594000000E+02  0.51100000000E-03 0.  1.
         11   -1    0    0    0    0 -0.00000000000E+00 -0.00000000000E+00 -0.45593999997E+02  0.45594000000E+02  0.51100000000E-03 0. -1.
    9900012    2    1    2    0    0 -0.21897989115E+02 -0.11796352900E+02  0.32163473828E+02  0.50528869196E+02  0.30000028409E+02 0.  0.
         12    1    1    2    0    0  0.21897989115E+02  0.11796352900E+02 -0.32163473828E+02  0.40659130804E+02  0.00000000000E+00 0. -1.
         11    1    3    3    0    0  0.12512886200E+01 -0.38204272323E+00 -0.10673069814E+01  0.16884384225E+01  0.51100000000E-03 0. -1.
        -11    1    3    3    0    0 -0.16807333137E+02  0.15511733375E+00  0.31271171368E+02  0.35502065680E+02  0.51100000000E-03 0.  1.
        -12    1    3    3    0    0 -0.63419445982E+01 -0.11569427511E+02  0.19596094418E+01  0.13338365094E+02  0.00000000000E+00 0.  1.
</event>
<event>
 7    1  0.2942034E-011  0.5052886E+02  0.7816164E-02  0.1300439E+00
        -11   -1    0    0    0    0  0.00000000000E+00  0.00000000000E+00  0.45593999997E+02  0.45594000000E+02  0.51100000000E-03 0. -1.
         11   -1    0    0    0    0 -0.00000000000E+00 -0.00000000000E+00 -0.45593999997E+02  0.45594000000E+02  0.51100000000E-03 0.  1.
    9900012    2    1    2    0    0  0.39181163301E+00 -0.18901859429E+02 -0.35996275797E+02  0.50528859854E+02  0.30000000011E+02 0.  0.
         12    1    1    2    0    0 -0.39181163301E+00  0.18901859429E+02  0.35996275797E+02  0.40659140146E+02  0.00000000000E+00 0. -1.
         11    1    3    3    0    0 -0.82237730014E+01 -0.18350160271E+02 -0.13899543359E+02  0.24444961244E+02  0.51100000000E-03 0. -1.
        -11    1    3    3    0    0  0.20177677991E+01  0.46644254124E+01 -0.55699412803E+01  0.75400595121E+01  0.51100000000E-03 0.  1.
         12    1    3    3    0    0  0.65978168353E+01 -0.52161245698E+01 -0.16526791157E+02  0.18543839097E+02  0.00000000000E+00 0. -1.
</event>
<event>
 7    1  0.2942034E-011  0.5052886E+02  0.7816164E-02  0.1300439E+00
        -11   -1    0    0    0    0  0.00000000000E+00  0.00000000000E+00  0.45593999997E+02  0.45594000000E+02  0.51100000000E-03 0.  1.
         11   -1    0    0    0    0 -0.00000000000E+00 -0.00000000000E+00 -0.45593999997E+02  0.45594000000E+02  0.51100000000E-03 0. -1.
    9900012    2    1    2    0    0  0.24753599851E+02  0.22664127346E+02  0.22951296405E+02  0.50528863504E+02  0.30000011106E+02 0.  0.
         12    1    1    2    0    0 -0.24753599851E+02 -0.22664127346E+02 -0.22951296405E+02  0.40659136496E+02  0.00000000000E+00 0. -1.
         11    1    3    3    0    0  0.12158408730E+02  0.24156311379E+00  0.68509227413E+01  0.13957807788E+02  0.51100000000E-03 0. -1.
        -11    1    3    3    0    0  0.71111100467E+01  0.21708838806E+02  0.19537883626E+02  0.30059448851E+02  0.51100000000E-03 0.  1.
        -12    1    3    3    0    0  0.54840810747E+01  0.71372542657E+00 -0.34375099624E+01  0.65116068647E+01  0.00000000000E+00 0.  1.
</event>
<event>
 7    1  0.2942034E-011  0.5052886E+02  0.7816164E-02  0.1300439E+00
        -11   -1    0    0    0    0  0.00000000000E+00  0.00000000000E+00  0.45593999997E+02  0.45594000000E+02  0.51100000000E-03 0. -1.
         11   -1    0    0    0    0 -0.00000000000E+00 -0.00000000000E+00 -0.45593999997E+02  0.45594000000E+02  0.51100000000E-03 0.  1.
    9900012    2    1    2    0    0 -0.13090306130E+02  0.10300620325E+02 -0.37090518921E+02  0.50528862189E+02  0.30000007111E+02 0.  0.
         12    1    1    2    0    0  0.13090306130E+02 -0.10300620325E+02  0.37090518921E+02  0.40659137811E+02  0.00000000000E+00 0. -1.
         11    1    3    3    0    0  0.18233186957E+01 -0.32019953201E+01  0.16495406661E+01  0.40371090852E+01  0.51100000000E-03 0. -1.
        -11    1    3    3    0    0 -0.67064937754E+01  0.52791131423E+01 -0.31872723158E+02  0.32995705418E+02  0.51100000000E-03 0.  1.
         12    1    3    3    0    0 -0.82071310507E+01  0.82235025024E+01 -0.68673364299E+01  0.13496047686E+02  0.00000000000E+00 0. -1.
</event>
<event>
 7    1  0.2942034E-011  0.5052882E+02  0.7816164E-02  0.1300439E+00
        -11   -1    0    0    0    0  0.00000000000E+00  0.00000000000E+00  0.45593999997E+02  0.45594000000E+02  0.51100000000E-03 0.  1.
         11   -1    0    0    0    0 -0.00000000000E+00 -0.00000000000E+00 -0.45593999997E+02  0.45594000000E+02  0.51100000000E-03 0. -1.
    9900012    2    1    2    0    0  0.22165816629E+02 -0.32364489288E+02  0.10695093884E+02  0.50528823583E+02  0.29999889764E+02 0.  0.
         12    1    1    2    0    0 -0.22165816629E+02  0.32364489288E+02 -0.10695093884E+02  0.40659176417E+02  0.00000000000E+00 0. -1.
         11    1    3    3    0    0  0.26417969320E+01 -0.65913565521E+01 -0.83015606494E+01  0.10924329806E+02  0.51100000000E-03 0. -1.
        -11    1    3    3    0    0  0.71285431354E+01 -0.14849267684E+02  0.32677309599E+01  0.16792705079E+02  0.51100000000E-03 0.  1.
         12    1    3    3    0    0  0.12395476561E+02 -0.10923865052E+02  0.15728923573E+02  0.22811788699E+02  0.00000000000E+00 0. -1.
</event>
<event>
 7    1  0.2942034E-011  0.5052884E+02  0.7816164E-02  0.1300439E+00
        -11   -1    0    0    0    0  0.00000000000E+00  0.00000000000E+00  0.45593999997E+02  0.45594000000E+02  0.51100000000E-03 0.  1.
         11   -1    0    0    0    0 -0.00000000000E+00 -0.00000000000E+00 -0.45593999997E+02  0.45594000000E+02  0.51100000000E-03 0. -1.
    9900012    2    1    2    0    0  0.24569231610E+01 -0.22247198803E+02  0.33943971716E+02  0.50528836926E+02  0.29999930321E+02 0.  0.
         12    1    1    2    0    0 -0.24569231610E+01  0.22247198803E+02 -0.33943971716E+02  0.40659163074E+02  0.00000000000E+00 0. -1.
         11    1    3    3    0    0 -0.96957316820E+01 -0.15157363861E+02  0.16937883152E+02  0.24711227772E+02  0.51100000000E-03 0. -1.
        -11    1    3    3    0    0  0.56868390536E+01 -0.10284211390E+02  0.77231033005E+01  0.14062413277E+02  0.51100000000E-03 0.  1.
         12    1    3    3    0    0  0.64658157894E+01  0.31943764475E+01  0.92829852634E+01  0.11755195877E+02  0.00000000000E+00 0. -1.
</event>
<event>
 7    1  0.2942034E-011  0.5052886E+02  0.7816164E-02  0.1300439E+00
        -11   -1    0    0    0    0  0.00000000000E+00  0.00000000000E+00  0.45593999997E+02  0.45594000000E+02  0.51100000000E-03 0.  1.
         11   -1    0    0    0    0 -0.00000000000E+00 -0.00000000000E+00 -0.45593999997E+02  0.45594000000E+02  0.51100000000E-03 0. -1.
    9900012    2    1    2    0    0  0.78605619286E+01 -0.24426877686E+00  0.39891326012E+02  0.50528855984E+02  0.29999988250E+02 0.  0.
         12    1    1    2    0    0 -0.78605619286E+01  0.24426877686E+00 -0.39891326012E+02  0.40659144016E+02  0.00000000000E+00 0. -1.
         11    1    3    3    0    0  0.15519776888E+02 -0.10594988715E+01  0.19760078173E+02  0.25148493040E+02  0.51100000000E-03 0. -1.
        -11    1    3    3    0    0 -0.78948852061E+01 -0.51888177496E+01  0.12242614454E+02  0.15463979145E+02  0.51100000000E-03 0.  1.
         12    1    3    3    0    0  0.23567024684E+00  0.60040478443E+01  0.78886333848E+01  0.99163837996E+01  0.00000000000E+00 0. -1.
</event>
<event>
 7    1  0.2942034E-011  0.5052886E+02  0.7816164E-02  0.1300439E+00
        -11   -1    0    0    0    0  0.00000000000E+00  0.00000000000E+00  0.45593999997E+02  0.45594000000E+02  0.51100000000E-03 0. -1.
         11   -1    0    0    0    0 -0.00000000000E+00 -0.00000000000E+00 -0.45593999997E+02  0.45594000000E+02  0.51100000000E-03 0.  1.
    9900012    2    1    2    0    0 -0.48904261743E+01  0.38087078250E+02 -0.13365026152E+02  0.50528859307E+02  0.29999998351E+02 0.  0.
         12    1    1    2    0    0  0.48904261743E+01 -0.38087078250E+02  0.13365026152E+02  0.40659140693E+02  0.00000000000E+00 0. -1.
         11    1    3    3    0    0 -0.81937804315E+01  0.19117362186E+02  0.12639746142E+01  0.20837687175E+02  0.51100000000E-03 0. -1.
        -11    1    3    3    0    0  0.67497012361E+01  0.26715784964E+01 -0.10081569104E+02  0.12423116932E+02  0.51100000000E-03 0.  1.
        -12    1    3    3    0    0 -0.34463469789E+01  0.16298137568E+02 -0.45474316618E+01  0.17268055201E+02  0.00000000000E+00 0.  1.
</event>
<event>
 7    1  0.2942034E-011  0.5052886E+02  0.7816164E-02  0.1300439E+00
        -11   -1    0    0    0    0  0.00000000000E+00  0.00000000000E+00  0.45593999997E+02  0.45594000000E+02  0.51100000000E-03 0.  1.
         11   -1    0    0    0    0 -0.00000000000E+00 -0.00000000000E+00 -0.45593999997E+02  0.45594000000E+02  0.51100000000E-03 0. -1.
    9900012    2    1    2    0    0  0.19068920727E+02 -0.23634740660E+02  0.27035913940E+02  0.50528863925E+02  0.30000012388E+02 0.  0.
         12    1    1    2    0    0 -0.19068920727E+02  0.23634740660E+02 -0.27035913940E+02  0.40659136075E+02  0.00000000000E+00 0. -1.
         11    1    3    3    0    0  0.72469658042E+01 -0.88389718462E+01  0.21124701069E+02  0.24018720453E+02  0.51100000000E-03 0.  1.
        -11    1    3    3    0    0  0.66796792291E+01 -0.17401163752E+02  0.56456256641E+00  0.18647716903E+02  0.51100000000E-03 0. -1.
        -12    1    3    3    0    0  0.51422756936E+01  0.26053949379E+01  0.53466503042E+01  0.78624265699E+01  0.00000000000E+00 0.  1.
</event>
<event>
 7    1  0.2942034E-011  0.5052886E+02  0.7816164E-02  0.1300439E+00
        -11   -1    0    0    0    0  0.00000000000E+00  0.00000000000E+00  0.45593999997E+02  0.45594000000E+02  0.51100000000E-03 0.  1.
         11   -1    0    0    0    0 -0.00000000000E+00 -0.00000000000E+00 -0.45593999997E+02  0.45594000000E+02  0.51100000000E-03 0. -1.
    9900012    2    1    2    0    0 -0.22449182172E+02 -0.11930730709E+02  0.31731021818E+02  0.50528857596E+02  0.29999993148E+02 0.  0.
         12    1    1    2    0    0  0.22449182172E+02  0.11930730709E+02 -0.31731021818E+02  0.40659142404E+02  0.00000000000E+00 0. -1.
         11    1    3    3    0    0  0.31377996422E+01 -0.53969298565E+01  0.15703149151E+02  0.16898565974E+02  0.51100000000E-03 0. -1.
        -11    1    3    3    0    0 -0.10780926492E+02  0.36629517824E+01  0.43290642158E+01  0.12181395200E+02  0.51100000000E-03 0.  1.
         12    1    3    3    0    0 -0.14806055323E+02 -0.10196752635E+02  0.11698808451E+02  0.21448896421E+02  0.00000000000E+00 0. -1.
</event>
<event>
 7    1  0.2942034E-011  0.5052886E+02  0.7816164E-02  0.1300439E+00
        -11   -1    0    0    0    0  0.00000000000E+00  0.00000000000E+00  0.45593999997E+02  0.45594000000E+02  0.51100000000E-03 0.  1.
         11   -1    0    0    0    0 -0.00000000000E+00 -0.00000000000E+00 -0.45593999997E+02  0.45594000000E+02  0.51100000000E-03 0. -1.
    9900012    2    1    2    0    0 -0.17840839126E+01  0.16492746093E+02  0.37121044993E+02  0.50528860677E+02  0.30000002515E+02 0.  0.
         12    1    1    2    0    0  0.17840839126E+01 -0.16492746093E+02 -0.37121044993E+02  0.40659139323E+02  0.00000000000E+00 0. -1.
         11    1    3    3    0    0  0.11134333117E+02  0.16579090630E+01  0.13338507873E+02  0.17453877190E+02  0.51100000000E-03 0. -1.
        -11    1    3    3    0    0 -0.11790251129E+02  0.15131395380E+02  0.24918476799E+02  0.31446774622E+02  0.51100000000E-03 0.  1.
         12    1    3    3    0    0 -0.11281659001E+01 -0.29655834969E+00 -0.11359396800E+01  0.16282088655E+01  0.00000000000E+00 0. -1.
</event>
<event>
 7    1  0.2942034E-011  0.5052886E+02  0.7816164E-02  0.1300439E+00
        -11   -1    0    0    0    0  0.00000000000E+00  0.00000000000E+00  0.45593999997E+02  0.45594000000E+02  0.51100000000E-03 0.  1.
         11   -1    0    0    0    0 -0.00000000000E+00 -0.00000000000E+00 -0.45593999997E+02  0.45594000000E+02  0.51100000000E-03 0. -1.
    9900012    2    1    2    0    0 -0.33149889644E+02 -0.15208936398E+02  0.17970500227E+02  0.50528858246E+02  0.29999995124E+02 0.  0.
         12    1    1    2    0    0  0.33149889644E+02  0.15208936398E+02 -0.17970500227E+02  0.40659141754E+02  0.00000000000E+00 0. -1.
         11    1    3    3    0    0 -0.18020511525E+02  0.32191503408E+01 -0.15486021551E+01  0.18371171259E+02  0.51100000000E-03 0. -1.
        -11    1    3    3    0    0 -0.43704328625E+01 -0.11024801817E+02  0.57495304133E+01  0.13179682801E+02  0.51100000000E-03 0.  1.
         12    1    3    3    0    0 -0.10758945257E+02 -0.74032849218E+01  0.13769571968E+02  0.18978004186E+02  0.00000000000E+00 0. -1.
</event>
<event>
 7    1  0.2942034E-011  0.5052885E+02  0.7816164E-02  0.1300439E+00
        -11   -1    0    0    0    0  0.00000000000E+00  0.00000000000E+00  0.45593999997E+02  0.45594000000E+02  0.51100000000E-03 0.  1.
         11   -1    0    0    0    0 -0.00000000000E+00 -0.00000000000E+00 -0.45593999997E+02  0.45594000000E+02  0.51100000000E-03 0. -1.
    9900012    2    1    2    0    0  0.84756233326E+01  0.39744051868E+02 -0.13191854474E+01  0.50528854657E+02  0.29999984215E+02 0.  0.
         12    1    1    2    0    0 -0.84756233326E+01 -0.39744051868E+02  0.13191854474E+01  0.40659145343E+02  0.00000000000E+00 0. -1.
         11    1    3    3    0    0  0.29105115642E+01  0.14311365531E+02 -0.12719182674E+02  0.19366565753E+02  0.51100000000E-03 0. -1.
        -11    1    3    3    0    0  0.35845802921E+01  0.17604451457E+01  0.53009043904E+01  0.66368645156E+01  0.51100000000E-03 0.  1.
         12    1    3    3    0    0  0.19805314762E+01  0.23672241192E+02  0.60990928362E+01  0.24525424388E+02  0.00000000000E+00 0. -1.
</event>
<event>
 7    1  0.2942034E-011  0.5052885E+02  0.7816164E-02  0.1300439E+00
        -11   -1    0    0    0    0  0.00000000000E+00  0.00000000000E+00  0.45593999997E+02  0.45594000000E+02  0.51100000000E-03 0. -1.
         11   -1    0    0    0    0 -0.00000000000E+00 -0.00000000000E+00 -0.45593999997E+02  0.45594000000E+02  0.51100000000E-03 0.  1.
    9900012    2    1    2    0    0 -0.12619017584E+02  0.18245719689E+01 -0.38608259100E+02  0.50528851726E+02  0.29999975305E+02 0.  0.
         12    1    1    2    0    0  0.12619017584E+02 -0.18245719689E+01  0.38608259100E+02  0.40659148274E+02  0.00000000000E+00 0. -1.
         11    1    3    3    0    0 -0.20046036936E+02  0.83001184445E+01 -0.28559086485E+02  0.35865819162E+02  0.51100000000E-03 0. -1.
        -11    1    3    3    0    0  0.42062052822E+01 -0.20662756843E+01 -0.69562833867E+01  0.83875823034E+01  0.51100000000E-03 0.  1.
         12    1    3    3    0    0  0.32208140705E+01 -0.44092707913E+01 -0.30928892289E+01  0.62754502604E+01  0.00000000000E+00 0. -1.
</event>
<event>
 7    1  0.2942034E-011  0.5052886E+02  0.7816164E-02  0.1300439E+00
        -11   -1    0    0    0    0  0.00000000000E+00  0.00000000000E+00  0.45593999997E+02  0.45594000000E+02  0.51100000000E-03 0.  1.
         11   -1    0    0    0    0 -0.00000000000E+00 -0.00000000000E+00 -0.45593999997E+02  0.45594000000E+02  0.51100000000E-03 0. -1.
    9900012    2    1    2    0    0 -0.31061551527E+02  0.20737573650E+02  0.16071667103E+02  0.50528862926E+02  0.30000009348E+02 0.  0.
         12    1    1    2    0    0  0.31061551527E+02 -0.20737573650E+02 -0.16071667103E+02  0.40659137074E+02  0.00000000000E+00 0. -1.
         11    1    3    3    0    0 -0.15441159961E+02 -0.45476878068E+01  0.86875062278E+01  0.18291627868E+02  0.51100000000E-03 0. -1.
        -11    1    3    3    0    0 -0.63334295317E+01  0.14587100260E+02  0.84904529672E+01  0.18027301946E+02  0.51100000000E-03 0.  1.
         12    1    3    3    0    0 -0.92869620343E+01  0.10698161198E+02 -0.11062920922E+01  0.14209933111E+02  0.00000000000E+00 0. -1.
</event>
<event>
 7    1  0.2942034E-011  0.5052886E+02  0.7816164E-02  0.1300439E+00
        -11   -1    0    0    0    0  0.00000000000E+00  0.00000000000E+00  0.45593999997E+02  0.45594000000E+02  0.51100000000E-03 0.  1.
         11   -1    0    0    0    0 -0.00000000000E+00 -0.00000000000E+00 -0.45593999997E+02  0.45594000000E+02  0.51100000000E-03 0. -1.
    9900012    2    1    2    0    0 -0.39576270351E+00  0.28540524110E+02  0.28955953605E+02  0.50528863342E+02  0.30000010615E+02 0.  0.
         12    1    1    2    0    0  0.39576270351E+00 -0.28540524110E+02 -0.28955953605E+02  0.40659136658E+02  0.00000000000E+00 0. -1.
         11    1    3    3    0    0 -0.11818216193E+02  0.46942914437E+01  0.11814928531E+02  0.17357970578E+02  0.51100000000E-03 0. -1.
        -11    1    3    3    0    0  0.91088933529E+01  0.22381446164E+02  0.18182993925E+02  0.30241070399E+02  0.51100000000E-03 0.  1.
        -12    1    3    3    0    0  0.23135601364E+01  0.14647865021E+01 -0.10419688518E+01  0.29298223649E+01  0.00000000000E+00 0.  1.
</event>
<event>
 7    1  0.2942034E-011  0.5052886E+02  0.7816164E-02  0.1300439E+00
        -11   -1    0    0    0    0  0.00000000000E+00  0.00000000000E+00  0.45593999997E+02  0.45594000000E+02  0.51100000000E-03 0. -1.
         11   -1    0    0    0    0 -0.00000000000E+00 -0.00000000000E+00 -0.45593999997E+02  0.45594000000E+02  0.51100000000E-03 0.  1.
    9900012    2    1    2    0    0 -0.13895171065E+02 -0.36488513167E+02 -0.11343648573E+02  0.50528859145E+02  0.29999997858E+02 0.  0.
         12    1    1    2    0    0  0.13895171065E+02  0.36488513167E+02  0.11343648573E+02  0.40659140855E+02  0.00000000000E+00 0. -1.
         11    1    3    3    0    0  0.55233816550E+01 -0.11004787992E+01  0.31998534514E+01  0.64774887778E+01  0.51100000000E-03 0. -1.
        -11    1    3    3    0    0 -0.14443682409E+02 -0.16913305618E+02 -0.10002289280E+02  0.24386997756E+02  0.51100000000E-03 0.  1.
         12    1    3    3    0    0 -0.49748703114E+01 -0.18474728750E+02 -0.45412127448E+01  0.19664372612E+02  0.00000000000E+00 0. -1.
</event>
<event>
 7    1  0.2942034E-011  0.5052885E+02  0.7816164E-02  0.1300439E+00
        -11   -1    0    0    0    0  0.00000000000E+00  0.00000000000E+00  0.45593999997E+02  0.45594000000E+02  0.51100000000E-03 0.  1.
         11   -1    0    0    0    0 -0.00000000000E+00 -0.00000000000E+00 -0.45593999997E+02  0.45594000000E+02  0.51100000000E-03 0. -1.
    9900012    2    1    2    0    0 -0.15314930005E+02  0.90228622921E+01  0.36567842059E+02  0.50528853454E+02  0.29999980558E+02 0.  0.
         12    1    1    2    0    0  0.15314930005E+02 -0.90228622921E+01 -0.36567842059E+02  0.40659146546E+02  0.00000000000E+00 0. -1.
         11    1    3    3    0    0 -0.10204666208E+02  0.14376641752E+02  0.25970133128E+02  0.31389024442E+02  0.51100000000E-03 0. -1.
        -11    1    3    3    0    0 -0.54755819024E+01 -0.38768566512E+01 -0.15593558808E+01  0.68879318876E+01  0.51100000000E-03 0.  1.
         12    1    3    3    0    0  0.36531810486E+00 -0.14769228084E+01  0.12157064812E+02  0.12251897124E+02  0.00000000000E+00 0. -1.
</event>
<event>
 7    1  0.2942034E-011  0.5052886E+02  0.7816164E-02  0.1300439E+00
        -11   -1    0    0    0    0  0.00000000000E+00  0.00000000000E+00  0.45593999997E+02  0.45594000000E+02  0.51100000000E-03 0.  1.
         11   -1    0    0    0    0 -0.00000000000E+00 -0.00000000000E+00 -0.45593999997E+02  0.45594000000E+02  0.51100000000E-03 0. -1.
    9900012    2    1    2    0    0  0.13027139181E+02  0.12139467584E+02  0.36552599427E+02  0.50528861380E+02  0.30000004650E+02 0.  0.
         12    1    1    2    0    0 -0.13027139181E+02 -0.12139467584E+02 -0.36552599427E+02  0.40659138620E+02  0.00000000000E+00 0. -1.
         11    1    3    3    0    0 -0.85113019743E+01  0.52759286743E+01  0.14035076680E+02  0.17241260463E+02  0.51100000000E-03 0. -1.
        -11    1    3    3    0    0  0.19892725526E+02  0.36319228378E+01  0.15832582226E+02  0.25682329578E+02  0.51100000000E-03 0.  1.
        -12    1    3    3    0    0  0.16457156291E+01  0.32316160715E+01  0.66849405208E+01  0.76052713385E+01  0.00000000000E+00 0.  1.
</event>
<event>
 7    1  0.2942034E-011  0.5052886E+02  0.7816164E-02  0.1300439E+00
        -11   -1    0    0    0    0  0.00000000000E+00  0.00000000000E+00  0.45593999997E+02  0.45594000000E+02  0.51100000000E-03 0.  1.
         11   -1    0    0    0    0 -0.00000000000E+00 -0.00000000000E+00 -0.45593999997E+02  0.45594000000E+02  0.51100000000E-03 0. -1.
    9900012    2    1    2    0    0  0.37434148492E+02 -0.14894503535E+02  0.54775991928E+01  0.50528858324E+02  0.29999995363E+02 0.  0.
         12    1    1    2    0    0 -0.37434148492E+02  0.14894503535E+02 -0.54775991928E+01  0.40659141676E+02  0.00000000000E+00 0. -1.
         11    1    3    3    0    0  0.26308087779E+02 -0.19226275668E+02  0.98868211118E+00  0.32599733913E+02  0.51100000000E-03 0. -1.
        -11    1    3    3    0    0  0.71582711926E+01  0.43027562237E+01  0.87572182099E+01  0.12101381269E+02  0.51100000000E-03 0.  1.
         12    1    3    3    0    0  0.39677895206E+01  0.29015909442E-01 -0.42683011283E+01  0.58277431416E+01  0.00000000000E+00 0. -1.
</event>
<event>
 7    1  0.2942034E-011  0.5052886E+02  0.7816164E-02  0.1300439E+00
        -11   -1    0    0    0    0  0.00000000000E+00  0.00000000000E+00  0.45593999997E+02  0.45594000000E+02  0.51100000000E-03 0.  1.
         11   -1    0    0    0    0 -0.00000000000E+00 -0.00000000000E+00 -0.45593999997E+02  0.45594000000E+02  0.51100000000E-03 0. -1.
    9900012    2    1    2    0    0 -0.10557921548E+01 -0.72791711804E+00  0.40638915176E+02  0.50528856046E+02  0.29999988437E+02 0.  0.
         12    1    1    2    0    0  0.10557921548E+01  0.72791711804E+00 -0.40638915176E+02  0.40659143954E+02  0.00000000000E+00 0. -1.
         11    1    3    3    0    0 -0.98569375329E+00 -0.10387385943E+02  0.45204266256E+01  0.11371175667E+02  0.51100000000E-03 0. -1.
        -11    1    3    3    0    0  0.17507958443E+01 -0.10957453913E+01  0.17169023248E+02  0.17292810749E+02  0.51100000000E-03 0.  1.
         12    1    3    3    0    0 -0.18208942458E+01  0.10755214216E+02  0.18949465302E+02  0.21864869630E+02  0.00000000000E+00 0. -1.
</event>
<event>
 7    1  0.2942034E-011  0.5052886E+02  0.7816164E-02  0.1300439E+00
        -11   -1    0    0    0    0  0.00000000000E+00  0.00000000000E+00  0.45593999997E+02  0.45594000000E+02  0.51100000000E-03 0. -1.
         11   -1    0    0    0    0 -0.00000000000E+00 -0.00000000000E+00 -0.45593999997E+02  0.45594000000E+02  0.51100000000E-03 0.  1.
    9900012    2    1    2    0    0 -0.36596976454E+02 -0.74820596542E+01 -0.16057572206E+02  0.50528861699E+02  0.30000005619E+02 0.  0.
         12    1    1    2    0    0  0.36596976454E+02  0.74820596542E+01  0.16057572206E+02  0.40659138301E+02  0.00000000000E+00 0. -1.
         11    1    3    3    0    0 -0.82274065922E+01  0.76891617934E-01 -0.13272417113E+02  0.15615799302E+02  0.51100000000E-03 0. -1.
        -11    1    3    3    0    0 -0.64662851551E+01  0.23228156577E+01  0.62041742299E+01  0.92574345486E+01  0.51100000000E-03 0.  1.
        -12    1    3    3    0    0 -0.21903284707E+02 -0.98817669298E+01 -0.89893293236E+01  0.25655627848E+02  0.00000000000E+00 0.  1.
</event>
<event>
 7    1  0.2942034E-011  0.5052889E+02  0.7816164E-02  0.1300439E+00
        -11   -1    0    0    0    0  0.00000000000E+00  0.00000000000E+00  0.45593999997E+02  0.45594000000E+02  0.51100000000E-03 0. -1.
         11   -1    0    0    0    0 -0.00000000000E+00 -0.00000000000E+00 -0.45593999997E+02  0.45594000000E+02  0.51100000000E-03 0.  1.
    9900012    2    1    2    0    0  0.15938291543E+02  0.35655748502E+02 -0.11304949009E+02  0.50528887729E+02  0.30000084741E+02 0.  0.
         12    1    1    2    0    0 -0.15938291543E+02 -0.35655748502E+02  0.11304949009E+02  0.40659112271E+02  0.00000000000E+00 0. -1.
         11    1    3    3    0    0 -0.56689257021E+01  0.81625252977E+01 -0.37171850098E+01  0.10610419526E+02  0.51100000000E-03 0.  1.
        -11    1    3    3    0    0  0.16802384401E+02  0.24386135586E+02  0.96292205784E+00  0.29629899587E+02  0.51100000000E-03 0. -1.
         12    1    3    3    0    0  0.48048328440E+01  0.31070876189E+01 -0.85506860572E+01  0.10288568617E+02  0.00000000000E+00 0. -1.
</event>
<event>
 7    1  0.2942034E-011  0.5052887E+02  0.7816164E-02  0.1300439E+00
        -11   -1    0    0    0    0  0.00000000000E+00  0.00000000000E+00  0.45593999997E+02  0.45594000000E+02  0.51100000000E-03 0.  1.
         11   -1    0    0    0    0 -0.00000000000E+00 -0.00000000000E+00 -0.45593999997E+02  0.45594000000E+02  0.51100000000E-03 0. -1.
    9900012    2    1    2    0    0  0.72306723633E+01 -0.35154201367E+02 -0.19106667183E+02  0.50528865388E+02  0.30000016834E+02 0.  0.
         12    1    1    2    0    0 -0.72306723633E+01  0.35154201367E+02  0.19106667183E+02  0.40659134612E+02  0.00000000000E+00 0. -1.
         11    1    3    3    0    0 -0.96107279490E+01 -0.46186669340E+01 -0.17564865141E+01  0.10806637826E+02  0.51100000000E-03 0. -1.
        -11    1    3    3    0    0  0.61184327379E+01 -0.85485431354E+01 -0.91059299567E+01  0.13907939083E+02  0.51100000000E-03 0.  1.
         12    1    3    3    0    0  0.10722967574E+02 -0.21986991297E+02 -0.82442507118E+01  0.25814288480E+02  0.00000000000E+00 0. -1.
</event>
<event>
 7    1  0.2942034E-011  0.5052886E+02  0.7816164E-02  0.1300439E+00
        -11   -1    0    0    0    0  0.00000000000E+00  0.00000000000E+00  0.45593999997E+02  0.45594000000E+02  0.51100000000E-03 0.  1.
         11   -1    0    0    0    0 -0.00000000000E+00 -0.00000000000E+00 -0.45593999997E+02  0.45594000000E+02  0.51100000000E-03 0. -1.
    9900012    2    1    2    0    0 -0.10173107986E+02  0.14889265167E+02  0.36441509176E+02  0.50528856695E+02  0.29999990410E+02 0.  0.
         12    1    1    2    0    0  0.10173107986E+02 -0.14889265167E+02 -0.36441509176E+02  0.40659143305E+02  0.00000000000E+00 0. -1.
         11    1    3    3    0    0 -0.12818403530E+02 -0.45524692205E+01  0.10126388457E+02  0.16958189423E+02  0.51100000000E-03 0. -1.
        -11    1    3    3    0    0  0.18663698429E+01  0.54236726432E+01  0.13052581165E+02  0.14257259086E+02  0.51100000000E-03 0.  1.
         12    1    3    3    0    0  0.77892570158E+00  0.14018061744E+02  0.13262539554E+02  0.19313408186E+02  0.00000000000E+00 0. -1.
</event>
<event>
 7    1  0.2942034E-011  0.5052886E+02  0.7816164E-02  0.1300439E+00
        -11   -1    0    0    0    0  0.00000000000E+00  0.00000000000E+00  0.45593999997E+02  0.45594000000E+02  0.51100000000E-03 0. -1.
         11   -1    0    0    0    0 -0.00000000000E+00 -0.00000000000E+00 -0.45593999997E+02  0.45594000000E+02  0.51100000000E-03 0.  1.
    9900012    2    1    2    0    0  0.17307557080E+02 -0.36448433447E+02  0.50125751318E+01  0.50528859056E+02  0.29999997588E+02 0.  0.
         12    1    1    2    0    0 -0.17307557080E+02  0.36448433447E+02 -0.50125751318E+01  0.40659140944E+02  0.00000000000E+00 0. -1.
         11    1    3    3    0    0 -0.18185685376E+01 -0.20833624741E+01  0.20720970899E+01  0.34556008646E+01  0.51100000000E-03 0. -1.
        -11    1    3    3    0    0  0.25115222858E+02 -0.28219379345E+02  0.53647117927E+01  0.38156099417E+02  0.51100000000E-03 0.  1.
        -12    1    3    3    0    0 -0.59890972403E+01 -0.61456916282E+01 -0.24242337508E+01  0.89171587752E+01  0.00000000000E+00 0.  1.
</event>
<event>
 7    1  0.2942034E-011  0.5052886E+02  0.7816164E-02  0.1300439E+00
        -11   -1    0    0    0    0  0.00000000000E+00  0.00000000000E+00  0.45593999997E+02  0.45594000000E+02  0.51100000000E-03 0.  1.
         11   -1    0    0    0    0 -0.00000000000E+00 -0.00000000000E+00 -0.45593999997E+02  0.45594000000E+02  0.51100000000E-03 0. -1.
    9900012    2    1    2    0    0 -0.34257968119E+02 -0.10552951983E+02  0.19188343328E+02  0.50528859640E+02  0.29999999360E+02 0.  0.
         12    1    1    2    0    0  0.34257968119E+02  0.10552951983E+02 -0.19188343328E+02  0.40659140360E+02  0.00000000000E+00 0. -1.
         11    1    3    3    0    0 -0.50010602189E+01  0.92747640615E+00  0.13531674093E+02  0.14456037487E+02  0.51100000000E-03 0. -1.
        -11    1    3    3    0    0 -0.14905750335E+02 -0.96228088056E+01 -0.46084757837E+01  0.18330790809E+02  0.51100000000E-03 0.  1.
        -12    1    3    3    0    0 -0.14351157565E+02 -0.18576195834E+01  0.10265145018E+02  0.17742031344E+02  0.00000000000E+00 0.  1.
</event>
<event>
 7    1  0.2942034E-011  0.5052884E+02  0.7816164E-02  0.1300439E+00
        -11   -1    0    0    0    0  0.00000000000E+00  0.00000000000E+00  0.45593999997E+02  0.45594000000E+02  0.51100000000E-03 0.  1.
         11   -1    0    0    0    0 -0.00000000000E+00 -0.00000000000E+00 -0.45593999997E+02  0.45594000000E+02  0.51100000000E-03 0. -1.
    9900012    2    1    2    0    0 -0.31035439651E+02  0.22314556610E+02 -0.13857452419E+02  0.50528844345E+02  0.29999952871E+02 0.  0.
         12    1    1    2    0    0  0.31035439651E+02 -0.22314556610E+02  0.13857452419E+02  0.40659155655E+02  0.00000000000E+00 0. -1.
         11    1    3    3    0    0  0.32855147877E+01  0.96333397372E+01  0.23572476851E+01  0.10447605411E+02  0.51100000000E-03 0. -1.
        -11    1    3    3    0    0 -0.17900690533E+02  0.71593240939E+01 -0.96033408837E+01  0.21538681469E+02  0.51100000000E-03 0.  1.
         12    1    3    3    0    0 -0.16420263905E+02  0.55218927792E+01 -0.66113592208E+01  0.18542557464E+02  0.00000000000E+00 0. -1.
</event>
<event>
 7    1  0.2942034E-011  0.5052888E+02  0.7816164E-02  0.1300439E+00
        -11   -1    0    0    0    0  0.00000000000E+00  0.00000000000E+00  0.45593999997E+02  0.45594000000E+02  0.51100000000E-03 0. -1.
         11   -1    0    0    0    0 -0.00000000000E+00 -0.00000000000E+00 -0.45593999997E+02  0.45594000000E+02  0.51100000000E-03 0.  1.
    9900012    2    1    2    0    0 -0.28453273473E+00  0.39171591103E+02 -0.10893562396E+02  0.50528877898E+02  0.30000054859E+02 0.  0.
         12    1    1    2    0    0  0.28453273473E+00 -0.39171591103E+02  0.10893562396E+02  0.40659122102E+02  0.00000000000E+00 0. -1.
         11    1    3    3    0    0  0.55883089271E+01  0.33150042727E+01 -0.99889896735E+01  0.11916306682E+02  0.51100000000E-03 0. -1.
        -11    1    3    3    0    0  0.22773004616E+01  0.19680067922E+02  0.31243974038E+01  0.20056246663E+02  0.51100000000E-03 0.  1.
         12    1    3    3    0    0 -0.81501421235E+01  0.16176518908E+02 -0.40289701260E+01  0.18556324552E+02  0.00000000000E+00 0. -1.
</event>
<event>
 7    1  0.2942034E-011  0.5052886E+02  0.7816164E-02  0.1300439E+00
        -11   -1    0    0    0    0  0.00000000000E+00  0.00000000000E+00  0.45593999997E+02  0.45594000000E+02  0.51100000000E-03 0. -1.
         11   -1    0    0    0    0 -0.00000000000E+00 -0.00000000000E+00 -0.45593999997E+02  0.45594000000E+02  0.51100000000E-03 0.  1.
    9900012    2    1    2    0    0  0.64825426882E+01  0.10810679930E+02 -0.38655805195E+02  0.50528862829E+02  0.30000009054E+02 0.  0.
         12    1    1    2    0    0 -0.64825426882E+01 -0.10810679930E+02  0.38655805195E+02  0.40659137171E+02  0.00000000000E+00 0. -1.
         11    1    3    3    0    0  0.52891751374E+01  0.25072671466E+01 -0.20373545199E+00  0.58568993993E+01  0.51100000000E-03 0. -1.
        -11    1    3    3    0    0 -0.56589735672E+01  0.13095594806E+02 -0.26316483690E+02  0.29934526875E+02  0.51100000000E-03 0.  1.
        -12    1    3    3    0    0  0.68523411180E+01 -0.47921820233E+01 -0.12135586053E+02  0.14737436555E+02  0.00000000000E+00 0.  1.
</event>
<event>
 7    1  0.2942034E-011  0.5052886E+02  0.7816164E-02  0.1300439E+00
        -11   -1    0    0    0    0  0.00000000000E+00  0.00000000000E+00  0.45593999997E+02  0.45594000000E+02  0.51100000000E-03 0.  1.
         11   -1    0    0    0    0 -0.00000000000E+00 -0.00000000000E+00 -0.45593999997E+02  0.45594000000E+02  0.51100000000E-03 0. -1.
    9900012    2    1    2    0    0 -0.28418713273E+02 -0.17783603319E+00  0.29077663861E+02  0.50528862954E+02  0.30000009434E+02 0.  0.
         12    1    1    2    0    0  0.28418713273E+02  0.17783603319E+00 -0.29077663861E+02  0.40659137046E+02  0.00000000000E+00 0. -1.
         11    1    3    3    0    0 -0.76751430274E+01  0.69203187602E+01 -0.15502122750E+01  0.10449966057E+02  0.51100000000E-03 0. -1.
        -11    1    3    3    0    0 -0.49755860427E+01 -0.64138857917E+01  0.18407972816E+02  0.20118346126E+02  0.51100000000E-03 0.  1.
         12    1    3    3    0    0 -0.15767984203E+02 -0.68426900176E+00  0.12219903320E+02  0.19960550770E+02  0.00000000000E+00 0. -1.
</event>
<event>
 7    1  0.2942034E-011  0.5052885E+02  0.7816164E-02  0.1300439E+00
        -11   -1    0    0    0    0  0.00000000000E+00  0.00000000000E+00  0.45593999997E+02  0.45594000000E+02  0.51100000000E-03 0. -1.
         11   -1    0    0    0    0 -0.00000000000E+00 -0.00000000000E+00 -0.45593999997E+02  0.45594000000E+02  0.51100000000E-03 0.  1.
    9900012    2    1    2    0    0 -0.10165815831E+02  0.32263542542E+02 -0.22558508348E+02  0.50528852349E+02  0.29999977199E+02 0.  0.
         12    1    1    2    0    0  0.10165815831E+02 -0.32263542542E+02  0.22558508348E+02  0.40659147651E+02  0.00000000000E+00 0. -1.
         11    1    3    3    0    0  0.10378239310E+01 -0.24870059405E+01  0.59561202452E+00  0.27598969192E+01  0.51100000000E-03 0. -1.
        -11    1    3    3    0    0 -0.13894959878E+02  0.26647301953E+02 -0.92345770111E+01  0.31439243378E+02  0.51100000000E-03 0.  1.
        -12    1    3    3    0    0  0.26913201155E+01  0.81032465295E+01 -0.13919543361E+02  0.16329712051E+02  0.00000000000E+00 0.  1.
</event>
<event>
 7    1  0.2942034E-011  0.5052886E+02  0.7816164E-02  0.1300439E+00
        -11   -1    0    0    0    0  0.00000000000E+00  0.00000000000E+00  0.45593999997E+02  0.45594000000E+02  0.51100000000E-03 0.  1.
         11   -1    0    0    0    0 -0.00000000000E+00 -0.00000000000E+00 -0.45593999997E+02  0.45594000000E+02  0.51100000000E-03 0. -1.
    9900012    2    1    2    0    0 -0.11215115893E+02  0.42302271117E+01  0.38852179705E+02  0.50528861867E+02  0.30000006131E+02 0.  0.
         12    1    1    2    0    0  0.11215115893E+02 -0.42302271117E+01 -0.38852179705E+02  0.40659138133E+02  0.00000000000E+00 0. -1.
         11    1    3    3    0    0 -0.43581832042E+01 -0.93291444171E+01  0.20737011012E+02  0.23152760578E+02  0.51100000000E-03 0. -1.
        -11    1    3    3    0    0 -0.81900803482E+01  0.79917410396E+01  0.39632222612E+01  0.12110015355E+02  0.51100000000E-03 0.  1.
         12    1    3    3    0    0  0.13331476591E+01  0.55676304892E+01  0.14151946431E+02  0.15266085934E+02  0.00000000000E+00 0. -1.
</event>
<event>
 7    1  0.2942034E-011  0.5052885E+02  0.7816164E-02  0.1300439E+00
        -11   -1    0    0    0    0  0.00000000000E+00  0.00000000000E+00  0.45593999997E+02  0.45594000000E+02  0.51100000000E-03 0. -1.
         11   -1    0    0    0    0 -0.00000000000E+00 -0.00000000000E+00 -0.45593999997E+02  0.45594000000E+02  0.51100000000E-03 0.  1.
    9900012    2    1    2    0    0  0.13401851225E+02  0.79411650203E+01 -0.37556551551E+02  0.50528852412E+02  0.29999977392E+02 0.  0.
         12    1    1    2    0    0 -0.13401851225E+02 -0.79411650203E+01  0.37556551551E+02  0.40659147588E+02  0.00000000000E+00 0. -1.
         11    1    3    3    0    0  0.89986814070E+00 -0.76479743059E+01 -0.53811354040E+01  0.93945671615E+01  0.51100000000E-03 0. -1.
        -11    1    3    3    0    0  0.10279293223E+02  0.14404134035E+02 -0.33789397336E+02  0.38142709907E+02  0.51100000000E-03 0.  1.
        -12    1    3    3    0    0  0.22226898609E+01  0.11850052911E+01  0.16139811888E+01  0.29915753435E+01  0.00000000000E+00 0.  1.
</event>
<event>
 7    1  0.2942034E-011  0.5052886E+02  0.7816164E-02  0.1300439E+00
        -11   -1    0    0    0    0  0.00000000000E+00  0.00000000000E+00  0.45593999997E+02  0.45594000000E+02  0.51100000000E-03 0.  1.
         11   -1    0    0    0    0 -0.00000000000E+00 -0.00000000000E+00 -0.45593999997E+02  0.45594000000E+02  0.51100000000E-03 0. -1.
    9900012    2    1    2    0    0 -0.12810862400E+01 -0.83888805080E+01  0.39763695238E+02  0.50528856415E+02  0.29999989558E+02 0.  0.
         12    1    1    2    0    0  0.12810862400E+01  0.83888805080E+01 -0.39763695238E+02  0.40659143585E+02  0.00000000000E+00 0. -1.
         11    1    3    3    0    0 -0.22566194885E+01  0.25273950503E+01 -0.23329998596E+01  0.41137508265E+01  0.51100000000E-03 0. -1.
        -11    1    3    3    0    0 -0.73459715799E+01 -0.39280414963E+01  0.22725578295E+02  0.24204229332E+02  0.51100000000E-03 0.  1.
         12    1    3    3    0    0  0.83215048283E+01 -0.69882340620E+01  0.19371116802E+02  0.22210876256E+02  0.00000000000E+00 0. -1.
</event>
<event>
 7    1  0.2942034E-011  0.5052887E+02  0.7816164E-02  0.1300439E+00
        -11   -1    0    0    0    0  0.00000000000E+00  0.00000000000E+00  0.45593999997E+02  0.45594000000E+02  0.51100000000E-03 0.  1.
         11   -1    0    0    0    0 -0.00000000000E+00 -0.00000000000E+00 -0.45593999997E+02  0.45594000000E+02  0.51100000000E-03 0. -1.
    9900012    2    1    2    0    0  0.18147604240E+02  0.35170050499E+02 -0.93218641718E+01  0.50528866421E+02  0.30000019973E+02 0.  0.
         12    1    1    2    0    0 -0.18147604240E+02 -0.35170050499E+02  0.93218641718E+01  0.40659133579E+02  0.00000000000E+00 0. -1.
         11    1    3    3    0    0  0.19742576360E+01  0.67852425380E+01  0.37818022667E+01  0.80149384376E+01  0.51100000000E-03 0.  1.
        -11    1    3    3    0    0  0.12927269817E+02  0.16585887644E+01 -0.74217742539E+01  0.14998265065E+02  0.51100000000E-03 0. -1.
        -12    1    3    3    0    0  0.32460767864E+01  0.26726219197E+02 -0.56818921846E+01  0.27515662919E+02  0.00000000000E+00 0.  1.
</event>
<event>
 7    1  0.2942034E-011  0.5052886E+02  0.7816164E-02  0.1300439E+00
        -11   -1    0    0    0    0  0.00000000000E+00  0.00000000000E+00  0.45593999997E+02  0.45594000000E+02  0.51100000000E-03 0. -1.
         11   -1    0    0    0    0 -0.00000000000E+00 -0.00000000000E+00 -0.45593999997E+02  0.45594000000E+02  0.51100000000E-03 0.  1.
    9900012    2    1    2    0    0 -0.23432402972E+02  0.15197075713E+02  0.29548896787E+02  0.50528856863E+02  0.29999990922E+02 0.  0.
         12    1    1    2    0    0  0.23432402972E+02 -0.15197075713E+02 -0.29548896787E+02  0.40659143137E+02  0.00000000000E+00 0. -1.
         11    1    3    3    0    0 -0.14038208429E+02  0.10539488796E+02 -0.42957161346E+00  0.17559517419E+02  0.51100000000E-03 0.  1.
        -11    1    3    3    0    0 -0.96053774000E+00  0.38065625417E+01  0.17148309460E+02  0.17591960344E+02  0.51100000000E-03 0. -1.
        -12    1    3    3    0    0 -0.84336568037E+01  0.85102437598E+00  0.12830158940E+02  0.15377379100E+02  0.00000000000E+00 0.  1.
</event>
<event>
 7    1  0.2942034E-011  0.5052886E+02  0.7816164E-02  0.1300439E+00
        -11   -1    0    0    0    0  0.00000000000E+00  0.00000000000E+00  0.45593999997E+02  0.45594000000E+02  0.51100000000E-03 0.  1.
         11   -1    0    0    0    0 -0.00000000000E+00 -0.00000000000E+00 -0.45593999997E+02  0.45594000000E+02  0.51100000000E-03 0. -1.
    9900012    2    1    2    0    0 -0.35013391659E+02 -0.17676392512E+02 -0.10713227897E+02  0.50528859580E+02  0.29999999179E+02 0.  0.
         12    1    1    2    0    0  0.35013391659E+02  0.17676392512E+02  0.10713227897E+02  0.40659140420E+02  0.00000000000E+00 0. -1.
         11    1    3    3    0    0 -0.93473356995E+01  0.43344676271E+01 -0.10228823815E+02  0.14518578828E+02  0.51100000000E-03 0. -1.
        -11    1    3    3    0    0 -0.18551956796E+02 -0.19829235974E+02 -0.45465425105E+01  0.27532612468E+02  0.51100000000E-03 0.  1.
        -12    1    3    3    0    0 -0.71140991640E+01 -0.21816241658E+01  0.40621384286E+01  0.84776682838E+01  0.00000000000E+00 0.  1.
</event>
<event>
 7    1  0.2942034E-011  0.5052886E+02  0.7816164E-02  0.1300439E+00
        -11   -1    0    0    0    0  0.00000000000E+00  0.00000000000E+00  0.45593999997E+02  0.45594000000E+02  0.51100000000E-03 0.  1.
         11   -1    0    0    0    0 -0.00000000000E+00 -0.00000000000E+00 -0.45593999997E+02  0.45594000000E+02  0.51100000000E-03 0. -1.
    9900012    2    1    2    0    0  0.24833141940E+02  0.18545510542E+02  0.26316243584E+02  0.50528861098E+02  0.30000003794E+02 0.  0.
         12    1    1    2    0    0 -0.24833141940E+02 -0.18545510542E+02 -0.26316243584E+02  0.40659138902E+02  0.00000000000E+00 0. -1.
         11    1    3    3    0    0  0.49366972567E+01 -0.45828094885E+00  0.12498847239E+01  0.51130434495E+01  0.51100000000E-03 0. -1.
        -11    1    3    3    0    0  0.33860294166E+01  0.16892043193E+02  0.25509958476E+01  0.17415909351E+02  0.51100000000E-03 0.  1.
        -12    1    3    3    0    0  0.16510415266E+02  0.21117482986E+01  0.22515363012E+02  0.27999908298E+02  0.00000000000E+00 0.  1.
</event>
<event>
 7    1  0.2942034E-011  0.5052887E+02  0.7816164E-02  0.1300439E+00
        -11   -1    0    0    0    0  0.00000000000E+00  0.00000000000E+00  0.45593999997E+02  0.45594000000E+02  0.51100000000E-03 0.  1.
         11   -1    0    0    0    0 -0.00000000000E+00 -0.00000000000E+00 -0.45593999997E+02  0.45594000000E+02  0.51100000000E-03 0. -1.
    9900012    2    1    2    0    0  0.56254560101E+01 -0.36323252902E+02  0.17382182729E+02  0.50528871466E+02  0.30000035309E+02 0.  0.
         12    1    1    2    0    0 -0.56254560101E+01  0.36323252902E+02 -0.17382182729E+02  0.40659128534E+02  0.00000000000E+00 0. -1.
         11    1    3    3    0    0 -0.57870197186E+01 -0.47071594986E+01 -0.51541103842E+01  0.90670723987E+01  0.51100000000E-03 0. -1.
        -11    1    3    3    0    0  0.94914229606E+00 -0.13530628357E+02  0.60749856092E+01  0.14862174311E+02  0.51100000000E-03 0.  1.
         12    1    3    3    0    0  0.10463333433E+02 -0.18085465047E+02  0.16461307504E+02  0.26599624757E+02  0.00000000000E+00 0. -1.
</event>
<event>
 7    1  0.2942034E-011  0.5052886E+02  0.7816164E-02  0.1300439E+00
        -11   -1    0    0    0    0  0.00000000000E+00  0.00000000000E+00  0.45593999997E+02  0.45594000000E+02  0.51100000000E-03 0.  1.
         11   -1    0    0    0    0 -0.00000000000E+00 -0.00000000000E+00 -0.45593999997E+02  0.45594000000E+02  0.51100000000E-03 0. -1.
    9900012    2    1    2    0    0 -0.32583227807E+02  0.20375850839E+02  0.13278694855E+02  0.50528858731E+02  0.29999996598E+02 0.  0.
         12    1    1    2    0    0  0.32583227807E+02 -0.20375850839E+02 -0.13278694855E+02  0.40659141269E+02  0.00000000000E+00 0. -1.
         11    1    3    3    0    0 -0.16217064718E+02 -0.77007519592E+00 -0.20327769517E+01  0.16362102135E+02  0.51100000000E-03 0. -1.
        -11    1    3    3    0    0 -0.13845364987E+02  0.22859170354E+02  0.11031512129E+02  0.28912455118E+02  0.51100000000E-03 0.  1.
        -12    1    3    3    0    0 -0.25207981018E+01 -0.17132443191E+01  0.42799596779E+01  0.52543014770E+01  0.00000000000E+00 0.  1.
</event>
<event>
 7    1  0.2942034E-011  0.5052886E+02  0.7816164E-02  0.1300439E+00
        -11   -1    0    0    0    0  0.00000000000E+00  0.00000000000E+00  0.45593999997E+02  0.45594000000E+02  0.51100000000E-03 0.  1.
         11   -1    0    0    0    0 -0.00000000000E+00 -0.00000000000E+00 -0.45593999997E+02  0.45594000000E+02  0.51100000000E-03 0. -1.
    9900012    2    1    2    0    0 -0.33825238683E+01 -0.49056002732E+01  0.40220130620E+02  0.50528864632E+02  0.30000014535E+02 0.  0.
         12    1    1    2    0    0  0.33825238683E+01  0.49056002732E+01 -0.40220130620E+02  0.40659135368E+02  0.00000000000E+00 0. -1.
         11    1    3    3    0    0  0.56636516910E+01  0.27371781145E+01  0.79390589534E+01  0.10129054834E+02  0.51100000000E-03 0. -1.
        -11    1    3    3    0    0 -0.12778154692E+02 -0.41201301960E+01  0.80999449892E+01  0.15680109032E+02  0.51100000000E-03 0.  1.
        -12    1    3    3    0    0  0.37319791330E+01 -0.35226481917E+01  0.24181126678E+02  0.24719700766E+02  0.00000000000E+00 0.  1.
</event>
<event>
 7    1  0.2942034E-011  0.5052884E+02  0.7816164E-02  0.1300439E+00
        -11   -1    0    0    0    0  0.00000000000E+00  0.00000000000E+00  0.45593999997E+02  0.45594000000E+02  0.51100000000E-03 0.  1.
         11   -1    0    0    0    0 -0.00000000000E+00 -0.00000000000E+00 -0.45593999997E+02  0.45594000000E+02  0.51100000000E-03 0. -1.
    9900012    2    1    2    0    0 -0.72671298576E+01 -0.11317291266E+02  0.38370235578E+02  0.50528840684E+02  0.29999941742E+02 0.  0.
         12    1    1    2    0    0  0.72671298576E+01  0.11317291266E+02 -0.38370235578E+02  0.40659159316E+02  0.00000000000E+00 0. -1.
         11    1    3    3    0    0 -0.10821463389E+02 -0.41688931538E+01  0.20337853116E+01  0.11773700478E+02  0.51100000000E-03 0. -1.
        -11    1    3    3    0    0  0.20134723645E+01 -0.99848201972E+01  0.29107475759E+02  0.30838220614E+02  0.51100000000E-03 0.  1.
         12    1    3    3    0    0  0.15408611665E+01  0.28364220848E+01  0.72289745080E+01  0.79169195912E+01  0.00000000000E+00 0. -1.
</event>
<event>
 7    1  0.2942034E-011  0.5052886E+02  0.7816164E-02  0.1300439E+00
        -11   -1    0    0    0    0  0.00000000000E+00  0.00000000000E+00  0.45593999997E+02  0.45594000000E+02  0.51100000000E-03 0.  1.
         11   -1    0    0    0    0 -0.00000000000E+00 -0.00000000000E+00 -0.45593999997E+02  0.45594000000E+02  0.51100000000E-03 0. -1.
    9900012    2    1    2    0    0  0.16924085389E+02 -0.35553522634E+02  0.10133516718E+02  0.50528858359E+02  0.29999995467E+02 0.  0.
         12    1    1    2    0    0 -0.16924085389E+02  0.35553522634E+02 -0.10133516718E+02  0.40659141641E+02  0.00000000000E+00 0. -1.
         11    1    3    3    0    0  0.13972470941E+02 -0.11598229846E+02  0.16557342327E+02  0.24574264281E+02  0.51100000000E-03 0. -1.
        -11    1    3    3    0    0 -0.14877228508E+01 -0.14224026302E+02 -0.22717151319E+01  0.14480916180E+02  0.51100000000E-03 0.  1.
        -12    1    3    3    0    0  0.44393372983E+01 -0.97312664860E+01 -0.41521104778E+01  0.11473677897E+02  0.00000000000E+00 0.  1.
</event>
<event>
 7    1  0.2942034E-011  0.5052884E+02  0.7816164E-02  0.1300439E+00
        -11   -1    0    0    0    0  0.00000000000E+00  0.00000000000E+00  0.45593999997E+02  0.45594000000E+02  0.51100000000E-03 0. -1.
         11   -1    0    0    0    0 -0.00000000000E+00 -0.00000000000E+00 -0.45593999997E+02  0.45594000000E+02  0.51100000000E-03 0.  1.
    9900012    2    1    2    0    0 -0.15633301727E+02  0.32567576600E+02 -0.18657973306E+02  0.50528841912E+02  0.29999945476E+02 0.  0.
         12    1    1    2    0    0  0.15633301727E+02 -0.32567576600E+02  0.18657973306E+02  0.40659158088E+02  0.00000000000E+00 0. -1.
         11    1    3    3    0    0 -0.22937763823E+01 -0.30776840868E+01  0.12074894746E-01  0.38384496211E+01  0.51100000000E-03 0. -1.
        -11    1    3    3    0    0  0.15521154463E+01  0.21825016368E+02 -0.13559340334E+02  0.25740942336E+02  0.51100000000E-03 0.  1.
        -12    1    3    3    0    0 -0.14891640791E+02  0.13820244320E+02 -0.51107078669E+01  0.20949449955E+02  0.00000000000E+00 0.  1.
</event>
<event>
 7    1  0.2942034E-011  0.5052886E+02  0.7816164E-02  0.1300439E+00
        -11   -1    0    0    0    0  0.00000000000E+00  0.00000000000E+00  0.45593999997E+02  0.45594000000E+02  0.51100000000E-03 0.  1.
         11   -1    0    0    0    0 -0.00000000000E+00 -0.00000000000E+00 -0.45593999997E+02  0.45594000000E+02  0.51100000000E-03 0. -1.
    9900012    2    1    2    0    0  0.19589657291E+02 -0.46316323911E+01  0.35326462628E+02  0.50528860152E+02  0.30000000917E+02 0.  0.
         12    1    1    2    0    0 -0.19589657291E+02  0.46316323911E+01 -0.35326462628E+02  0.40659139848E+02  0.00000000000E+00 0. -1.
         11    1    3    3    0    0  0.99206669690E+01  0.79454230030E+01  0.38915132640E+01  0.13292601534E+02  0.51100000000E-03 0. -1.
        -11    1    3    3    0    0  0.86744026186E+01 -0.95427203724E+01  0.31505079779E+02  0.34042309338E+02  0.51100000000E-03 0.  1.
        -12    1    3    3    0    0  0.99458770335E+00 -0.30343350218E+01 -0.70130415261E-01  0.31939492794E+01  0.00000000000E+00 0.  1.
</event>
<event>
 7    1  0.2942034E-011  0.5052885E+02  0.7816164E-02  0.1300439E+00
        -11   -1    0    0    0    0  0.00000000000E+00  0.00000000000E+00  0.45593999997E+02  0.45594000000E+02  0.51100000000E-03 0.  1.
         11   -1    0    0    0    0 -0.00000000000E+00 -0.00000000000E+00 -0.45593999997E+02  0.45594000000E+02  0.51100000000E-03 0. -1.
    9900012    2    1    2    0    0 -0.10842120156E+01 -0.21446598253E+02  0.34525849146E+02  0.50528851563E+02  0.29999974811E+02 0.  0.
         12    1    1    2    0    0  0.10842120156E+01  0.21446598253E+02 -0.34525849146E+02  0.40659148437E+02  0.00000000000E+00 0. -1.
         11    1    3    3    0    0 -0.20990321302E+01  0.51243731575E-01  0.10373424792E+02  0.10583784955E+02  0.51100000000E-03 0. -1.
        -11    1    3    3    0    0  0.10847501367E+02 -0.38526684482E+01  0.10348699862E+02  0.15479241880E+02  0.51100000000E-03 0.  1.
        -12    1    3    3    0    0 -0.98326812529E+01 -0.17645173537E+02  0.13803724493E+02  0.24465824728E+02  0.00000000000E+00 0.  1.
</event>
<event>
 7    1  0.2942034E-011  0.5052880E+02  0.7816164E-02  0.1300439E+00
        -11   -1    0    0    0    0  0.00000000000E+00  0.00000000000E+00  0.45593999997E+02  0.45594000000E+02  0.51100000000E-03 0. -1.
         11   -1    0    0    0    0 -0.00000000000E+00 -0.00000000000E+00 -0.45593999997E+02  0.45594000000E+02  0.51100000000E-03 0.  1.
    9900012    2    1    2    0    0  0.32651851087E+02  0.15730789822E+02 -0.18427414165E+02  0.50528797836E+02  0.29999811501E+02 0.  0.
         12    1    1    2    0    0 -0.32651851087E+02 -0.15730789822E+02  0.18427414165E+02  0.40659202164E+02  0.00000000000E+00 0. -1.
         11    1    3    3    0    0  0.49172371725E+01 -0.62726727577E+00  0.18699094257E+01  0.52980418238E+01  0.51100000000E-03 0. -1.
        -11    1    3    3    0    0  0.19254749648E+02  0.20690518196E+02 -0.21663022251E+02  0.35610805390E+02  0.51100000000E-03 0.  1.
        -12    1    3    3    0    0  0.84798642663E+01 -0.43324610980E+01  0.13656986598E+01  0.96199506220E+01  0.00000000000E+00 0.  1.
</event>
<event>
 7    1  0.2942034E-011  0.5052890E+02  0.7816164E-02  0.1300439E+00
        -11   -1    0    0    0    0  0.00000000000E+00  0.00000000000E+00  0.45593999997E+02  0.45594000000E+02  0.51100000000E-03 0. -1.
         11   -1    0    0    0    0 -0.00000000000E+00 -0.00000000000E+00 -0.45593999997E+02  0.45594000000E+02  0.51100000000E-03 0.  1.
    9900012    2    1    2    0    0  0.33006957510E+02 -0.19592650591E+02  0.13410109412E+02  0.50528902178E+02  0.30000128659E+02 0.  0.
         12    1    1    2    0    0 -0.33006957510E+02  0.19592650591E+02 -0.13410109412E+02  0.40659097822E+02  0.00000000000E+00 0. -1.
         11    1    3    3    0    0  0.86092492702E+01  0.36248195115E+01  0.61372449444E+01  0.11176952414E+02  0.51100000000E-03 0. -1.
        -11    1    3    3    0    0  0.98034122596E+01 -0.20972860727E+02  0.81916302398E+01  0.24557495500E+02  0.51100000000E-03 0.  1.
        -12    1    3    3    0    0  0.14594295981E+02 -0.22446093752E+01 -0.91876577179E+00  0.14794454264E+02  0.00000000000E+00 0.  1.
</event>
<event>
 7    1  0.2942034E-011  0.5052883E+02  0.7816164E-02  0.1300439E+00
        -11   -1    0    0    0    0  0.00000000000E+00  0.00000000000E+00  0.45593999997E+02  0.45594000000E+02  0.51100000000E-03 0. -1.
         11   -1    0    0    0    0 -0.00000000000E+00 -0.00000000000E+00 -0.45593999997E+02  0.45594000000E+02  0.51100000000E-03 0.  1.
    9900012    2    1    2    0    0 -0.10812407829E+02 -0.35154737181E+02  0.17332186135E+02  0.50528826551E+02  0.29999898784E+02 0.  0.
         12    1    1    2    0    0  0.10812407829E+02  0.35154737181E+02 -0.17332186135E+02  0.40659173449E+02  0.00000000000E+00 0. -1.
         11    1    3    3    0    0  0.76472211768E+01 -0.76175260653E+01  0.63500488416E+01  0.12523171149E+02  0.51100000000E-03 0. -1.
        -11    1    3    3    0    0 -0.10396956076E+02 -0.63545543804E+01 -0.12521932654E+01  0.12249287541E+02  0.51100000000E-03 0.  1.
         12    1    3    3    0    0 -0.80626729303E+01 -0.21182656735E+02  0.12234330559E+02  0.25756367861E+02  0.00000000000E+00 0. -1.
</event>
<event>
 7    1  0.2942034E-011  0.5052881E+02  0.7816164E-02  0.1300439E+00
        -11   -1    0    0    0    0  0.00000000000E+00  0.00000000000E+00  0.45593999997E+02  0.45594000000E+02  0.51100000000E-03 0. -1.
         11   -1    0    0    0    0 -0.00000000000E+00 -0.00000000000E+00 -0.45593999997E+02  0.45594000000E+02  0.51100000000E-03 0.  1.
    9900012    2    1    2    0    0  0.16070368034E+02 -0.35313742958E+02 -0.12159454627E+02  0.50528812757E+02  0.29999856857E+02 0.  0.
         12    1    1    2    0    0 -0.16070368034E+02  0.35313742958E+02  0.12159454627E+02  0.40659187243E+02  0.00000000000E+00 0. -1.
         11    1    3    3    0    0  0.14564790033E+01  0.52700842374E+01  0.10393398574E+00  0.54686306779E+01  0.51100000000E-03 0. -1.
        -11    1    3    3    0    0  0.10205779377E+02 -0.31244071687E+02 -0.10974001271E+02  0.34652253209E+02  0.51100000000E-03 0.  1.
        -12    1    3    3    0    0  0.44081096530E+01 -0.93397555080E+01 -0.12893873414E+01  0.10407928871E+02  0.00000000000E+00 0.  1.
</event>
<event>
 7    1  0.2942034E-011  0.5052886E+02  0.7816164E-02  0.1300439E+00
        -11   -1    0    0    0    0  0.00000000000E+00  0.00000000000E+00  0.45593999997E+02  0.45594000000E+02  0.51100000000E-03 0. -1.
         11   -1    0    0    0    0 -0.00000000000E+00 -0.00000000000E+00 -0.45593999997E+02  0.45594000000E+02  0.51100000000E-03 0.  1.
    9900012    2    1    2    0    0 -0.21309604786E+01  0.20254653778E+02 -0.35190539248E+02  0.50528855336E+02  0.29999986279E+02 0.  0.
         12    1    1    2    0    0  0.21309604786E+01 -0.20254653778E+02  0.35190539248E+02  0.40659144664E+02  0.00000000000E+00 0. -1.
         11    1    3    3    0    0 -0.28960518173E+01 -0.65893315656E+01 -0.12743653168E+02  0.14635815759E+02  0.51100000000E-03 0. -1.
        -11    1    3    3    0    0 -0.13167437501E+01  0.79917927734E+01 -0.27621614883E+01  0.85575757189E+01  0.51100000000E-03 0.  1.
         12    1    3    3    0    0  0.20818350888E+01  0.18852192571E+02 -0.19684724592E+02  0.27335463858E+02  0.00000000000E+00 0. -1.
</event>
<event>
 7    1  0.2942034E-011  0.5052885E+02  0.7816164E-02  0.1300439E+00
        -11   -1    0    0    0    0  0.00000000000E+00  0.00000000000E+00  0.45593999997E+02  0.45594000000E+02  0.51100000000E-03 0.  1.
         11   -1    0    0    0    0 -0.00000000000E+00 -0.00000000000E+00 -0.45593999997E+02  0.45594000000E+02  0.51100000000E-03 0. -1.
    9900012    2    1    2    0    0 -0.16332270057E+02  0.36939274216E+02 -0.46811561244E+01  0.50528852843E+02  0.29999978702E+02 0.  0.
         12    1    1    2    0    0  0.16332270057E+02 -0.36939274216E+02  0.46811561244E+01  0.40659147157E+02  0.00000000000E+00 0. -1.
         11    1    3    3    0    0 -0.15973870375E+02  0.17949656371E+02 -0.38799313368E+01  0.24339444653E+02  0.51100000000E-03 0. -1.
        -11    1    3    3    0    0  0.39005457634E+01  0.95940829464E+01 -0.84343976224E+01  0.13356636865E+02  0.51100000000E-03 0.  1.
        -12    1    3    3    0    0 -0.42589454457E+01  0.93955348990E+01  0.76331728348E+01  0.12832771325E+02  0.00000000000E+00 0.  1.
</event>
<event>
 7    1  0.2942034E-011  0.5052887E+02  0.7816164E-02  0.1300439E+00
        -11   -1    0    0    0    0  0.00000000000E+00  0.00000000000E+00  0.45593999997E+02  0.45594000000E+02  0.51100000000E-03 0. -1.
         11   -1    0    0    0    0 -0.00000000000E+00 -0.00000000000E+00 -0.45593999997E+02  0.45594000000E+02  0.51100000000E-03 0.  1.
    9900012    2    1    2    0    0  0.11720538432E+02  0.25241727556E+02 -0.29642020716E+02  0.50528865439E+02  0.30000016988E+02 0.  0.
         12    1    1    2    0    0 -0.11720538432E+02 -0.25241727556E+02  0.29642020716E+02  0.40659134561E+02  0.00000000000E+00 0. -1.
         11    1    3    3    0    0 -0.17429537244E+01 -0.35317800266E+00 -0.11106720061E+02  0.11248193328E+02  0.51100000000E-03 0. -1.
        -11    1    3    3    0    0  0.16823947110E+02  0.16230988388E+02 -0.77993575357E+01  0.24643866553E+02  0.51100000000E-03 0.  1.
        -12    1    3    3    0    0 -0.33604549543E+01  0.93639171703E+01 -0.10735943120E+02  0.14636805558E+02  0.00000000000E+00 0.  1.
</event>
<event>
 7    1  0.2942034E-011  0.5052887E+02  0.7816164E-02  0.1300439E+00
        -11   -1    0    0    0    0  0.00000000000E+00  0.00000000000E+00  0.45593999997E+02  0.45594000000E+02  0.51100000000E-03 0.  1.
         11   -1    0    0    0    0 -0.00000000000E+00 -0.00000000000E+00 -0.45593999997E+02  0.45594000000E+02  0.51100000000E-03 0. -1.
    9900012    2    1    2    0    0 -0.37572894572E+02  0.14896686869E+02  0.44194396391E+01  0.50528866550E+02  0.30000020365E+02 0.  0.
         12    1    1    2    0    0  0.37572894572E+02 -0.14896686869E+02 -0.44194396391E+01  0.40659133450E+02  0.00000000000E+00 0. -1.
         11    1    3    3    0    0 -0.21059176366E+01  0.21384752215E+01 -0.78654058012E+01  0.84185850381E+01  0.51100000000E-03 0. -1.
        -11    1    3    3    0    0 -0.23630558900E+02  0.60976854663E+01  0.14442987401E+02  0.28358155217E+02  0.51100000000E-03 0.  1.
        -12    1    3    3    0    0 -0.11836418035E+02  0.66605261815E+01 -0.21581419606E+01  0.13752126295E+02  0.00000000000E+00 0.  1.
</event>
<event>
 7    1  0.2942034E-011  0.5052888E+02  0.7816164E-02  0.1300439E+00
        -11   -1    0    0    0    0  0.00000000000E+00  0.00000000000E+00  0.45593999997E+02  0.45594000000E+02  0.51100000000E-03 0. -1.
         11   -1    0    0    0    0 -0.00000000000E+00 -0.00000000000E+00 -0.45593999997E+02  0.45594000000E+02  0.51100000000E-03 0.  1.
    9900012    2    1    2    0    0 -0.20843026579E+02 -0.34768459872E+02 -0.31442526011E+01  0.50528881918E+02  0.30000067077E+02 0.  0.
         12    1    1    2    0    0  0.20843026579E+02  0.34768459872E+02  0.31442526011E+01  0.40659118082E+02  0.00000000000E+00 0. -1.
         11    1    3    3    0    0 -0.14120298055E+02 -0.88220281881E+01  0.17414494764E+01  0.16740479236E+02  0.51100000000E-03 0. -1.
        -11    1    3    3    0    0 -0.21807029313E+00 -0.17249375919E+01 -0.82974952241E+01  0.84776996647E+01  0.51100000000E-03 0.  1.
        -12    1    3    3    0    0 -0.65046582300E+01 -0.24221494092E+02  0.34117931466E+01  0.25310703017E+02  0.00000000000E+00 0.  1.
</event>
<event>
 7    1  0.2942034E-011  0.5052886E+02  0.7816164E-02  0.1300439E+00
        -11   -1    0    0    0    0  0.00000000000E+00  0.00000000000E+00  0.45593999997E+02  0.45594000000E+02  0.51100000000E-03 0.  1.
         11   -1    0    0    0    0 -0.00000000000E+00 -0.00000000000E+00 -0.45593999997E+02  0.45594000000E+02  0.51100000000E-03 0. -1.
    9900012    2    1    2    0    0  0.89461910474E+01  0.21725278740E+02  0.33183487222E+02  0.50528857181E+02  0.29999991887E+02 0.  0.
         12    1    1    2    0    0 -0.89461910474E+01 -0.21725278740E+02 -0.33183487222E+02  0.40659142819E+02  0.00000000000E+00 0. -1.
         11    1    3    3    0    0  0.11337392563E+02 -0.33963906885E+01  0.15874588671E+02  0.19800871333E+02  0.51100000000E-03 0. -1.
        -11    1    3    3    0    0 -0.16465313026E+01  0.52615696080E+01  0.39168508564E+01  0.67629062512E+01  0.51100000000E-03 0.  1.
         12    1    3    3    0    0 -0.74467021285E+00  0.19860099820E+02  0.13392047695E+02  0.23965079596E+02  0.00000000000E+00 0. -1.
</event>
<event>
 7    1  0.2942034E-011  0.5052886E+02  0.7816164E-02  0.1300439E+00
        -11   -1    0    0    0    0  0.00000000000E+00  0.00000000000E+00  0.45593999997E+02  0.45594000000E+02  0.51100000000E-03 0.  1.
         11   -1    0    0    0    0 -0.00000000000E+00 -0.00000000000E+00 -0.45593999997E+02  0.45594000000E+02  0.51100000000E-03 0. -1.
    9900012    2    1    2    0    0 -0.24456528623E+02 -0.20678680746E+02  0.25048675849E+02  0.50528858451E+02  0.29999995749E+02 0.  0.
         12    1    1    2    0    0  0.24456528623E+02  0.20678680746E+02 -0.25048675849E+02  0.40659141549E+02  0.00000000000E+00 0. -1.
         11    1    3    3    0    0  0.37382944365E+01  0.98831021784E-01 -0.78696785301E+00  0.38215090642E+01  0.51100000000E-03 0. -1.
        -11    1    3    3    0    0 -0.25059829007E+02 -0.19630657880E+02  0.14665437162E+02  0.35049005779E+02  0.51100000000E-03 0.  1.
         12    1    3    3    0    0 -0.31349940523E+01 -0.11468538879E+01  0.11170206540E+02  0.11658343608E+02  0.00000000000E+00 0. -1.
</event>
<event>
 7    1  0.2942034E-011  0.5052886E+02  0.7816164E-02  0.1300439E+00
        -11   -1    0    0    0    0  0.00000000000E+00  0.00000000000E+00  0.45593999997E+02  0.45594000000E+02  0.51100000000E-03 0.  1.
         11   -1    0    0    0    0 -0.00000000000E+00 -0.00000000000E+00 -0.45593999997E+02  0.45594000000E+02  0.51100000000E-03 0. -1.
    9900012    2    1    2    0    0 -0.84491565637E+01 -0.18612393615E+02  0.35147635720E+02  0.50528859092E+02  0.29999997695E+02 0.  0.
         12    1    1    2    0    0  0.84491565637E+01  0.18612393615E+02 -0.35147635720E+02  0.40659140908E+02  0.00000000000E+00 0. -1.
         11    1    3    3    0    0 -0.17946503504E+01 -0.78584942347E+01  0.60531315201E+00  0.80835082600E+01  0.51100000000E-03 0. -1.
        -11    1    3    3    0    0 -0.52314388222E+01 -0.15876209679E+02  0.32863144141E+02  0.36870153634E+02  0.51100000000E-03 0.  1.
        -12    1    3    3    0    0 -0.14230673912E+01  0.51223102992E+01  0.16791784275E+01  0.55751971976E+01  0.00000000000E+00 0.  1.
</event>
<event>
 7    1  0.2942034E-011  0.5052891E+02  0.7816164E-02  0.1300439E+00
        -11   -1    0    0    0    0  0.00000000000E+00  0.00000000000E+00  0.45593999997E+02  0.45594000000E+02  0.51100000000E-03 0. -1.
         11   -1    0    0    0    0 -0.00000000000E+00 -0.00000000000E+00 -0.45593999997E+02  0.45594000000E+02  0.51100000000E-03 0.  1.
    9900012    2    1    2    0    0  0.12747293595E+02  0.24115259913E+02 -0.30151655998E+02  0.50528909822E+02  0.30000151895E+02 0.  0.
         12    1    1    2    0    0 -0.12747293595E+02 -0.24115259913E+02  0.30151655998E+02  0.40659090178E+02  0.00000000000E+00 0. -1.
         11    1    3    3    0    0 -0.25544918905E+01  0.75997604925E+01  0.20057590743E+01  0.82646753165E+01  0.51100000000E-03 0. -1.
        -11    1    3    3    0    0  0.49183749051E+01  0.94288803604E+01 -0.26352676563E+02  0.28417560748E+02  0.51100000000E-03 0.  1.
         12    1    3    3    0    0  0.10383410581E+02  0.70866190600E+01 -0.58047385087E+01  0.13846673757E+02  0.00000000000E+00 0. -1.
</event>
<event>
 7    1  0.2942034E-011  0.5052886E+02  0.7816164E-02  0.1300439E+00
        -11   -1    0    0    0    0  0.00000000000E+00  0.00000000000E+00  0.45593999997E+02  0.45594000000E+02  0.51100000000E-03 0.  1.
         11   -1    0    0    0    0 -0.00000000000E+00 -0.00000000000E+00 -0.45593999997E+02  0.45594000000E+02  0.51100000000E-03 0. -1.
    9900012    2    1    2    0    0 -0.29295393715E+02 -0.23744284799E+02  0.15203765041E+02  0.50528860499E+02  0.30000001974E+02 0.  0.
         12    1    1    2    0    0  0.29295393715E+02  0.23744284799E+02 -0.15203765041E+02  0.40659139501E+02  0.00000000000E+00 0. -1.
         11    1    3    3    0    0 -0.18820958175E+02 -0.11714698128E+02 -0.29501991913E+01  0.22364397921E+02  0.51100000000E-03 0. -1.
        -11    1    3    3    0    0 -0.11153088032E+02 -0.45642114072E+01  0.16593269677E+02  0.20507559515E+02  0.51100000000E-03 0.  1.
        -12    1    3    3    0    0  0.67865249213E+00 -0.74653752633E+01  0.15606945561E+01  0.76569030635E+01  0.00000000000E+00 0.  1.
</event>
<event>
 7    1  0.2942034E-011  0.5052886E+02  0.7816164E-02  0.1300439E+00
        -11   -1    0    0    0    0  0.00000000000E+00  0.00000000000E+00  0.45593999997E+02  0.45594000000E+02  0.51100000000E-03 0.  1.
         11   -1    0    0    0    0 -0.00000000000E+00 -0.00000000000E+00 -0.45593999997E+02  0.45594000000E+02  0.51100000000E-03 0. -1.
    9900012    2    1    2    0    0 -0.37000275774E+01  0.21291802517E+01  0.40434419735E+02  0.50528856970E+02  0.29999991247E+02 0.  0.
         12    1    1    2    0    0  0.37000275774E+01 -0.21291802517E+01 -0.40434419735E+02  0.40659143030E+02  0.00000000000E+00 0. -1.
         11    1    3    3    0    0  0.12577784109E+01 -0.45507627720E+01 -0.27524916351E+01  0.54651311787E+01  0.51100000000E-03 0. -1.
        -11    1    3    3    0    0 -0.29433177058E-01 -0.11185662067E+01  0.21073196730E+02  0.21102883153E+02  0.51100000000E-03 0.  1.
         12    1    3    3    0    0 -0.49283728112E+01  0.77985092304E+01  0.22113714640E+02  0.23960842638E+02  0.00000000000E+00 0. -1.
</event>
<event>
 7    1  0.2942034E-011  0.5052885E+02  0.7816164E-02  0.1300439E+00
        -11   -1    0    0    0    0  0.00000000000E+00  0.00000000000E+00  0.45593999997E+02  0.45594000000E+02  0.51100000000E-03 0. -1.
         11   -1    0    0    0    0 -0.00000000000E+00 -0.00000000000E+00 -0.45593999997E+02  0.45594000000E+02  0.51100000000E-03 0.  1.
    9900012    2    1    2    0    0 -0.37265462604E+02  0.73524550384E+01  0.14504931364E+02  0.50528851804E+02  0.29999975542E+02 0.  0.
         12    1    1    2    0    0  0.37265462604E+02 -0.73524550384E+01 -0.14504931364E+02  0.40659148196E+02  0.00000000000E+00 0. -1.
         11    1    3    3    0    0 -0.27655755157E+01  0.16526979137E+01  0.56144811486E+01  0.64731921922E+01  0.51100000000E-03 0. -1.
        -11    1    3    3    0    0 -0.26751465343E+02  0.15265705732E+02  0.55109225345E+01  0.31289821619E+02  0.51100000000E-03 0.  1.
        -12    1    3    3    0    0 -0.77484217455E+01 -0.95659486075E+01  0.33795276808E+01  0.12765837993E+02  0.00000000000E+00 0.  1.
</event>
<event>
 7    1  0.2942034E-011  0.5052882E+02  0.7816164E-02  0.1300439E+00
        -11   -1    0    0    0    0  0.00000000000E+00  0.00000000000E+00  0.45593999997E+02  0.45594000000E+02  0.51100000000E-03 0.  1.
         11   -1    0    0    0    0 -0.00000000000E+00 -0.00000000000E+00 -0.45593999997E+02  0.45594000000E+02  0.51100000000E-03 0. -1.
    9900012    2    1    2    0    0 -0.28977969077E+02 -0.25724160522E+02  0.12317229105E+02  0.50528815808E+02  0.29999866128E+02 0.  0.
         12    1    1    2    0    0  0.28977969077E+02  0.25724160522E+02 -0.12317229105E+02  0.40659184192E+02  0.00000000000E+00 0. -1.
         11    1    3    3    0    0 -0.44792479623E+01 -0.21535054501E+01 -0.87552428916E+00  0.50465623025E+01  0.51100000000E-03 0. -1.
        -11    1    3    3    0    0 -0.23281365916E+02 -0.13461782665E+02  0.19754723898E+02  0.33369008196E+02  0.51100000000E-03 0.  1.
        -12    1    3    3    0    0 -0.12173551980E+01 -0.10108872407E+02 -0.65619705040E+01  0.12113245309E+02  0.00000000000E+00 0.  1.
</event>
<event>
 7    1  0.2942034E-011  0.5052886E+02  0.7816164E-02  0.1300439E+00
        -11   -1    0    0    0    0  0.00000000000E+00  0.00000000000E+00  0.45593999997E+02  0.45594000000E+02  0.51100000000E-03 0.  1.
         11   -1    0    0    0    0 -0.00000000000E+00 -0.00000000000E+00 -0.45593999997E+02  0.45594000000E+02  0.51100000000E-03 0. -1.
    9900012    2    1    2    0    0  0.20981690097E+01 -0.20351430842E+02  0.35136622201E+02  0.50528864862E+02  0.30000015233E+02 0.  0.
         12    1    1    2    0    0 -0.20981690097E+01  0.20351430842E+02 -0.35136622201E+02  0.40659135138E+02  0.00000000000E+00 0. -1.
         11    1    3    3    0    0 -0.21935665466E+01  0.43625377304E+01  0.16110981476E+01  0.51418972321E+01  0.51100000000E-03 0. -1.
        -11    1    3    3    0    0  0.21022670839E+01 -0.11697010443E+02  0.29152121493E+02  0.31481514703E+02  0.51100000000E-03 0.  1.
        -12    1    3    3    0    0  0.21894684724E+01 -0.13016958130E+02  0.43734025605E+01  0.13905452927E+02  0.00000000000E+00 0.  1.
</event>
<event>
 7    1  0.2942034E-011  0.5052886E+02  0.7816164E-02  0.1300439E+00
        -11   -1    0    0    0    0  0.00000000000E+00  0.00000000000E+00  0.45593999997E+02  0.45594000000E+02  0.51100000000E-03 0.  1.
         11   -1    0    0    0    0 -0.00000000000E+00 -0.00000000000E+00 -0.45593999997E+02  0.45594000000E+02  0.51100000000E-03 0. -1.
    9900012    2    1    2    0    0 -0.53127484455E+01 -0.47704575167E+01  0.40027279207E+02  0.50528860293E+02  0.30000001348E+02 0.  0.
         12    1    1    2    0    0  0.53127484455E+01  0.47704575167E+01 -0.40027279207E+02  0.40659139707E+02  0.00000000000E+00 0. -1.
         11    1    3    3    0    0 -0.10223877918E+02 -0.53369350231E+01  0.13035199873E+02  0.17404797934E+02  0.51100000000E-03 0. -1.
        -11    1    3    3    0    0  0.67156398438E+01  0.32793535292E+01  0.28550408484E+02  0.29512366949E+02  0.51100000000E-03 0.  1.
        -12    1    3    3    0    0 -0.18045103714E+01 -0.27128760228E+01 -0.15583291505E+01  0.36116954103E+01  0.00000000000E+00 0.  1.
</event>
<event>
 7    1  0.2942034E-011  0.5052896E+02  0.7816164E-02  0.1300438E+00
        -11   -1    0    0    0    0  0.00000000000E+00  0.00000000000E+00  0.45593999997E+02  0.45594000000E+02  0.51100000000E-03 0. -1.
         11   -1    0    0    0    0 -0.00000000000E+00 -0.00000000000E+00 -0.45593999997E+02  0.45594000000E+02  0.51100000000E-03 0.  1.
    9900012    2    1    2    0    0  0.13643778547E+02 -0.56132758668E+01 -0.37887938831E+02  0.50528960810E+02  0.30000306878E+02 0.  0.
         12    1    1    2    0    0 -0.13643778547E+02  0.56132758668E+01  0.37887938831E+02  0.40659039190E+02  0.00000000000E+00 0. -1.
         11    1    3    3    0    0  0.35710920084E+01 -0.71851074000E+01 -0.23552784609E+02  0.24881963941E+02  0.51100000000E-03 0. -1.
        -11    1    3    3    0    0 -0.50068506729E+00 -0.34068691592E+01  0.31159795161E+01  0.46440038340E+01  0.51100000000E-03 0.  1.
        -12    1    3    3    0    0  0.10573371606E+02  0.49787006924E+01 -0.17451133738E+02  0.21002993035E+02  0.00000000000E+00 0.  1.
</event>
<event>
 7    1  0.2942034E-011  0.5052886E+02  0.7816164E-02  0.1300439E+00
        -11   -1    0    0    0    0  0.00000000000E+00  0.00000000000E+00  0.45593999997E+02  0.45594000000E+02  0.51100000000E-03 0.  1.
         11   -1    0    0    0    0 -0.00000000000E+00 -0.00000000000E+00 -0.45593999997E+02  0.45594000000E+02  0.51100000000E-03 0. -1.
    9900012    2    1    2    0    0 -0.43821805041E+01  0.34442894570E+02  0.21157712950E+02  0.50528864377E+02  0.30000013759E+02 0.  0.
         12    1    1    2    0    0  0.43821805041E+01 -0.34442894570E+02 -0.21157712950E+02  0.40659135623E+02  0.00000000000E+00 0. -1.
         11    1    3    3    0    0  0.10117247133E+02  0.11235796691E+02  0.14485931834E+02  0.20939055332E+02  0.51100000000E-03 0. -1.
        -11    1    3    3    0    0 -0.93698482060E+01  0.12070228866E+02  0.80155808878E+01  0.17254970806E+02  0.51100000000E-03 0.  1.
         12    1    3    3    0    0 -0.51295794312E+01  0.11136869013E+02 -0.13437997711E+01  0.12334838239E+02  0.00000000000E+00 0. -1.
</event>
<event>
 7    1  0.2942034E-011  0.5052886E+02  0.7816164E-02  0.1300439E+00
        -11   -1    0    0    0    0  0.00000000000E+00  0.00000000000E+00  0.45593999997E+02  0.45594000000E+02  0.51100000000E-03 0. -1.
         11   -1    0    0    0    0 -0.00000000000E+00 -0.00000000000E+00 -0.45593999997E+02  0.45594000000E+02  0.51100000000E-03 0.  1.
    9900012    2    1    2    0    0 -0.10745619653E+02  0.24158222816E+02 -0.30888144709E+02  0.50528861361E+02  0.30000004592E+02 0.  0.
         12    1    1    2    0    0  0.10745619653E+02 -0.24158222816E+02  0.30888144709E+02  0.40659138639E+02  0.00000000000E+00 0. -1.
         11    1    3    3    0    0 -0.86312879392E+00  0.25285799421E+01  0.40133598562E+01  0.48213862566E+01  0.51100000000E-03 0. -1.
        -11    1    3    3    0    0 -0.36191084998E+01  0.22836415979E+02 -0.27919238501E+02  0.36250292686E+02  0.51100000000E-03 0.  1.
        -12    1    3    3    0    0 -0.62633823589E+01 -0.12067731045E+01 -0.69822660634E+01  0.94571824176E+01  0.00000000000E+00 0.  1.
</event>
<event>
 7    1  0.2942034E-011  0.5052886E+02  0.7816164E-02  0.1300439E+00
        -11   -1    0    0    0    0  0.00000000000E+00  0.00000000000E+00  0.45593999997E+02  0.45594000000E+02  0.51100000000E-03 0.  1.
         11   -1    0    0    0    0 -0.00000000000E+00 -0.00000000000E+00 -0.45593999997E+02  0.45594000000E+02  0.51100000000E-03 0. -1.
    9900012    2    1    2    0    0  0.29272770519E+00 -0.13446870695E+02  0.38370065303E+02  0.50528856719E+02  0.29999990484E+02 0.  0.
         12    1    1    2    0    0 -0.29272770519E+00  0.13446870695E+02 -0.38370065303E+02  0.40659143281E+02  0.00000000000E+00 0. -1.
         11    1    3    3    0    0 -0.64529158860E+01 -0.73516199427E+01 -0.95865972414E+00  0.98288080632E+01  0.51100000000E-03 0. -1.
        -11    1    3    3    0    0  0.42279971300E+01 -0.65863254337E+01  0.27234021934E+02  0.28336329921E+02  0.51100000000E-03 0.  1.
         12    1    3    3    0    0  0.25176464613E+01  0.49107468132E+00  0.12094703093E+02  0.12363718735E+02  0.00000000000E+00 0. -1.
</event>
<event>
 7    1  0.2942034E-011  0.5052886E+02  0.7816164E-02  0.1300439E+00
        -11   -1    0    0    0    0  0.00000000000E+00  0.00000000000E+00  0.45593999997E+02  0.45594000000E+02  0.51100000000E-03 0.  1.
         11   -1    0    0    0    0 -0.00000000000E+00 -0.00000000000E+00 -0.45593999997E+02  0.45594000000E+02  0.51100000000E-03 0. -1.
    9900012    2    1    2    0    0 -0.16340822873E+02 -0.92419897575E+01  0.36065621188E+02  0.50528857135E+02  0.29999991747E+02 0.  0.
         12    1    1    2    0    0  0.16340822873E+02  0.92419897575E+01 -0.36065621188E+02  0.40659142865E+02  0.00000000000E+00 0. -1.
         11    1    3    3    0    0 -0.70087441585E+01 -0.14838289970E-02 -0.31384323835E+01  0.76793394878E+01  0.51100000000E-03 0. -1.
        -11    1    3    3    0    0 -0.61884302289E+01  0.46544262727E+00  0.21894359685E+02  0.22756895479E+02  0.51100000000E-03 0.  1.
         12    1    3    3    0    0 -0.31436484852E+01 -0.97059485558E+01  0.17309693887E+02  0.20092622169E+02  0.00000000000E+00 0. -1.
</event>
<event>
 7    1  0.2942034E-011  0.5052886E+02  0.7816164E-02  0.1300439E+00
        -11   -1    0    0    0    0  0.00000000000E+00  0.00000000000E+00  0.45593999997E+02  0.45594000000E+02  0.51100000000E-03 0. -1.
         11   -1    0    0    0    0 -0.00000000000E+00 -0.00000000000E+00 -0.45593999997E+02  0.45594000000E+02  0.51100000000E-03 0.  1.
    9900012    2    1    2    0    0 -0.29518697482E+02  0.15346549480E+02 -0.23372971324E+02  0.50528857480E+02  0.29999992796E+02 0.  0.
         12    1    1    2    0    0  0.29518697482E+02 -0.15346549480E+02  0.23372971324E+02  0.40659142520E+02  0.00000000000E+00 0. -1.
         11    1    3    3    0    0 -0.25171855901E+02  0.29980048098E+01 -0.53038846633E+01  0.25898678636E+02  0.51100000000E-03 0. -1.
        -11    1    3    3    0    0  0.31802424762E+01  0.40799635239E+01 -0.34199502209E+01  0.62012986009E+01  0.51100000000E-03 0.  1.
         12    1    3    3    0    0 -0.75270840572E+01  0.82685811468E+01 -0.14649136439E+02  0.18428880243E+02  0.00000000000E+00 0. -1.
</event>
<event>
 7    1  0.2942034E-011  0.5052886E+02  0.7816164E-02  0.1300439E+00
        -11   -1    0    0    0    0  0.00000000000E+00  0.00000000000E+00  0.45593999997E+02  0.45594000000E+02  0.51100000000E-03 0.  1.
         11   -1    0    0    0    0 -0.00000000000E+00 -0.00000000000E+00 -0.45593999997E+02  0.45594000000E+02  0.51100000000E-03 0. -1.
    9900012    2    1    2    0    0  0.69200775704E+01  0.33516016037E+02  0.21953468612E+02  0.50528860945E+02  0.30000003328E+02 0.  0.
         12    1    1    2    0    0 -0.69200775704E+01 -0.33516016037E+02 -0.21953468612E+02  0.40659139055E+02  0.00000000000E+00 0. -1.
         11    1    3    3    0    0  0.80694037638E+01  0.22760651333E+02  0.13788501033E+02  0.27808007610E+02  0.51100000000E-03 0. -1.
        -11    1    3    3    0    0  0.59757937063E+01 -0.18610901300E+01  0.37494127124E+00  0.62701154782E+01  0.51100000000E-03 0.  1.
         12    1    3    3    0    0 -0.71251198997E+01  0.12616454834E+02  0.77900263077E+01  0.16450737857E+02  0.00000000000E+00 0. -1.
</event>
<event>
 7    1  0.2942034E-011  0.5052886E+02  0.7816164E-02  0.1300439E+00
        -11   -1    0    0    0    0  0.00000000000E+00  0.00000000000E+00  0.45593999997E+02  0.45594000000E+02  0.51100000000E-03 0. -1.
         11   -1    0    0    0    0 -0.00000000000E+00 -0.00000000000E+00 -0.45593999997E+02  0.45594000000E+02  0.51100000000E-03 0.  1.
    9900012    2    1    2    0    0  0.38963723938E+02  0.11594242396E+02 -0.75320077006E+00  0.50528861406E+02  0.30000004729E+02 0.  0.
         12    1    1    2    0    0 -0.38963723938E+02 -0.11594242396E+02  0.75320077006E+00  0.40659138594E+02  0.00000000000E+00 0. -1.
         11    1    3    3    0    0 -0.11947073562E+01  0.34301098623E+01 -0.25095704321E+00  0.36408733887E+01  0.51100000000E-03 0. -1.
        -11    1    3    3    0    0  0.41826623430E+02  0.66815364312E+01 -0.42044709453E+01  0.42565090542E+02  0.51100000000E-03 0.  1.
        -12    1    3    3    0    0 -0.16681921359E+01  0.14825961023E+01  0.37022272185E+01  0.43228974753E+01  0.00000000000E+00 0.  1.
</event>
<event>
 7    1  0.2942034E-011  0.5052886E+02  0.7816164E-02  0.1300439E+00
        -11   -1    0    0    0    0  0.00000000000E+00  0.00000000000E+00  0.45593999997E+02  0.45594000000E+02  0.51100000000E-03 0. -1.
         11   -1    0    0    0    0 -0.00000000000E+00 -0.00000000000E+00 -0.45593999997E+02  0.45594000000E+02  0.51100000000E-03 0.  1.
    9900012    2    1    2    0    0  0.28733242933E+02  0.28742329772E+02  0.12019233783E+01  0.50528863389E+02  0.30000010757E+02 0.  0.
         12    1    1    2    0    0 -0.28733242933E+02 -0.28742329772E+02 -0.12019233783E+01  0.40659136611E+02  0.00000000000E+00 0. -1.
         11    1    3    3    0    0  0.10566454756E+02  0.77142405903E+01  0.11007722623E+02  0.17097644037E+02  0.51100000000E-03 0. -1.
        -11    1    3    3    0    0  0.19444049804E+02  0.13007667588E+02 -0.96562054533E+01  0.25308354211E+02  0.51100000000E-03 0.  1.
         12    1    3    3    0    0 -0.12772616269E+01  0.80204215936E+01 -0.14959379167E+00  0.81228651414E+01  0.00000000000E+00 0. -1.
</event>
<event>
 7    1  0.2942034E-011  0.5052886E+02  0.7816164E-02  0.1300439E+00
        -11   -1    0    0    0    0  0.00000000000E+00  0.00000000000E+00  0.45593999997E+02  0.45594000000E+02  0.51100000000E-03 0.  1.
         11   -1    0    0    0    0 -0.00000000000E+00 -0.00000000000E+00 -0.45593999997E+02  0.45594000000E+02  0.51100000000E-03 0. -1.
    9900012    2    1    2    0    0  0.24514503580E+02  0.19086408925E+02  0.26228110224E+02  0.50528860101E+02  0.30000000763E+02 0.  0.
         12    1    1    2    0    0 -0.24514503580E+02 -0.19086408925E+02 -0.26228110224E+02  0.40659139899E+02  0.00000000000E+00 0. -1.
         11    1    3    3    0    0  0.14094119523E+02  0.26251290813E+01  0.26086405465E+02  0.29766357825E+02  0.51100000000E-03 0. -1.
        -11    1    3    3    0    0  0.53251506987E+01  0.50962408821E+01  0.30427576577E+01  0.79741629979E+01  0.51100000000E-03 0.  1.
         12    1    3    3    0    0  0.50952333576E+01  0.11365038961E+02 -0.29010528990E+01  0.12788339278E+02  0.00000000000E+00 0. -1.
</event>
<event>
 7    1  0.2942034E-011  0.5052886E+02  0.7816164E-02  0.1300439E+00
        -11   -1    0    0    0    0  0.00000000000E+00  0.00000000000E+00  0.45593999997E+02  0.45594000000E+02  0.51100000000E-03 0.  1.
         11   -1    0    0    0    0 -0.00000000000E+00 -0.00000000000E+00 -0.45593999997E+02  0.45594000000E+02  0.51100000000E-03 0. -1.
    9900012    2    1    2    0    0  0.28917393762E+02  0.24206755252E+02  0.15198125209E+02  0.50528859925E+02  0.30000000228E+02 0.  0.
         12    1    1    2    0    0 -0.28917393762E+02 -0.24206755252E+02 -0.15198125209E+02  0.40659140075E+02  0.00000000000E+00 0. -1.
         11    1    3    3    0    0  0.12546329295E+02  0.20735285944E+02  0.16109934841E+02  0.29101416852E+02  0.51100000000E-03 0. -1.
        -11    1    3    3    0    0  0.11465503899E+02 -0.41010895448E+01  0.95290060609E+00  0.12214120310E+02  0.51100000000E-03 0.  1.
         12    1    3    3    0    0  0.49055605669E+01  0.75725588524E+01 -0.18647102385E+01  0.92133227623E+01  0.00000000000E+00 0. -1.
</event>
<event>
 7    1  0.2942034E-011  0.5052886E+02  0.7816164E-02  0.1300439E+00
        -11   -1    0    0    0    0  0.00000000000E+00  0.00000000000E+00  0.45593999997E+02  0.45594000000E+02  0.51100000000E-03 0.  1.
         11   -1    0    0    0    0 -0.00000000000E+00 -0.00000000000E+00 -0.45593999997E+02  0.45594000000E+02  0.51100000000E-03 0. -1.
    9900012    2    1    2    0    0  0.25127772192E+02 -0.60537144566E+01  0.31386518031E+02  0.50528857016E+02  0.29999991386E+02 0.  0.
         12    1    1    2    0    0 -0.25127772192E+02  0.60537144566E+01 -0.31386518031E+02  0.40659142984E+02  0.00000000000E+00 0. -1.
         11    1    3    3    0    0  0.48109440812E+01 -0.11829995895E+02  0.59171352737E+01  0.14075030229E+02  0.51100000000E-03 0. -1.
        -11    1    3    3    0    0  0.16687943419E+02  0.99561239615E+01  0.14773196288E+02  0.24410227134E+02  0.51100000000E-03 0.  1.
        -12    1    3    3    0    0  0.36288846923E+01 -0.41798425226E+01  0.10696186469E+02  0.12043599653E+02  0.00000000000E+00 0.  1.
</event>
<event>
 7    1  0.2942034E-011  0.5052886E+02  0.7816164E-02  0.1300439E+00
        -11   -1    0    0    0    0  0.00000000000E+00  0.00000000000E+00  0.45593999997E+02  0.45594000000E+02  0.51100000000E-03 0.  1.
         11   -1    0    0    0    0 -0.00000000000E+00 -0.00000000000E+00 -0.45593999997E+02  0.45594000000E+02  0.51100000000E-03 0. -1.
    9900012    2    1    2    0    0  0.12442357211E+02 -0.24979978332E+02  0.29569477523E+02  0.50528861158E+02  0.30000003975E+02 0.  0.
         12    1    1    2    0    0 -0.12442357211E+02  0.24979978332E+02 -0.29569477523E+02  0.40659138842E+02  0.00000000000E+00 0. -1.
         11    1    3    3    0    0  0.89469817824E+01  0.30906320908E+01  0.59029926371E+01  0.11155528319E+02  0.51100000000E-03 0. -1.
        -11    1    3    3    0    0  0.56318141809E+01 -0.28525802517E+02  0.20712339501E+02  0.35699296184E+02  0.51100000000E-03 0.  1.
         12    1    3    3    0    0 -0.21364387525E+01  0.45519209422E+00  0.29541453850E+01  0.36740366549E+01  0.00000000000E+00 0. -1.
</event>
<event>
 7    1  0.2942034E-011  0.5052888E+02  0.7816164E-02  0.1300439E+00
        -11   -1    0    0    0    0  0.00000000000E+00  0.00000000000E+00  0.45593999997E+02  0.45594000000E+02  0.51100000000E-03 0. -1.
         11   -1    0    0    0    0 -0.00000000000E+00 -0.00000000000E+00 -0.45593999997E+02  0.45594000000E+02  0.51100000000E-03 0.  1.
    9900012    2    1    2    0    0 -0.17614840755E+02  0.24698906424E+02 -0.27071111200E+02  0.50528884724E+02  0.30000075608E+02 0.  0.
         12    1    1    2    0    0  0.17614840755E+02 -0.24698906424E+02  0.27071111200E+02  0.40659115276E+02  0.00000000000E+00 0. -1.
         11    1    3    3    0    0  0.16489684967E+00  0.22620926191E+01 -0.17209454439E+02  0.17358271122E+02  0.51100000000E-03 0. -1.
        -11    1    3    3    0    0 -0.17154240450E+02  0.12309474920E+02 -0.91127486766E+01  0.22996376387E+02  0.51100000000E-03 0.  1.
         12    1    3    3    0    0 -0.62549715454E+00  0.10127338885E+02 -0.74890808436E+00  0.10174237215E+02  0.00000000000E+00 0. -1.
</event>
<event>
 7    1  0.2942034E-011  0.5052885E+02  0.7816164E-02  0.1300439E+00
        -11   -1    0    0    0    0  0.00000000000E+00  0.00000000000E+00  0.45593999997E+02  0.45594000000E+02  0.51100000000E-03 0.  1.
         11   -1    0    0    0    0 -0.00000000000E+00 -0.00000000000E+00 -0.45593999997E+02  0.45594000000E+02  0.51100000000E-03 0. -1.
    9900012    2    1    2    0    0 -0.66825728988E+00 -0.31976596201E+02  0.25104120571E+02  0.50528854140E+02  0.29999982645E+02 0.  0.
         12    1    1    2    0    0  0.66825728988E+00  0.31976596201E+02 -0.25104120571E+02  0.40659145860E+02  0.00000000000E+00 0. -1.
         11    1    3    3    0    0  0.40020889478E+01  0.26232893836E+01  0.45007743824E+00  0.48063430066E+01  0.51100000000E-03 0. -1.
        -11    1    3    3    0    0  0.31686294132E+01 -0.28024291341E+02  0.16836911366E+02  0.32846349906E+02  0.51100000000E-03 0.  1.
         12    1    3    3    0    0 -0.78389756508E+01 -0.65755942432E+01  0.78171317673E+01  0.12876161228E+02  0.00000000000E+00 0. -1.
</event>
<event>
 7    1  0.2942034E-011  0.5052886E+02  0.7816164E-02  0.1300439E+00
        -11   -1    0    0    0    0  0.00000000000E+00  0.00000000000E+00  0.45593999997E+02  0.45594000000E+02  0.51100000000E-03 0.  1.
         11   -1    0    0    0    0 -0.00000000000E+00 -0.00000000000E+00 -0.45593999997E+02  0.45594000000E+02  0.51100000000E-03 0. -1.
    9900012    2    1    2    0    0  0.26659963348E+02 -0.30666641158E+02  0.14033939093E+01  0.50528855394E+02  0.29999986454E+02 0.  0.
         12    1    1    2    0    0 -0.26659963348E+02  0.30666641158E+02 -0.14033939093E+01  0.40659144606E+02  0.00000000000E+00 0. -1.
         11    1    3    3    0    0 -0.87207820773E+00  0.34747185446E+01 -0.21705118782E+01  0.41887123844E+01  0.51100000000E-03 0. -1.
        -11    1    3    3    0    0  0.18163755578E+02 -0.20726986500E+02 -0.47768002802E+01  0.27970480998E+02  0.51100000000E-03 0.  1.
        -12    1    3    3    0    0  0.93682859784E+01 -0.13414373203E+02  0.83507060676E+01  0.18369662012E+02  0.00000000000E+00 0.  1.
</event>
<event>
 7    1  0.2942034E-011  0.5052886E+02  0.7816164E-02  0.1300439E+00
        -11   -1    0    0    0    0  0.00000000000E+00  0.00000000000E+00  0.45593999997E+02  0.45594000000E+02  0.51100000000E-03 0.  1.
         11   -1    0    0    0    0 -0.00000000000E+00 -0.00000000000E+00 -0.45593999997E+02  0.45594000000E+02  0.51100000000E-03 0. -1.
    9900012    2    1    2    0    0 -0.35863538185E+02  0.35180448009E+01  0.18830702341E+02  0.50528863744E+02  0.30000011838E+02 0.  0.
         12    1    1    2    0    0  0.35863538185E+02 -0.35180448009E+01 -0.18830702341E+02  0.40659136256E+02  0.00000000000E+00 0. -1.
         11    1    3    3    0    0 -0.16776393889E+02 -0.11884591471E+02  0.12075521091E+02  0.23843429205E+02  0.51100000000E-03 0. -1.
        -11    1    3    3    0    0 -0.73335331946E+01  0.29768018557E+01 -0.86285178072E+00  0.79615684298E+01  0.51100000000E-03 0.  1.
         12    1    3    3    0    0 -0.11753611101E+02  0.12425834416E+02  0.76180330308E+01  0.18723866110E+02  0.00000000000E+00 0. -1.
</event>
<event>
 7    1  0.2942034E-011  0.5052886E+02  0.7816164E-02  0.1300439E+00
        -11   -1    0    0    0    0  0.00000000000E+00  0.00000000000E+00  0.45593999997E+02  0.45594000000E+02  0.51100000000E-03 0. -1.
         11   -1    0    0    0    0 -0.00000000000E+00 -0.00000000000E+00 -0.45593999997E+02  0.45594000000E+02  0.51100000000E-03 0.  1.
    9900012    2    1    2    0    0 -0.22313460878E+02 -0.20788715578E+02 -0.26890603557E+02  0.50528858452E+02  0.29999995752E+02 0.  0.
         12    1    1    2    0    0  0.22313460878E+02  0.20788715578E+02  0.26890603557E+02  0.40659141548E+02  0.00000000000E+00 0. -1.
         11    1    3    3    0    0 -0.10554983328E+02  0.67338411947E+00  0.27989319040E+01  0.10940527377E+02  0.51100000000E-03 0. -1.
        -11    1    3    3    0    0 -0.11038840685E+02 -0.12687449464E+02 -0.23184570370E+02  0.28641782087E+02  0.51100000000E-03 0.  1.
         12    1    3    3    0    0 -0.71963686489E+00 -0.87746502334E+01 -0.65049650902E+01  0.10946548989E+02  0.00000000000E+00 0. -1.
</event>
<event>
 7    1  0.2942034E-011  0.5052886E+02  0.7816164E-02  0.1300439E+00
        -11   -1    0    0    0    0  0.00000000000E+00  0.00000000000E+00  0.45593999997E+02  0.45594000000E+02  0.51100000000E-03 0.  1.
         11   -1    0    0    0    0 -0.00000000000E+00 -0.00000000000E+00 -0.45593999997E+02  0.45594000000E+02  0.51100000000E-03 0. -1.
    9900012    2    1    2    0    0 -0.32750487231E+01  0.38578413021E+02  0.12415531599E+02  0.50528864246E+02  0.30000013362E+02 0.  0.
         12    1    1    2    0    0  0.32750487231E+01 -0.38578413021E+02 -0.12415531599E+02  0.40659135754E+02  0.00000000000E+00 0. -1.
         11    1    3    3    0    0  0.31173014971E+01  0.39169659265E+01 -0.47102625395E+01  0.68736281646E+01  0.51100000000E-03 0. -1.
        -11    1    3    3    0    0 -0.49280977840E+01  0.31325500723E+02  0.64301420980E+01  0.32356141163E+02  0.51100000000E-03 0.  1.
         12    1    3    3    0    0 -0.14642524362E+01  0.33359463717E+01  0.10695652041E+02  0.11299094918E+02  0.00000000000E+00 0. -1.
</event>
<event>
 7    1  0.2942034E-011  0.5052887E+02  0.7816164E-02  0.1300439E+00
        -11   -1    0    0    0    0  0.00000000000E+00  0.00000000000E+00  0.45593999997E+02  0.45594000000E+02  0.51100000000E-03 0.  1.
         11   -1    0    0    0    0 -0.00000000000E+00 -0.00000000000E+00 -0.45593999997E+02  0.45594000000E+02  0.51100000000E-03 0. -1.
    9900012    2    1    2    0    0 -0.23354047956E+02 -0.32172906577E+02 -0.85239114156E+01  0.50528873849E+02  0.30000042551E+02 0.  0.
         12    1    1    2    0    0  0.23354047956E+02  0.32172906577E+02  0.85239114156E+01  0.40659126151E+02  0.00000000000E+00 0. -1.
         11    1    3    3    0    0  0.48920578047E+01 -0.12723780515E+02  0.14088755030E+01  0.13704442732E+02  0.51100000000E-03 0. -1.
        -11    1    3    3    0    0 -0.17679837381E+02 -0.10004004581E+02 -0.15836564006E+01  0.20375591411E+02  0.51100000000E-03 0.  1.
         12    1    3    3    0    0 -0.10566268379E+02 -0.94451214814E+01 -0.83491305179E+01  0.16448839706E+02  0.00000000000E+00 0. -1.
</event>
<event>
 7    1  0.2942034E-011  0.5052884E+02  0.7816164E-02  0.1300439E+00
        -11   -1    0    0    0    0  0.00000000000E+00  0.00000000000E+00  0.45593999997E+02  0.45594000000E+02  0.51100000000E-03 0.  1.
         11   -1    0    0    0    0 -0.00000000000E+00 -0.00000000000E+00 -0.45593999997E+02  0.45594000000E+02  0.51100000000E-03 0. -1.
    9900012    2    1    2    0    0  0.26035176964E+02  0.23604500003E+02  0.20449061046E+02  0.50528844111E+02  0.29999952160E+02 0.  0.
         12    1    1    2    0    0 -0.26035176964E+02 -0.23604500003E+02 -0.20449061046E+02  0.40659155889E+02  0.00000000000E+00 0. -1.
         11    1    3    3    0    0  0.12789726006E+01  0.72465471536E+01 -0.62127151282E+01  0.96304748630E+01  0.51100000000E-03 0. -1.
        -11    1    3    3    0    0  0.15370019632E+02  0.78034209051E+01  0.99309487916E+01  0.19893582519E+02  0.51100000000E-03 0.  1.
         12    1    3    3    0    0  0.93861847315E+01  0.85545319445E+01  0.16730827383E+02  0.21004786729E+02  0.00000000000E+00 0. -1.
</event>
<event>
 7    1  0.2942034E-011  0.5052886E+02  0.7816164E-02  0.1300439E+00
        -11   -1    0    0    0    0  0.00000000000E+00  0.00000000000E+00  0.45593999997E+02  0.45594000000E+02  0.51100000000E-03 0. -1.
         11   -1    0    0    0    0 -0.00000000000E+00 -0.00000000000E+00 -0.45593999997E+02  0.45594000000E+02  0.51100000000E-03 0.  1.
    9900012    2    1    2    0    0 -0.41024316032E+01  0.19037366267E+02 -0.35691941339E+02  0.50528856674E+02  0.29999990347E+02 0.  0.
         12    1    1    2    0    0  0.41024316032E+01 -0.19037366267E+02  0.35691941339E+02  0.40659143326E+02  0.00000000000E+00 0. -1.
         11    1    3    3    0    0 -0.10606154460E+02 -0.16377561424E+00 -0.39801145103E+01  0.11329547505E+02  0.51100000000E-03 0. -1.
        -11    1    3    3    0    0 -0.13986215008E+01  0.12728303129E+02 -0.16777428750E+02  0.21105638071E+02  0.51100000000E-03 0.  1.
         12    1    3    3    0    0  0.79023443579E+01  0.64728387519E+01 -0.14934398078E+02  0.18093671098E+02  0.00000000000E+00 0. -1.
</event>
<event>
 7    1  0.2942034E-011  0.5052885E+02  0.7816164E-02  0.1300439E+00
        -11   -1    0    0    0    0  0.00000000000E+00  0.00000000000E+00  0.45593999997E+02  0.45594000000E+02  0.51100000000E-03 0. -1.
         11   -1    0    0    0    0 -0.00000000000E+00 -0.00000000000E+00 -0.45593999997E+02  0.45594000000E+02  0.51100000000E-03 0.  1.
    9900012    2    1    2    0    0  0.38857180982E+02  0.11747257248E+02  0.22995114865E+01  0.50528851954E+02  0.29999976000E+02 0.  0.
         12    1    1    2    0    0 -0.38857180982E+02 -0.11747257248E+02 -0.22995114865E+01  0.40659148046E+02  0.00000000000E+00 0. -1.
         11    1    3    3    0    0  0.24465803992E+01  0.15869220078E+01  0.79098904840E+01  0.84303288689E+01  0.51100000000E-03 0. -1.
        -11    1    3    3    0    0  0.26077299345E+02  0.14119868608E+02 -0.81310025349E+01  0.30749137112E+02  0.51100000000E-03 0.  1.
         12    1    3    3    0    0  0.10333301237E+02 -0.39595333677E+01  0.25206235374E+01  0.11349385973E+02  0.00000000000E+00 0. -1.
</event>
<event>
 7    1  0.2942034E-011  0.5052887E+02  0.7816164E-02  0.1300439E+00
        -11   -1    0    0    0    0  0.00000000000E+00  0.00000000000E+00  0.45593999997E+02  0.45594000000E+02  0.51100000000E-03 0.  1.
         11   -1    0    0    0    0 -0.00000000000E+00 -0.00000000000E+00 -0.45593999997E+02  0.45594000000E+02  0.51100000000E-03 0. -1.
    9900012    2    1    2    0    0 -0.70903481551E+01  0.23762801721E+02  0.32221441081E+02  0.50528867595E+02  0.30000023542E+02 0.  0.
         12    1    1    2    0    0  0.70903481551E+01 -0.23762801721E+02 -0.32221441081E+02  0.40659132405E+02  0.00000000000E+00 0. -1.
         11    1    3    3    0    0 -0.30065146822E+00 -0.30235898500E+01  0.31188214573E+00  0.30544651939E+01  0.51100000000E-03 0. -1.
        -11    1    3    3    0    0 -0.12690079261E+02  0.20710523704E+02  0.30333159174E+02  0.38859547727E+02  0.51100000000E-03 0.  1.
        -12    1    3    3    0    0  0.59003825739E+01  0.60758678671E+01  0.15763997606E+01  0.86148546745E+01  0.00000000000E+00 0.  1.
</event>
<event>
 7    1  0.2942034E-011  0.5052885E+02  0.7816164E-02  0.1300439E+00
        -11   -1    0    0    0    0  0.00000000000E+00  0.00000000000E+00  0.45593999997E+02  0.45594000000E+02  0.51100000000E-03 0.  1.
         11   -1    0    0    0    0 -0.00000000000E+00 -0.00000000000E+00 -0.45593999997E+02  0.45594000000E+02  0.51100000000E-03 0. -1.
    9900012    2    1    2    0    0 -0.32947547433E+02 -0.92359428863E+01  0.21961843785E+02  0.50528854593E+02  0.29999984021E+02 0.  0.
         12    1    1    2    0    0  0.32947547433E+02  0.92359428863E+01 -0.21961843785E+02  0.40659145407E+02  0.00000000000E+00 0. -1.
         11    1    3    3    0    0 -0.21363043886E+02  0.33974627499E+01  0.75790010822E+01  0.22920812701E+02  0.51100000000E-03 0.  1.
        -11    1    3    3    0    0 -0.51493750458E+01 -0.11176112200E+02  0.59141827172E+00  0.12319550442E+02  0.51100000000E-03 0. -1.
         12    1    3    3    0    0 -0.64351285012E+01 -0.14572934361E+01  0.13791424431E+02  0.15288491450E+02  0.00000000000E+00 0. -1.
</event>
<event>
 7    1  0.2942034E-011  0.5052881E+02  0.7816164E-02  0.1300439E+00
        -11   -1    0    0    0    0  0.00000000000E+00  0.00000000000E+00  0.45593999997E+02  0.45594000000E+02  0.51100000000E-03 0.  1.
         11   -1    0    0    0    0 -0.00000000000E+00 -0.00000000000E+00 -0.45593999997E+02  0.45594000000E+02  0.51100000000E-03 0. -1.
    9900012    2    1    2    0    0 -0.20682947652E+02 -0.80756911047E+01  0.34061246176E+02  0.50528811599E+02  0.29999853335E+02 0.  0.
         12    1    1    2    0    0  0.20682947652E+02  0.80756911047E+01 -0.34061246176E+02  0.40659188401E+02  0.00000000000E+00 0. -1.
         11    1    3    3    0    0 -0.24377270533E+01 -0.75603877665E+01 -0.34115883870E+01  0.86452826414E+01  0.51100000000E-03 0. -1.
        -11    1    3    3    0    0 -0.10348036744E+02 -0.17963780885E+01  0.24282663835E+02  0.26456692950E+02  0.51100000000E-03 0.  1.
         12    1    3    3    0    0 -0.78971838548E+01  0.12810747504E+01  0.13190170728E+02  0.15426836007E+02  0.00000000000E+00 0. -1.
</event>
<event>
 7    1  0.2942034E-011  0.5052887E+02  0.7816164E-02  0.1300439E+00
        -11   -1    0    0    0    0  0.00000000000E+00  0.00000000000E+00  0.45593999997E+02  0.45594000000E+02  0.51100000000E-03 0.  1.
         11   -1    0    0    0    0 -0.00000000000E+00 -0.00000000000E+00 -0.45593999997E+02  0.45594000000E+02  0.51100000000E-03 0. -1.
    9900012    2    1    2    0    0 -0.31879393286E+02  0.72096357441E+01  0.24184505895E+02  0.50528869547E+02  0.30000029474E+02 0.  0.
         12    1    1    2    0    0  0.31879393286E+02 -0.72096357441E+01 -0.24184505895E+02  0.40659130453E+02  0.00000000000E+00 0. -1.
         11    1    3    3    0    0  0.19503018460E+01 -0.43282907500E+01  0.33790359838E+01  0.58271487494E+01  0.51100000000E-03 0. -1.
        -11    1    3    3    0    0 -0.14630963579E+02  0.13876908070E+02  0.93993877104E+01  0.22248194588E+02  0.51100000000E-03 0.  1.
         12    1    3    3    0    0 -0.19198731553E+02 -0.23389815763E+01  0.11406082200E+02  0.22453526209E+02  0.00000000000E+00 0. -1.
</event>
<event>
 7    1  0.2942034E-011  0.5052886E+02  0.7816164E-02  0.1300439E+00
        -11   -1    0    0    0    0  0.00000000000E+00  0.00000000000E+00  0.45593999997E+02  0.45594000000E+02  0.51100000000E-03 0. -1.
         11   -1    0    0    0    0 -0.00000000000E+00 -0.00000000000E+00 -0.45593999997E+02  0.45594000000E+02  0.51100000000E-03 0.  1.
    9900012    2    1    2    0    0 -0.18347063253E+02 -0.91070035675E+01 -0.35122836167E+02  0.50528857555E+02  0.29999993024E+02 0.  0.
         12    1    1    2    0    0  0.18347063253E+02  0.91070035675E+01  0.35122836167E+02  0.40659142445E+02  0.00000000000E+00 0. -1.
         11    1    3    3    0    0  0.92557012871E+00  0.31078225166E+01 -0.60513963236E+01  0.68654671060E+01  0.51100000000E-03 0. -1.
        -11    1    3    3    0    0 -0.22396061231E+02 -0.53721733180E+01 -0.14362233323E+02  0.27142541353E+02  0.51100000000E-03 0.  1.
        -12    1    3    3    0    0  0.31234278493E+01 -0.68426527662E+01 -0.14709206520E+02  0.16520849096E+02  0.00000000000E+00 0.  1.
</event>
<event>
 7    1  0.2942034E-011  0.5052886E+02  0.7816164E-02  0.1300439E+00
        -11   -1    0    0    0    0  0.00000000000E+00  0.00000000000E+00  0.45593999997E+02  0.45594000000E+02  0.51100000000E-03 0.  1.
         11   -1    0    0    0    0 -0.00000000000E+00 -0.00000000000E+00 -0.45593999997E+02  0.45594000000E+02  0.51100000000E-03 0. -1.
    9900012    2    1    2    0    0 -0.45486295686E+01 -0.40383293899E+02 -0.12905176334E+01  0.50528857205E+02  0.29999991961E+02 0.  0.
         12    1    1    2    0    0  0.45486295686E+01  0.40383293899E+02  0.12905176334E+01  0.40659142795E+02  0.00000000000E+00 0. -1.
         11    1    3    3    0    0 -0.39226012690E+01  0.27072977611E+01  0.12868334533E+01  0.49368210906E+01  0.51100000000E-03 0. -1.
        -11    1    3    3    0    0 -0.23942860358E+01 -0.41331155013E+02 -0.54836497017E+01  0.41762032932E+02  0.51100000000E-03 0.  1.
         12    1    3    3    0    0  0.17682577363E+01 -0.17594366467E+01  0.29062986150E+01  0.38300031821E+01  0.00000000000E+00 0. -1.
</event>
<event>
 7    1  0.2942034E-011  0.5052886E+02  0.7816164E-02  0.1300439E+00
        -11   -1    0    0    0    0  0.00000000000E+00  0.00000000000E+00  0.45593999997E+02  0.45594000000E+02  0.51100000000E-03 0.  1.
         11   -1    0    0    0    0 -0.00000000000E+00 -0.00000000000E+00 -0.45593999997E+02  0.45594000000E+02  0.51100000000E-03 0. -1.
    9900012    2    1    2    0    0 -0.32160078938E+01 -0.38590117292E+02  0.12394596512E+02  0.50528857337E+02  0.29999992361E+02 0.  0.
         12    1    1    2    0    0  0.32160078938E+01  0.38590117292E+02 -0.12394596512E+02  0.40659142663E+02  0.00000000000E+00 0. -1.
         11    1    3    3    0    0  0.56509952412E+01 -0.14946690747E+02  0.80269522498E+01  0.17882093674E+02  0.51100000000E-03 0. -1.
        -11    1    3    3    0    0 -0.11367267864E+02 -0.23686601013E+02 -0.14515224826E+01  0.26313053111E+02  0.51100000000E-03 0.  1.
        -12    1    3    3    0    0  0.25002647289E+01  0.43174467876E-01  0.58191667444E+01  0.63337105513E+01  0.00000000000E+00 0.  1.
</event>
<event>
 7    1  0.2942034E-011  0.5052886E+02  0.7816164E-02  0.1300439E+00
        -11   -1    0    0    0    0  0.00000000000E+00  0.00000000000E+00  0.45593999997E+02  0.45594000000E+02  0.51100000000E-03 0.  1.
         11   -1    0    0    0    0 -0.00000000000E+00 -0.00000000000E+00 -0.45593999997E+02  0.45594000000E+02  0.51100000000E-03 0. -1.
    9900012    2    1    2    0    0 -0.18334331178E+02 -0.11859112638E+02  0.34298386962E+02  0.50528860799E+02  0.30000002886E+02 0.  0.
         12    1    1    2    0    0  0.18334331178E+02  0.11859112638E+02 -0.34298386962E+02  0.40659139201E+02  0.00000000000E+00 0. -1.
         11    1    3    3    0    0  0.50736100741E+01  0.21438157872E+00  0.83733597945E+01  0.97928868652E+01  0.51100000000E-03 0. -1.
        -11    1    3    3    0    0 -0.15050647428E+02 -0.15716624512E+02  0.21542497389E+02  0.30620474654E+02  0.51100000000E-03 0.  1.
        -12    1    3    3    0    0 -0.83572938247E+01  0.36431302951E+01  0.43825297792E+01  0.10115499280E+02  0.00000000000E+00 0.  1.
</event>
<event>
 7    1  0.2942034E-011  0.5052887E+02  0.7816164E-02  0.1300439E+00
        -11   -1    0    0    0    0  0.00000000000E+00  0.00000000000E+00  0.45593999997E+02  0.45594000000E+02  0.51100000000E-03 0. -1.
         11   -1    0    0    0    0 -0.00000000000E+00 -0.00000000000E+00 -0.45593999997E+02  0.45594000000E+02  0.51100000000E-03 0.  1.
    9900012    2    1    2    0    0  0.55984444173E+01  0.33118004276E+02 -0.22913323596E+02  0.50528865905E+02  0.30000018405E+02 0.  0.
         12    1    1    2    0    0 -0.55984444173E+01 -0.33118004276E+02  0.22913323596E+02  0.40659134095E+02  0.00000000000E+00 0. -1.
         11    1    3    3    0    0  0.79083198650E+01  0.74336395006E+01 -0.14482933957E+02  0.18098505341E+02  0.51100000000E-03 0. -1.
        -11    1    3    3    0    0  0.39695266077E+01  0.17025636560E+02  0.18688063716E+01  0.17581862224E+02  0.51100000000E-03 0.  1.
        -12    1    3    3    0    0 -0.62794020554E+01  0.86587282155E+01 -0.10299196011E+02  0.14848498340E+02  0.00000000000E+00 0.  1.
</event>
<event>
 7    1  0.2942034E-011  0.5052887E+02  0.7816164E-02  0.1300439E+00
        -11   -1    0    0    0    0  0.00000000000E+00  0.00000000000E+00  0.45593999997E+02  0.45594000000E+02  0.51100000000E-03 0.  1.
         11   -1    0    0    0    0 -0.00000000000E+00 -0.00000000000E+00 -0.45593999997E+02  0.45594000000E+02  0.51100000000E-03 0. -1.
    9900012    2    1    2    0    0 -0.26430928213E+02  0.30803388887E+02 -0.23920766547E+01  0.50528871089E+02  0.30000034161E+02 0.  0.
         12    1    1    2    0    0  0.26430928213E+02 -0.30803388887E+02  0.23920766547E+01  0.40659128911E+02  0.00000000000E+00 0. -1.
         11    1    3    3    0    0 -0.84598664900E+01  0.39331893723E+01 -0.13088443186E+02  0.16073165990E+02  0.51100000000E-03 0. -1.
        -11    1    3    3    0    0 -0.53126633413E+01  0.85966458831E+01  0.84528140689E+00  0.10141065680E+02  0.51100000000E-03 0.  1.
         12    1    3    3    0    0 -0.12658398382E+02  0.18273553631E+02  0.98510851239E+01  0.24314639418E+02  0.00000000000E+00 0. -1.
</event>
<event>
 7    1  0.2942034E-011  0.5052886E+02  0.7816164E-02  0.1300439E+00
        -11   -1    0    0    0    0  0.00000000000E+00  0.00000000000E+00  0.45593999997E+02  0.45594000000E+02  0.51100000000E-03 0.  1.
         11   -1    0    0    0    0 -0.00000000000E+00 -0.00000000000E+00 -0.45593999997E+02  0.45594000000E+02  0.51100000000E-03 0. -1.
    9900012    2    1    2    0    0 -0.23708592194E+01 -0.30554500963E+02  0.26720163055E+02  0.50528860606E+02  0.30000002299E+02 0.  0.
         12    1    1    2    0    0  0.23708592194E+01  0.30554500963E+02 -0.26720163055E+02  0.40659139394E+02  0.00000000000E+00 0. -1.
         11    1    3    3    0    0 -0.82608393843E+01 -0.12475644935E+02  0.28219620488E+01  0.15226511549E+02  0.51100000000E-03 0. -1.
        -11    1    3    3    0    0  0.10924759609E+02 -0.96475153633E+01  0.19976034110E+02  0.24727856038E+02  0.51100000000E-03 0.  1.
        -12    1    3    3    0    0 -0.50347794442E+01 -0.84313406653E+01  0.39221668964E+01  0.10574493020E+02  0.00000000000E+00 0.  1.
</event>
<event>
 7    1  0.2942034E-011  0.5052886E+02  0.7816164E-02  0.1300439E+00
        -11   -1    0    0    0    0  0.00000000000E+00  0.00000000000E+00  0.45593999997E+02  0.45594000000E+02  0.51100000000E-03 0.  1.
         11   -1    0    0    0    0 -0.00000000000E+00 -0.00000000000E+00 -0.45593999997E+02  0.45594000000E+02  0.51100000000E-03 0. -1.
    9900012    2    1    2    0    0 -0.32687117745E+02  0.10845165796E+01  0.24156614850E+02  0.50528857317E+02  0.29999992301E+02 0.  0.
         12    1    1    2    0    0  0.32687117745E+02 -0.10845165796E+01 -0.24156614850E+02  0.40659142683E+02  0.00000000000E+00 0. -1.
         11    1    3    3    0    0  0.27360324928E+01 -0.27625578982E+01  0.10431412094E+02  0.11132473152E+02  0.51100000000E-03 0. -1.
        -11    1    3    3    0    0 -0.23080833799E+02  0.39693865538E+01  0.41720941064E+01  0.23788385569E+02  0.51100000000E-03 0.  1.
         12    1    3    3    0    0 -0.12342316439E+02 -0.12231207597E+00  0.95531086494E+01  0.15607998596E+02  0.00000000000E+00 0. -1.
</event>
<event>
 7    1  0.2942034E-011  0.5052888E+02  0.7816164E-02  0.1300439E+00
        -11   -1    0    0    0    0  0.00000000000E+00  0.00000000000E+00  0.45593999997E+02  0.45594000000E+02  0.51100000000E-03 0. -1.
         11   -1    0    0    0    0 -0.00000000000E+00 -0.00000000000E+00 -0.45593999997E+02  0.45594000000E+02  0.51100000000E-03 0.  1.
    9900012    2    1    2    0    0 -0.18481200011E+02 -0.25815153454E+01 -0.36124025174E+02  0.50528878390E+02  0.30000056355E+02 0.  0.
         12    1    1    2    0    0  0.18481200011E+02  0.25815153454E+01  0.36124025174E+02  0.40659121610E+02  0.00000000000E+00 0. -1.
         11    1    3    3    0    0  0.43036656774E+01 -0.63283741294E+01 -0.49405919898E+01  0.91092978245E+01  0.51100000000E-03 0. -1.
        -11    1    3    3    0    0 -0.19907562857E+02  0.85155114471E+01 -0.23878024278E+02  0.32233290831E+02  0.51100000000E-03 0.  1.
        -12    1    3    3    0    0 -0.28773028316E+01 -0.47686526631E+01 -0.73054089056E+01  0.91862897344E+01  0.00000000000E+00 0.  1.
</event>
<event>
 7    1  0.2942034E-011  0.5052890E+02  0.7816164E-02  0.1300439E+00
        -11   -1    0    0    0    0  0.00000000000E+00  0.00000000000E+00  0.45593999997E+02  0.45594000000E+02  0.51100000000E-03 0.  1.
         11   -1    0    0    0    0 -0.00000000000E+00 -0.00000000000E+00 -0.45593999997E+02  0.45594000000E+02  0.51100000000E-03 0. -1.
    9900012    2    1    2    0    0  0.11784881696E+02 -0.16274295720E+02  0.35347227819E+02  0.50528897055E+02  0.30000113090E+02 0.  0.
         12    1    1    2    0    0 -0.11784881696E+02  0.16274295720E+02 -0.35347227819E+02  0.40659102945E+02  0.00000000000E+00 0. -1.
         11    1    3    3    0    0  0.19299135705E+01 -0.14800273310E+02  0.21684643750E+02  0.26324825379E+02  0.51100000000E-03 0. -1.
        -11    1    3    3    0    0  0.13328330560E+01  0.74132605334E+01  0.38483766746E+01  0.84583023700E+01  0.51100000000E-03 0.  1.
         12    1    3    3    0    0  0.85221350692E+01 -0.88872829440E+01  0.98142073942E+01  0.15745769306E+02  0.00000000000E+00 0. -1.
</event>
<event>
 7    1  0.2942034E-011  0.5052886E+02  0.7816164E-02  0.1300439E+00
        -11   -1    0    0    0    0  0.00000000000E+00  0.00000000000E+00  0.45593999997E+02  0.45594000000E+02  0.51100000000E-03 0.  1.
         11   -1    0    0    0    0 -0.00000000000E+00 -0.00000000000E+00 -0.45593999997E+02  0.45594000000E+02  0.51100000000E-03 0. -1.
    9900012    2    1    2    0    0  0.24088465027E+02  0.57400889271E+01  0.32248454080E+02  0.50528861312E+02  0.30000004445E+02 0.  0.
         12    1    1    2    0    0 -0.24088465027E+02 -0.57400889271E+01 -0.32248454080E+02  0.40659138688E+02  0.00000000000E+00 0. -1.
         11    1    3    3    0    0  0.13838198295E+02 -0.61291719738E+01  0.13707466377E+02  0.20419527807E+02  0.51100000000E-03 0. -1.
        -11    1    3    3    0    0 -0.20345765253E+01  0.11216053956E+02  0.95684751772E+01  0.14882710958E+02  0.51100000000E-03 0.  1.
        -12    1    3    3    0    0  0.12284843258E+02  0.65320694534E+00  0.89725125261E+01  0.15226622548E+02  0.00000000000E+00 0.  1.
</event>
<event>
 7    1  0.2942034E-011  0.5052887E+02  0.7816164E-02  0.1300439E+00
        -11   -1    0    0    0    0  0.00000000000E+00  0.00000000000E+00  0.45593999997E+02  0.45594000000E+02  0.51100000000E-03 0.  1.
         11   -1    0    0    0    0 -0.00000000000E+00 -0.00000000000E+00 -0.45593999997E+02  0.45594000000E+02  0.51100000000E-03 0. -1.
    9900012    2    1    2    0    0  0.55660949022E+01 -0.10404986053E+02  0.38909126044E+02  0.50528865274E+02  0.30000016486E+02 0.  0.
         12    1    1    2    0    0 -0.55660949022E+01  0.10404986053E+02 -0.38909126044E+02  0.40659134726E+02  0.00000000000E+00 0. -1.
         11    1    3    3    0    0 -0.84001258636E+01 -0.82625645737E+00  0.13930014690E+02  0.16287729240E+02  0.51100000000E-03 0. -1.
        -11    1    3    3    0    0  0.65639226697E+01 -0.98757021466E+01  0.48849966114E+01  0.12824888532E+02  0.51100000000E-03 0.  1.
        -12    1    3    3    0    0  0.74022980961E+01  0.29697255138E+00  0.20094114742E+02  0.21416247502E+02  0.00000000000E+00 0.  1.
</event>
<event>
 7    1  0.2942034E-011  0.5052885E+02  0.7816164E-02  0.1300439E+00
        -11   -1    0    0    0    0  0.00000000000E+00  0.00000000000E+00  0.45593999997E+02  0.45594000000E+02  0.51100000000E-03 0.  1.
         11   -1    0    0    0    0 -0.00000000000E+00 -0.00000000000E+00 -0.45593999997E+02  0.45594000000E+02  0.51100000000E-03 0. -1.
    9900012    2    1    2    0    0 -0.43432028200E+01  0.19987442942E+02  0.35139789295E+02  0.50528854931E+02  0.29999985047E+02 0.  0.
         12    1    1    2    0    0  0.43432028200E+01 -0.19987442942E+02 -0.35139789295E+02  0.40659145069E+02  0.00000000000E+00 0. -1.
         11    1    3    3    0    0 -0.73916642534E+01 -0.30158448961E+01  0.75238580450E+01  0.10969979991E+02  0.51100000000E-03 0. -1.
        -11    1    3    3    0    0  0.61369226226E+01  0.19501875416E+02  0.28223731016E+02  0.34850594783E+02  0.51100000000E-03 0.  1.
        -12    1    3    3    0    0 -0.30884611893E+01  0.35014124224E+01 -0.60779976641E+00  0.47082801558E+01  0.00000000000E+00 0.  1.
</event>
<event>
 7    1  0.2942034E-011  0.5052881E+02  0.7816164E-02  0.1300439E+00
        -11   -1    0    0    0    0  0.00000000000E+00  0.00000000000E+00  0.45593999997E+02  0.45594000000E+02  0.51100000000E-03 0.  1.
         11   -1    0    0    0    0 -0.00000000000E+00 -0.00000000000E+00 -0.45593999997E+02  0.45594000000E+02  0.51100000000E-03 0. -1.
    9900012    2    1    2    0    0  0.34253642316E+02 -0.13589827988E+02  0.17180627886E+02  0.50528813938E+02  0.29999860446E+02 0.  0.
         12    1    1    2    0    0 -0.34253642316E+02  0.13589827988E+02 -0.17180627886E+02  0.40659186062E+02  0.00000000000E+00 0. -1.
         11    1    3    3    0    0  0.61455485103E+00  0.35555926102E+01 -0.36401778042E+01  0.51255059440E+01  0.51100000000E-03 0. -1.
        -11    1    3    3    0    0  0.95934797131E+01 -0.12662895874E+02  0.83881608407E+01  0.17965105829E+02  0.51100000000E-03 0.  1.
         12    1    3    3    0    0  0.24045607752E+02 -0.44825247249E+01  0.12432644850E+02  0.27438202165E+02  0.00000000000E+00 0. -1.
</event>
<event>
 7    1  0.2942034E-011  0.5052886E+02  0.7816164E-02  0.1300439E+00
        -11   -1    0    0    0    0  0.00000000000E+00  0.00000000000E+00  0.45593999997E+02  0.45594000000E+02  0.51100000000E-03 0.  1.
         11   -1    0    0    0    0 -0.00000000000E+00 -0.00000000000E+00 -0.45593999997E+02  0.45594000000E+02  0.51100000000E-03 0. -1.
    9900012    2    1    2    0    0  0.75895730304E+01 -0.37896622104E+02 -0.12625760301E+02  0.50528863157E+02  0.30000010051E+02 0.  0.
         12    1    1    2    0    0 -0.75895730304E+01  0.37896622104E+02  0.12625760301E+02  0.40659136843E+02  0.00000000000E+00 0. -1.
         11    1    3    3    0    0 -0.11826399920E+01 -0.54769185019E+00 -0.85607134246E+01  0.86593543820E+01  0.51100000000E-03 0. -1.
        -11    1    3    3    0    0  0.46335026274E+01 -0.25527559253E+02 -0.10255780632E+02  0.27898148051E+02  0.51100000000E-03 0.  1.
        -12    1    3    3    0    0  0.41387103950E+01 -0.11821371000E+02  0.61907337549E+01  0.13971360724E+02  0.00000000000E+00 0.  1.
</event>
<event>
 7    1  0.2942034E-011  0.5052885E+02  0.7816164E-02  0.1300439E+00
        -11   -1    0    0    0    0  0.00000000000E+00  0.00000000000E+00  0.45593999997E+02  0.45594000000E+02  0.51100000000E-03 0.  1.
         11   -1    0    0    0    0 -0.00000000000E+00 -0.00000000000E+00 -0.45593999997E+02  0.45594000000E+02  0.51100000000E-03 0. -1.
    9900012    2    1    2    0    0 -0.10049444750E+02 -0.39235998407E+02  0.35653634583E+01  0.50528846943E+02  0.29999960767E+02 0.  0.
         12    1    1    2    0    0  0.10049444750E+02  0.39235998407E+02 -0.35653634583E+01  0.40659153057E+02  0.00000000000E+00 0. -1.
         11    1    3    3    0    0 -0.11529318630E+02 -0.16134206496E+02  0.73694670186E+01  0.21155303158E+02  0.51100000000E-03 0. -1.
        -11    1    3    3    0    0  0.77248036443E+01 -0.98492573306E+01  0.35086064377E+01  0.12999645407E+02  0.51100000000E-03 0.  1.
         12    1    3    3    0    0 -0.62449297643E+01 -0.13252534580E+02 -0.73127099979E+01  0.16373898377E+02  0.00000000000E+00 0. -1.
</event>
<event>
 7    1  0.2942034E-011  0.5052886E+02  0.7816164E-02  0.1300439E+00
        -11   -1    0    0    0    0  0.00000000000E+00  0.00000000000E+00  0.45593999997E+02  0.45594000000E+02  0.51100000000E-03 0. -1.
         11   -1    0    0    0    0 -0.00000000000E+00 -0.00000000000E+00 -0.45593999997E+02  0.45594000000E+02  0.51100000000E-03 0.  1.
    9900012    2    1    2    0    0  0.77104863338E+01  0.30485245227E+02 -0.25775252424E+02  0.50528863099E+02  0.30000009875E+02 0.  0.
         12    1    1    2    0    0 -0.77104863338E+01 -0.30485245227E+02  0.25775252424E+02  0.40659136901E+02  0.00000000000E+00 0. -1.
         11    1    3    3    0    0  0.16211616331E+01  0.89099463115E+01 -0.25971017458E+02  0.27504709712E+02  0.51100000000E-03 0. -1.
        -11    1    3    3    0    0  0.28071124286E+01  0.17341157452E+02 -0.75506826373E+00  0.17583109802E+02  0.51100000000E-03 0.  1.
         12    1    3    3    0    0  0.32822122722E+01  0.42341414633E+01  0.95083329746E+00  0.54410435847E+01  0.00000000000E+00 0. -1.
</event>
<event>
 7    1  0.2942034E-011  0.5052882E+02  0.7816164E-02  0.1300439E+00
        -11   -1    0    0    0    0  0.00000000000E+00  0.00000000000E+00  0.45593999997E+02  0.45594000000E+02  0.51100000000E-03 0.  1.
         11   -1    0    0    0    0 -0.00000000000E+00 -0.00000000000E+00 -0.45593999997E+02  0.45594000000E+02  0.51100000000E-03 0. -1.
    9900012    2    1    2    0    0 -0.16396761886E+02  0.19749271032E+01  0.37153928686E+02  0.50528824477E+02  0.29999892480E+02 0.  0.
         12    1    1    2    0    0  0.16396761886E+02 -0.19749271032E+01 -0.37153928686E+02  0.40659175523E+02  0.00000000000E+00 0. -1.
         11    1    3    3    0    0 -0.28962000500E+01 -0.33686858051E+01  0.17567274322E+02  0.18120296524E+02  0.51100000000E-03 0. -1.
        -11    1    3    3    0    0 -0.12476550656E+02  0.26102952188E+01  0.14348797562E+00  0.12747491772E+02  0.51100000000E-03 0.  1.
        -12    1    3    3    0    0 -0.10240111801E+01  0.27333176895E+01  0.19443166389E+02  0.19661036181E+02  0.00000000000E+00 0.  1.
</event>
<event>
 7    1  0.2942034E-011  0.5052889E+02  0.7816164E-02  0.1300439E+00
        -11   -1    0    0    0    0  0.00000000000E+00  0.00000000000E+00  0.45593999997E+02  0.45594000000E+02  0.51100000000E-03 0.  1.
         11   -1    0    0    0    0 -0.00000000000E+00 -0.00000000000E+00 -0.45593999997E+02  0.45594000000E+02  0.51100000000E-03 0. -1.
    9900012    2    1    2    0    0 -0.26113591217E+02 -0.23095131514E+02  0.20925069489E+02  0.50528889347E+02  0.30000089660E+02 0.  0.
         12    1    1    2    0    0  0.26113591217E+02  0.23095131514E+02 -0.20925069489E+02  0.40659110653E+02  0.00000000000E+00 0. -1.
         11    1    3    3    0    0 -0.14429224218E+02  0.29554021596E+01  0.24254037142E+01  0.14927139609E+02  0.51100000000E-03 0. -1.
        -11    1    3    3    0    0 -0.13332555247E+01 -0.98942113888E+01  0.11372635737E+02  0.15133070844E+02  0.51100000000E-03 0.  1.
         12    1    3    3    0    0 -0.10351111475E+02 -0.16156322285E+02  0.71270300383E+01  0.20468678895E+02  0.00000000000E+00 0. -1.
</event>
<event>
 7    1  0.2942034E-011  0.5052885E+02  0.7816164E-02  0.1300439E+00
        -11   -1    0    0    0    0  0.00000000000E+00  0.00000000000E+00  0.45593999997E+02  0.45594000000E+02  0.51100000000E-03 0. -1.
         11   -1    0    0    0    0 -0.00000000000E+00 -0.00000000000E+00 -0.45593999997E+02  0.45594000000E+02  0.51100000000E-03 0.  1.
    9900012    2    1    2    0    0  0.33750562861E+02  0.21657257362E+02 -0.67103810396E+01  0.50528849694E+02  0.29999969131E+02 0.  0.
         12    1    1    2    0    0 -0.33750562861E+02 -0.21657257362E+02  0.67103810396E+01  0.40659150306E+02  0.00000000000E+00 0. -1.
         11    1    3    3    0    0  0.15293639805E+02  0.19516295938E+02 -0.11905316063E+02  0.27504868232E+02  0.51100000000E-03 0. -1.
        -11    1    3    3    0    0  0.11058274196E+02  0.20459192388E+01 -0.33369019884E+01  0.11730563877E+02  0.51100000000E-03 0.  1.
         12    1    3    3    0    0  0.73986488596E+01  0.95042185036E-01  0.85318370116E+01  0.11293417585E+02  0.00000000000E+00 0. -1.
</event>
<event>
 7    1  0.2942034E-011  0.5052886E+02  0.7816164E-02  0.1300439E+00
        -11   -1    0    0    0    0  0.00000000000E+00  0.00000000000E+00  0.45593999997E+02  0.45594000000E+02  0.51100000000E-03 0.  1.
         11   -1    0    0    0    0 -0.00000000000E+00 -0.00000000000E+00 -0.45593999997E+02  0.45594000000E+02  0.51100000000E-03 0. -1.
    9900012    2    1    2    0    0 -0.11011302595E+02  0.72525169014E+00  0.39132988036E+02  0.50528861698E+02  0.30000005616E+02 0.  0.
         12    1    1    2    0    0  0.11011302595E+02 -0.72525169014E+00 -0.39132988036E+02  0.40659138302E+02  0.00000000000E+00 0. -1.
         11    1    3    3    0    0 -0.20643206069E+01 -0.91861137110E+01  0.33014906843E+02  0.34331183767E+02  0.51100000000E-03 0. -1.
        -11    1    3    3    0    0 -0.93723037220E+01  0.62546120430E+01  0.51640549309E+01  0.12394664677E+02  0.51100000000E-03 0.  1.
         12    1    3    3    0    0  0.42532173415E+00  0.36567533582E+01  0.95402626191E+00  0.38030132538E+01  0.00000000000E+00 0. -1.
</event>
<event>
 7    1  0.2942034E-011  0.5052886E+02  0.7816164E-02  0.1300439E+00
        -11   -1    0    0    0    0  0.00000000000E+00  0.00000000000E+00  0.45593999997E+02  0.45594000000E+02  0.51100000000E-03 0. -1.
         11   -1    0    0    0    0 -0.00000000000E+00 -0.00000000000E+00 -0.45593999997E+02  0.45594000000E+02  0.51100000000E-03 0.  1.
    9900012    2    1    2    0    0 -0.49624959267E+01  0.14998680998E+02 -0.37464365097E+02  0.50528862656E+02  0.30000008528E+02 0.  0.
         12    1    1    2    0    0  0.49624959267E+01 -0.14998680998E+02  0.37464365097E+02  0.40659137344E+02  0.00000000000E+00 0. -1.
         11    1    3    3    0    0 -0.36186943352E+01  0.51293971359E+01 -0.26540768306E+01  0.68154081135E+01  0.51100000000E-03 0. -1.
        -11    1    3    3    0    0 -0.21330994469E+01 -0.95018314372E+00 -0.32548247643E+02  0.32631907485E+02  0.51100000000E-03 0.  1.
        -12    1    3    3    0    0  0.78929785543E+00  0.10819467006E+02 -0.22620406234E+01  0.11081547057E+02  0.00000000000E+00 0.  1.
</event>
<event>
 7    1  0.2942034E-011  0.5052885E+02  0.7816164E-02  0.1300439E+00
        -11   -1    0    0    0    0  0.00000000000E+00  0.00000000000E+00  0.45593999997E+02  0.45594000000E+02  0.51100000000E-03 0.  1.
         11   -1    0    0    0    0 -0.00000000000E+00 -0.00000000000E+00 -0.45593999997E+02  0.45594000000E+02  0.51100000000E-03 0. -1.
    9900012    2    1    2    0    0  0.27511070477E+02 -0.82739101501E+01  0.28772377073E+02  0.50528852562E+02  0.29999977847E+02 0.  0.
         12    1    1    2    0    0 -0.27511070477E+02  0.82739101501E+01 -0.28772377073E+02  0.40659147438E+02  0.00000000000E+00 0. -1.
         11    1    3    3    0    0 -0.37123637633E+01 -0.52904942237E+01  0.70395128536E+01  0.95564488865E+01  0.51100000000E-03 0. -1.
        -11    1    3    3    0    0  0.32085214215E+02 -0.13175329319E+01  0.22200744374E+02  0.39039338049E+02  0.51100000000E-03 0.  1.
        -12    1    3    3    0    0 -0.86177997496E+00 -0.16658829945E+01 -0.46788015521E+00  0.19330656265E+01  0.00000000000E+00 0.  1.
</event>
<event>
 7    1  0.2942034E-011  0.5052886E+02  0.7816164E-02  0.1300439E+00
        -11   -1    0    0    0    0  0.00000000000E+00  0.00000000000E+00  0.45593999997E+02  0.45594000000E+02  0.51100000000E-03 0. -1.
         11   -1    0    0    0    0 -0.00000000000E+00 -0.00000000000E+00 -0.45593999997E+02  0.45594000000E+02  0.51100000000E-03 0.  1.
    9900012    2    1    2    0    0 -0.11081786603E+02 -0.30458069051E+02 -0.24549257941E+02  0.50528855517E+02  0.29999986830E+02 0.  0.
         12    1    1    2    0    0  0.11081786603E+02  0.30458069051E+02  0.24549257941E+02  0.40659144483E+02  0.00000000000E+00 0. -1.
         11    1    3    3    0    0  0.69881209521E-01 -0.14287167092E+01  0.16291735754E+01  0.21680225133E+01  0.51100000000E-03 0. -1.
        -11    1    3    3    0    0 -0.13318030660E+02 -0.26587215617E+02 -0.30728469384E+02  0.42760832614E+02  0.51100000000E-03 0.  1.
        -12    1    3    3    0    0  0.21663628482E+01 -0.24421367244E+01  0.45500378670E+01  0.56000003894E+01  0.00000000000E+00 0.  1.
</event>
<event>
 7    1  0.2942034E-011  0.5052884E+02  0.7816164E-02  0.1300439E+00
        -11   -1    0    0    0    0  0.00000000000E+00  0.00000000000E+00  0.45593999997E+02  0.45594000000E+02  0.51100000000E-03 0. -1.
         11   -1    0    0    0    0 -0.00000000000E+00 -0.00000000000E+00 -0.45593999997E+02  0.45594000000E+02  0.51100000000E-03 0.  1.
    9900012    2    1    2    0    0  0.28053551727E+02  0.16541207048E+02 -0.24342433872E+02  0.50528838893E+02  0.29999936299E+02 0.  0.
         12    1    1    2    0    0 -0.28053551727E+02 -0.16541207048E+02  0.24342433872E+02  0.40659161107E+02  0.00000000000E+00 0. -1.
         11    1    3    3    0    0  0.15848013533E+02 -0.30023287951E+01 -0.19050043052E+02  0.24961523424E+02  0.51100000000E-03 0. -1.
        -11    1    3    3    0    0  0.92384184547E+01  0.15731656726E+02  0.21060772533E+00  0.18244937784E+02  0.51100000000E-03 0.  1.
        -12    1    3    3    0    0  0.29671197392E+01  0.38118791178E+01 -0.55029985461E+01  0.73223776845E+01  0.00000000000E+00 0.  1.
</event>
<event>
 7    1  0.2942034E-011  0.5052886E+02  0.7816164E-02  0.1300439E+00
        -11   -1    0    0    0    0  0.00000000000E+00  0.00000000000E+00  0.45593999997E+02  0.45594000000E+02  0.51100000000E-03 0. -1.
         11   -1    0    0    0    0 -0.00000000000E+00 -0.00000000000E+00 -0.45593999997E+02  0.45594000000E+02  0.51100000000E-03 0.  1.
    9900012    2    1    2    0    0 -0.26815647613E+02 -0.16331670848E+01 -0.30519164054E+02  0.50528861222E+02  0.30000004170E+02 0.  0.
         12    1    1    2    0    0  0.26815647613E+02  0.16331670848E+01  0.30519164054E+02  0.40659138778E+02  0.00000000000E+00 0. -1.
         11    1    3    3    0    0 -0.16756047108E+02  0.55964654843E+01 -0.21275933755E+02  0.27654129855E+02  0.51100000000E-03 0.  1.
        -11    1    3    3    0    0  0.27648144019E+01 -0.21772520720E+01  0.28573270066E+01  0.45330942132E+01  0.51100000000E-03 0. -1.
         12    1    3    3    0    0 -0.12824414906E+02 -0.50523804971E+01 -0.12100557306E+02  0.18341637154E+02  0.00000000000E+00 0. -1.
</event>
<event>
 7    1  0.2942034E-011  0.5052886E+02  0.7816164E-02  0.1300439E+00
        -11   -1    0    0    0    0  0.00000000000E+00  0.00000000000E+00  0.45593999997E+02  0.45594000000E+02  0.51100000000E-03 0.  1.
         11   -1    0    0    0    0 -0.00000000000E+00 -0.00000000000E+00 -0.45593999997E+02  0.45594000000E+02  0.51100000000E-03 0. -1.
    9900012    2    1    2    0    0 -0.13752832326E+02  0.27489330708E+02  0.26615073735E+02  0.50528857735E+02  0.29999993571E+02 0.  0.
         12    1    1    2    0    0  0.13752832326E+02 -0.27489330708E+02 -0.26615073735E+02  0.40659142265E+02  0.00000000000E+00 0. -1.
         11    1    3    3    0    0 -0.12760534869E+02  0.16074163569E+02 -0.67014006753E+00  0.20534338864E+02  0.51100000000E-03 0. -1.
        -11    1    3    3    0    0  0.78444777080E+00  0.10362473670E+02  0.22706712568E+02  0.24971804396E+02  0.51100000000E-03 0.  1.
         12    1    3    3    0    0 -0.17767452281E+01  0.10526934692E+01  0.45785012346E+01  0.50227144754E+01  0.00000000000E+00 0. -1.
</event>
<event>
 7    1  0.2942034E-011  0.5052886E+02  0.7816164E-02  0.1300439E+00
        -11   -1    0    0    0    0  0.00000000000E+00  0.00000000000E+00  0.45593999997E+02  0.45594000000E+02  0.51100000000E-03 0. -1.
         11   -1    0    0    0    0 -0.00000000000E+00 -0.00000000000E+00 -0.45593999997E+02  0.45594000000E+02  0.51100000000E-03 0.  1.
    9900012    2    1    2    0    0 -0.16854131205E+02 -0.35881297326E+02 -0.90352964775E+01  0.50528858114E+02  0.29999994724E+02 0.  0.
         12    1    1    2    0    0  0.16854131205E+02  0.35881297326E+02  0.90352964775E+01  0.40659141886E+02  0.00000000000E+00 0. -1.
         11    1    3    3    0    0  0.56356073338E+01 -0.13494899422E+02  0.46411617459E+00  0.14631738944E+02  0.51100000000E-03 0. -1.
        -11    1    3    3    0    0 -0.21955137989E+02 -0.13939220158E+02 -0.57220394627E+01  0.26628399851E+02  0.51100000000E-03 0.  1.
        -12    1    3    3    0    0 -0.53460054987E+00 -0.84471777460E+01 -0.37773731894E+01  0.92687193199E+01  0.00000000000E+00 0.  1.
</event>
<event>
 7    1  0.2942034E-011  0.5052885E+02  0.7816164E-02  0.1300439E+00
        -11   -1    0    0    0    0  0.00000000000E+00  0.00000000000E+00  0.45593999997E+02  0.45594000000E+02  0.51100000000E-03 0.  1.
         11   -1    0    0    0    0 -0.00000000000E+00 -0.00000000000E+00 -0.45593999997E+02  0.45594000000E+02  0.51100000000E-03 0. -1.
    9900012    2    1    2    0    0 -0.69096370697E+01  0.14295131773E+02  0.37430902688E+02  0.50528851548E+02  0.29999974764E+02 0.  0.
         12    1    1    2    0    0  0.69096370697E+01 -0.14295131773E+02 -0.37430902688E+02  0.40659148452E+02  0.00000000000E+00 0. -1.
         11    1    3    3    0    0 -0.84565737730E+00  0.10549972628E+02 -0.97509555548E+00  0.10628634458E+02  0.51100000000E-03 0. -1.
        -11    1    3    3    0    0 -0.30680520104E+01  0.43782542312E+01  0.34622574493E+02  0.35032909072E+02  0.51100000000E-03 0.  1.
         12    1    3    3    0    0 -0.29959276820E+01 -0.63309508582E+00  0.37834237500E+01  0.48673080173E+01  0.00000000000E+00 0. -1.
</event>
<event>
 7    1  0.2942034E-011  0.5052886E+02  0.7816164E-02  0.1300439E+00
        -11   -1    0    0    0    0  0.00000000000E+00  0.00000000000E+00  0.45593999997E+02  0.45594000000E+02  0.51100000000E-03 0. -1.
         11   -1    0    0    0    0 -0.00000000000E+00 -0.00000000000E+00 -0.45593999997E+02  0.45594000000E+02  0.51100000000E-03 0.  1.
    9900012    2    1    2    0    0 -0.33725097401E+02  0.10887297716E+02 -0.19931131213E+02  0.50528862802E+02  0.30000008974E+02 0.  0.
         12    1    1    2    0    0  0.33725097401E+02 -0.10887297716E+02  0.19931131213E+02  0.40659137198E+02  0.00000000000E+00 0. -1.
         11    1    3    3    0    0  0.30693835016E+01  0.74657411373E+00 -0.33508194969E+01  0.46050493536E+01  0.51100000000E-03 0. -1.
        -11    1    3    3    0    0 -0.29821756093E+02  0.22980853481E+01 -0.18621294289E+02  0.35233094300E+02  0.51100000000E-03 0.  1.
        -12    1    3    3    0    0 -0.69727248095E+01  0.78426382539E+01  0.20409825729E+01  0.10690719149E+02  0.00000000000E+00 0.  1.
</event>
<event>
 7    1  0.2942034E-011  0.5052885E+02  0.7816164E-02  0.1300439E+00
        -11   -1    0    0    0    0  0.00000000000E+00  0.00000000000E+00  0.45593999997E+02  0.45594000000E+02  0.51100000000E-03 0.  1.
         11   -1    0    0    0    0 -0.00000000000E+00 -0.00000000000E+00 -0.45593999997E+02  0.45594000000E+02  0.51100000000E-03 0. -1.
    9900012    2    1    2    0    0  0.19092951310E+02 -0.33240436914E+02  0.13553562579E+02  0.50528849806E+02  0.29999969470E+02 0.  0.
         12    1    1    2    0    0 -0.19092951310E+02  0.33240436914E+02 -0.13553562579E+02  0.40659150194E+02  0.00000000000E+00 0. -1.
         11    1    3    3    0    0  0.76024034728E+01  0.17046671061E+01  0.39068066362E+01  0.87158227873E+01  0.51100000000E-03 0. -1.
        -11    1    3    3    0    0  0.67890022308E+01 -0.23672236308E+02  0.14604248984E+02  0.28631266332E+02  0.51100000000E-03 0.  1.
        -12    1    3    3    0    0  0.47015456063E+01 -0.11272867712E+02 -0.49574930418E+01  0.13181760686E+02  0.00000000000E+00 0.  1.
</event>
<event>
 7    1  0.2942034E-011  0.5052883E+02  0.7816164E-02  0.1300439E+00
        -11   -1    0    0    0    0  0.00000000000E+00  0.00000000000E+00  0.45593999997E+02  0.45594000000E+02  0.51100000000E-03 0. -1.
         11   -1    0    0    0    0 -0.00000000000E+00 -0.00000000000E+00 -0.45593999997E+02  0.45594000000E+02  0.51100000000E-03 0.  1.
    9900012    2    1    2    0    0 -0.17932830113E+02  0.35752755840E+02 -0.73021903554E+01  0.50528832153E+02  0.29999915812E+02 0.  0.
         12    1    1    2    0    0  0.17932830113E+02 -0.35752755840E+02  0.73021903554E+01  0.40659167847E+02  0.00000000000E+00 0. -1.
         11    1    3    3    0    0 -0.22344533589E+01  0.15374843283E+02  0.99287700396E+01  0.18437978809E+02  0.51100000000E-03 0. -1.
        -11    1    3    3    0    0 -0.10751138205E+02  0.72445514808E+01 -0.70914040530E+01  0.14776958772E+02  0.51100000000E-03 0.  1.
         12    1    3    3    0    0 -0.49472385494E+01  0.13133361076E+02 -0.10139556342E+02  0.17313894572E+02  0.00000000000E+00 0. -1.
</event>
<event>
 7    1  0.2942034E-011  0.5052886E+02  0.7816164E-02  0.1300439E+00
        -11   -1    0    0    0    0  0.00000000000E+00  0.00000000000E+00  0.45593999997E+02  0.45594000000E+02  0.51100000000E-03 0. -1.
         11   -1    0    0    0    0 -0.00000000000E+00 -0.00000000000E+00 -0.45593999997E+02  0.45594000000E+02  0.51100000000E-03 0.  1.
    9900012    2    1    2    0    0 -0.36692659972E+00  0.67096054967E+01 -0.40100025675E+02  0.50528862034E+02  0.30000006638E+02 0.  0.
         12    1    1    2    0    0  0.36692659972E+00 -0.67096054967E+01  0.40100025675E+02  0.40659137966E+02  0.00000000000E+00 0. -1.
         11    1    3    3    0    0  0.46778859077E+01 -0.27723835934E+01 -0.89555215742E+01  0.10477122424E+02  0.51100000000E-03 0. -1.
        -11    1    3    3    0    0 -0.63830731908E+01  0.83899844021E+01 -0.34609847100E+02  0.36179786873E+02  0.51100000000E-03 0.  1.
        -12    1    3    3    0    0  0.13382606834E+01  0.10920046881E+01  0.34653429995E+01  0.38719527373E+01  0.00000000000E+00 0.  1.
</event>
<event>
 7    1  0.2942034E-011  0.5052886E+02  0.7816164E-02  0.1300439E+00
        -11   -1    0    0    0    0  0.00000000000E+00  0.00000000000E+00  0.45593999997E+02  0.45594000000E+02  0.51100000000E-03 0.  1.
         11   -1    0    0    0    0 -0.00000000000E+00 -0.00000000000E+00 -0.45593999997E+02  0.45594000000E+02  0.51100000000E-03 0. -1.
    9900012    2    1    2    0    0 -0.79493740342E+01  0.21364953890E+02  0.33667672447E+02  0.50528856252E+02  0.29999989065E+02 0.  0.
         12    1    1    2    0    0  0.79493740342E+01 -0.21364953890E+02 -0.33667672447E+02  0.40659143748E+02  0.00000000000E+00 0. -1.
         11    1    3    3    0    0  0.34691220317E+01  0.75202669317E+01  0.18626942101E+02  0.20385097368E+02  0.51100000000E-03 0. -1.
        -11    1    3    3    0    0 -0.33992406102E+01  0.66084743427E+01 -0.38601223296E+01  0.83742053071E+01  0.51100000000E-03 0.  1.
        -12    1    3    3    0    0 -0.80192554557E+01  0.72362126158E+01  0.18900852676E+02  0.21769553578E+02  0.00000000000E+00 0.  1.
</event>
<event>
 7    1  0.2942034E-011  0.5052886E+02  0.7816164E-02  0.1300439E+00
        -11   -1    0    0    0    0  0.00000000000E+00  0.00000000000E+00  0.45593999997E+02  0.45594000000E+02  0.51100000000E-03 0.  1.
         11   -1    0    0    0    0 -0.00000000000E+00 -0.00000000000E+00 -0.45593999997E+02  0.45594000000E+02  0.51100000000E-03 0. -1.
    9900012    2    1    2    0    0 -0.19524442631E+02  0.27582282756E+02  0.22609278463E+02  0.50528860134E+02  0.30000000862E+02 0.  0.
         12    1    1    2    0    0  0.19524442631E+02 -0.27582282756E+02 -0.22609278463E+02  0.40659139866E+02  0.00000000000E+00 0. -1.
         11    1    3    3    0    0  0.44491204512E+01  0.69983013925E+01 -0.15510070768E+01  0.84366177099E+01  0.51100000000E-03 0. -1.
        -11    1    3    3    0    0 -0.21381016413E+02  0.15129108406E+02  0.12635526000E+02  0.29080823606E+02  0.51100000000E-03 0.  1.
        -12    1    3    3    0    0 -0.25925466691E+01  0.54548729569E+01  0.11524759540E+02  0.13011418818E+02  0.00000000000E+00 0.  1.
</event>
<event>
 7    1  0.2942034E-011  0.5052890E+02  0.7816164E-02  0.1300439E+00
        -11   -1    0    0    0    0  0.00000000000E+00  0.00000000000E+00  0.45593999997E+02  0.45594000000E+02  0.51100000000E-03 0. -1.
         11   -1    0    0    0    0 -0.00000000000E+00 -0.00000000000E+00 -0.45593999997E+02  0.45594000000E+02  0.51100000000E-03 0.  1.
    9900012    2    1    2    0    0  0.29572620701E+02  0.27859843181E+02  0.15658027657E+01  0.50528898983E+02  0.30000118948E+02 0.  0.
         12    1    1    2    0    0 -0.29572620701E+02 -0.27859843181E+02 -0.15658027657E+01  0.40659101017E+02  0.00000000000E+00 0. -1.
         11    1    3    3    0    0  0.24120146325E+01 -0.14583661225E+01  0.77347235612E+01  0.82322897886E+01  0.51100000000E-03 0. -1.
        -11    1    3    3    0    0  0.15736211654E+02  0.89379681381E+01  0.13247449824E+00  0.18097877815E+02  0.51100000000E-03 0.  1.
         12    1    3    3    0    0  0.11424394414E+02  0.20380241166E+02 -0.63013952937E+01  0.24198731379E+02  0.00000000000E+00 0. -1.
</event>
<event>
 7    1  0.2942034E-011  0.5052888E+02  0.7816164E-02  0.1300439E+00
        -11   -1    0    0    0    0  0.00000000000E+00  0.00000000000E+00  0.45593999997E+02  0.45594000000E+02  0.51100000000E-03 0. -1.
         11   -1    0    0    0    0 -0.00000000000E+00 -0.00000000000E+00 -0.45593999997E+02  0.45594000000E+02  0.51100000000E-03 0.  1.
    9900012    2    1    2    0    0  0.10794828271E+02  0.28560604242E+02 -0.26850101993E+02  0.50528875451E+02  0.30000047420E+02 0.  0.
         12    1    1    2    0    0 -0.10794828271E+02 -0.28560604242E+02  0.26850101993E+02  0.40659124549E+02  0.00000000000E+00 0. -1.
         11    1    3    3    0    0  0.41883730429E+01 -0.30198565917E+01 -0.33466207484E+01  0.61532002467E+01  0.51100000000E-03 0. -1.
        -11    1    3    3    0    0  0.13125749885E+01  0.32024818479E+02 -0.21926546644E+02  0.38834073952E+02  0.51100000000E-03 0.  1.
        -12    1    3    3    0    0  0.52938802394E+01 -0.44435764467E+00 -0.15769346006E+01  0.55416012523E+01  0.00000000000E+00 0.  1.
</event>
<event>
 7    1  0.2942034E-011  0.5052886E+02  0.7816164E-02  0.1300439E+00
        -11   -1    0    0    0    0  0.00000000000E+00  0.00000000000E+00  0.45593999997E+02  0.45594000000E+02  0.51100000000E-03 0. -1.
         11   -1    0    0    0    0 -0.00000000000E+00 -0.00000000000E+00 -0.45593999997E+02  0.45594000000E+02  0.51100000000E-03 0.  1.
    9900012    2    1    2    0    0 -0.34375216068E+01 -0.36443824816E+02  0.17697362919E+02  0.50528861098E+02  0.30000003792E+02 0.  0.
         12    1    1    2    0    0  0.34375216068E+01  0.36443824816E+02 -0.17697362919E+02  0.40659138902E+02  0.00000000000E+00 0. -1.
         11    1    3    3    0    0  0.84651197786E+01 -0.15319538358E+02  0.67926155205E+01  0.18774614090E+02  0.51100000000E-03 0. -1.
        -11    1    3    3    0    0 -0.83241078469E+01 -0.10222100043E+02 -0.32060855030E+01  0.13566911412E+02  0.51100000000E-03 0.  1.
         12    1    3    3    0    0 -0.35785335385E+01 -0.10902186415E+02  0.14110832901E+02  0.18187335596E+02  0.00000000000E+00 0. -1.
</event>
<event>
 7    1  0.2942034E-011  0.5052887E+02  0.7816164E-02  0.1300439E+00
        -11   -1    0    0    0    0  0.00000000000E+00  0.00000000000E+00  0.45593999997E+02  0.45594000000E+02  0.51100000000E-03 0. -1.
         11   -1    0    0    0    0 -0.00000000000E+00 -0.00000000000E+00 -0.45593999997E+02  0.45594000000E+02  0.51100000000E-03 0.  1.
    9900012    2    1    2    0    0  0.39497541197E+01  0.24707117977E+02 -0.32048758862E+02  0.50528865959E+02  0.30000018569E+02 0.  0.
         12    1    1    2    0    0 -0.39497541197E+01 -0.24707117977E+02  0.32048758862E+02  0.40659134041E+02  0.00000000000E+00 0. -1.
         11    1    3    3    0    0 -0.61236611680E+01  0.15107493246E+02 -0.33409944769E+01  0.16640247072E+02  0.51100000000E-03 0. -1.
        -11    1    3    3    0    0  0.28678934245E+01  0.17840801031E+01 -0.19604146953E+02  0.19892971938E+02  0.51100000000E-03 0.  1.
        -12    1    3    3    0    0  0.72055218632E+01  0.78155446287E+01 -0.91036174321E+01  0.13995646949E+02  0.00000000000E+00 0.  1.
</event>
<event>
 7    1  0.2942034E-011  0.5052886E+02  0.7816164E-02  0.1300439E+00
        -11   -1    0    0    0    0  0.00000000000E+00  0.00000000000E+00  0.45593999997E+02  0.45594000000E+02  0.51100000000E-03 0.  1.
         11   -1    0    0    0    0 -0.00000000000E+00 -0.00000000000E+00 -0.45593999997E+02  0.45594000000E+02  0.51100000000E-03 0. -1.
    9900012    2    1    2    0    0 -0.15346927541E+02 -0.25633159218E+02  0.27578596003E+02  0.50528855962E+02  0.29999988182E+02 0.  0.
         12    1    1    2    0    0  0.15346927541E+02  0.25633159218E+02 -0.27578596003E+02  0.40659144038E+02  0.00000000000E+00 0. -1.
         11    1    3    3    0    0 -0.15144072806E+02 -0.15763460991E+01  0.89272941124E+01  0.17650053501E+02  0.51100000000E-03 0. -1.
        -11    1    3    3    0    0  0.23530417689E+01 -0.14954037611E+02  0.43786218125E+01  0.15758565152E+02  0.51100000000E-03 0.  1.
        -12    1    3    3    0    0 -0.25558965040E+01 -0.91027755081E+01  0.14272680078E+02  0.17120237308E+02  0.00000000000E+00 0.  1.
</event>
<event>
 7    1  0.2942034E-011  0.5052884E+02  0.7816164E-02  0.1300439E+00
        -11   -1    0    0    0    0  0.00000000000E+00  0.00000000000E+00  0.45593999997E+02  0.45594000000E+02  0.51100000000E-03 0.  1.
         11   -1    0    0    0    0 -0.00000000000E+00 -0.00000000000E+00 -0.45593999997E+02  0.45594000000E+02  0.51100000000E-03 0. -1.
    9900012    2    1    2    0    0  0.10256773252E+02 -0.51798057430E+01  0.39001739280E+02  0.50528838032E+02  0.29999933682E+02 0.  0.
         12    1    1    2    0    0 -0.10256773252E+02  0.51798057430E+01 -0.39001739280E+02  0.40659161968E+02  0.00000000000E+00 0. -1.
         11    1    3    3    0    0  0.10023319562E+02 -0.13024367917E+01  0.20727161339E+01  0.10317917865E+02  0.51100000000E-03 0. -1.
        -11    1    3    3    0    0  0.38723144755E+01 -0.44220710054E+01  0.35917124156E+02  0.36394908150E+02  0.51100000000E-03 0.  1.
         12    1    3    3    0    0 -0.36388607856E+01  0.54470205408E+00  0.10118989900E+01  0.38160120166E+01  0.00000000000E+00 0. -1.
</event>
<event>
 7    1  0.2942034E-011  0.5052886E+02  0.7816164E-02  0.1300439E+00
        -11   -1    0    0    0    0  0.00000000000E+00  0.00000000000E+00  0.45593999997E+02  0.45594000000E+02  0.51100000000E-03 0. -1.
         11   -1    0    0    0    0 -0.00000000000E+00 -0.00000000000E+00 -0.45593999997E+02  0.45594000000E+02  0.51100000000E-03 0.  1.
    9900012    2    1    2    0    0 -0.11124043075E+02 -0.27038311812E+02 -0.28255105176E+02  0.50528860702E+02  0.30000002589E+02 0.  0.
         12    1    1    2    0    0  0.11124043075E+02  0.27038311812E+02  0.28255105176E+02  0.40659139298E+02  0.00000000000E+00 0. -1.
         11    1    3    3    0    0 -0.12324100505E+01  0.61633063539E+01 -0.25495151195E+01  0.67827138632E+01  0.51100000000E-03 0. -1.
        -11    1    3    3    0    0 -0.95562570171E+01 -0.20019498041E+02 -0.16946895794E+02  0.27915938589E+02  0.51100000000E-03 0.  1.
         12    1    3    3    0    0 -0.33537600784E+00 -0.13182120125E+02 -0.87586942627E+01  0.15830208250E+02  0.00000000000E+00 0. -1.
</event>
<event>
 7    1  0.2942034E-011  0.5052887E+02  0.7816164E-02  0.1300439E+00
        -11   -1    0    0    0    0  0.00000000000E+00  0.00000000000E+00  0.45593999997E+02  0.45594000000E+02  0.51100000000E-03 0. -1.
         11   -1    0    0    0    0 -0.00000000000E+00 -0.00000000000E+00 -0.45593999997E+02  0.45594000000E+02  0.51100000000E-03 0.  1.
    9900012    2    1    2    0    0 -0.31696258199E+02 -0.21753459232E+02  0.13240068542E+02  0.50528865880E+02  0.30000018328E+02 0.  0.
         12    1    1    2    0    0  0.31696258199E+02  0.21753459232E+02 -0.13240068542E+02  0.40659134120E+02  0.00000000000E+00 0. -1.
         11    1    3    3    0    0 -0.26221336001E+02 -0.15427212511E+02  0.12082769219E+02  0.32734548413E+02  0.51100000000E-03 0.  1.
        -11    1    3    3    0    0  0.53368876814E+01 -0.73492094143E+00 -0.86247964010E+00  0.54558546814E+01  0.51100000000E-03 0. -1.
         12    1    3    3    0    0 -0.10811809880E+02 -0.55913257801E+01  0.20197789627E+01  0.12338462786E+02  0.00000000000E+00 0. -1.
</event>
<event>
 7    1  0.2942034E-011  0.5052887E+02  0.7816164E-02  0.1300439E+00
        -11   -1    0    0    0    0  0.00000000000E+00  0.00000000000E+00  0.45593999997E+02  0.45594000000E+02  0.51100000000E-03 0.  1.
         11   -1    0    0    0    0 -0.00000000000E+00 -0.00000000000E+00 -0.45593999997E+02  0.45594000000E+02  0.51100000000E-03 0. -1.
    9900012    2    1    2    0    0  0.29542939541E+02  0.11470017993E+02 -0.25471905826E+02  0.50528873400E+02  0.30000041185E+02 0.  0.
         12    1    1    2    0    0 -0.29542939541E+02 -0.11470017993E+02  0.25471905826E+02  0.40659126600E+02  0.00000000000E+00 0. -1.
         11    1    3    3    0    0  0.21477472744E+02  0.18670225475E+02 -0.16847739497E+02  0.33071218320E+02  0.51100000000E-03 0.  1.
        -11    1    3    3    0    0  0.94169245209E+01 -0.27203951557E+01 -0.81626954322E+01  0.12755728682E+02  0.51100000000E-03 0. -1.
         12    1    3    3    0    0 -0.13514577242E+01 -0.44798123260E+01 -0.46147089739E+00  0.47019263973E+01  0.00000000000E+00 0. -1.
</event>
<event>
 7    1  0.2942034E-011  0.5052887E+02  0.7816164E-02  0.1300439E+00
        -11   -1    0    0    0    0  0.00000000000E+00  0.00000000000E+00  0.45593999997E+02  0.45594000000E+02  0.51100000000E-03 0.  1.
         11   -1    0    0    0    0 -0.00000000000E+00 -0.00000000000E+00 -0.45593999997E+02  0.45594000000E+02  0.51100000000E-03 0. -1.
    9900012    2    1    2    0    0 -0.36608708136E+02 -0.13314557724E+02  0.11648595551E+02  0.50528871417E+02  0.30000035159E+02 0.  0.
         12    1    1    2    0    0  0.36608708136E+02  0.13314557724E+02 -0.11648595551E+02  0.40659128583E+02  0.00000000000E+00 0. -1.
         11    1    3    3    0    0 -0.13711273442E+02  0.15080695599E+01  0.15670775235E+02  0.20876936794E+02  0.51100000000E-03 0. -1.
        -11    1    3    3    0    0 -0.19904928734E+02 -0.81349328981E+01 -0.46681666600E+00  0.21508166803E+02  0.51100000000E-03 0.  1.
         12    1    3    3    0    0 -0.29925059608E+01 -0.66876943858E+01 -0.35553630171E+01  0.81437678201E+01  0.00000000000E+00 0. -1.
</event>
<event>
 7    1  0.2942034E-011  0.5052884E+02  0.7816164E-02  0.1300439E+00
        -11   -1    0    0    0    0  0.00000000000E+00  0.00000000000E+00  0.45593999997E+02  0.45594000000E+02  0.51100000000E-03 0. -1.
         11   -1    0    0    0    0 -0.00000000000E+00 -0.00000000000E+00 -0.45593999997E+02  0.45594000000E+02  0.51100000000E-03 0.  1.
    9900012    2    1    2    0    0  0.26114004469E+01 -0.18140948760E+02 -0.36293996771E+02  0.50528835771E+02  0.29999926809E+02 0.  0.
         12    1    1    2    0    0 -0.26114004469E+01  0.18140948760E+02  0.36293996771E+02  0.40659164229E+02  0.00000000000E+00 0. -1.
         11    1    3    3    0    0 -0.31149585643E+00  0.37867506159E+01  0.12940877623E+01  0.40138726055E+01  0.51100000000E-03 0. -1.
        -11    1    3    3    0    0 -0.20803654275E+01 -0.72215174644E+01 -0.26192594822E+02  0.27249408408E+02  0.51100000000E-03 0.  1.
         12    1    3    3    0    0  0.50032617308E+01 -0.14706181912E+02 -0.11395489711E+02  0.19265554758E+02  0.00000000000E+00 0. -1.
</event>
<event>
 7    1  0.2942034E-011  0.5052886E+02  0.7816164E-02  0.1300439E+00
        -11   -1    0    0    0    0  0.00000000000E+00  0.00000000000E+00  0.45593999997E+02  0.45594000000E+02  0.51100000000E-03 0. -1.
         11   -1    0    0    0    0 -0.00000000000E+00 -0.00000000000E+00 -0.45593999997E+02  0.45594000000E+02  0.51100000000E-03 0.  1.
    9900012    2    1    2    0    0  0.22120481133E+02 -0.33375656993E+02  0.70650902135E+01  0.50528860007E+02  0.30000000476E+02 0.  0.
         12    1    1    2    0    0 -0.22120481133E+02  0.33375656993E+02 -0.70650902135E+01  0.40659139993E+02  0.00000000000E+00 0. -1.
         11    1    3    3    0    0  0.34700758187E+01 -0.16341577297E+02  0.58404281486E+01  0.17697434163E+02  0.51100000000E-03 0. -1.
        -11    1    3    3    0    0  0.15031453707E+02  0.28977250019E+00  0.16795095458E+01  0.15127766564E+02  0.51100000000E-03 0.  1.
        -12    1    3    3    0    0  0.36189516079E+01 -0.17323852196E+02 -0.45484748085E+00  0.17703659280E+02  0.00000000000E+00 0.  1.
</event>
<event>
 7    1  0.2942034E-011  0.5052886E+02  0.7816164E-02  0.1300439E+00
        -11   -1    0    0    0    0  0.00000000000E+00  0.00000000000E+00  0.45593999997E+02  0.45594000000E+02  0.51100000000E-03 0.  1.
         11   -1    0    0    0    0 -0.00000000000E+00 -0.00000000000E+00 -0.45593999997E+02  0.45594000000E+02  0.51100000000E-03 0. -1.
    9900012    2    1    2    0    0 -0.15679970153E+02  0.18696753300E+02  0.32522845936E+02  0.50528861350E+02  0.30000004561E+02 0.  0.
         12    1    1    2    0    0  0.15679970153E+02 -0.18696753300E+02 -0.32522845936E+02  0.40659138650E+02  0.00000000000E+00 0. -1.
         11    1    3    3    0    0  0.54583915240E+00  0.19332380265E+02  0.10159493942E+02  0.21846148048E+02  0.51100000000E-03 0. -1.
        -11    1    3    3    0    0 -0.89492862313E+01 -0.19003214471E+01  0.66189395586E+01  0.11292090453E+02  0.51100000000E-03 0.  1.
         12    1    3    3    0    0 -0.72765230745E+01  0.12646944817E+01  0.15744412435E+02  0.17390622850E+02  0.00000000000E+00 0. -1.
</event>
<event>
 7    1  0.2942034E-011  0.5052886E+02  0.7816164E-02  0.1300439E+00
        -11   -1    0    0    0    0  0.00000000000E+00  0.00000000000E+00  0.45593999997E+02  0.45594000000E+02  0.51100000000E-03 0.  1.
         11   -1    0    0    0    0 -0.00000000000E+00 -0.00000000000E+00 -0.45593999997E+02  0.45594000000E+02  0.51100000000E-03 0. -1.
    9900012    2    1    2    0    0  0.16193478798E+02 -0.46300698186E+01  0.37006746141E+02  0.50528861273E+02  0.30000004324E+02 0.  0.
         12    1    1    2    0    0 -0.16193478798E+02  0.46300698186E+01 -0.37006746141E+02  0.40659138727E+02  0.00000000000E+00 0. -1.
         11    1    3    3    0    0  0.10533422573E+01 -0.80179328645E+01  0.34317380427E+01  0.87848508005E+01  0.51100000000E-03 0. -1.
        -11    1    3    3    0    0  0.13655579825E+02  0.83008140474E-01  0.35212818233E+02  0.37768033029E+02  0.51100000000E-03 0.  1.
         12    1    3    3    0    0  0.14845567152E+01  0.33048549055E+01 -0.16378101350E+01  0.39759774428E+01  0.00000000000E+00 0. -1.
</event>
<event>
 7    1  0.2942034E-011  0.5052891E+02  0.7816164E-02  0.1300439E+00
        -11   -1    0    0    0    0  0.00000000000E+00  0.00000000000E+00  0.45593999997E+02  0.45594000000E+02  0.51100000000E-03 0.  1.
         11   -1    0    0    0    0 -0.00000000000E+00 -0.00000000000E+00 -0.45593999997E+02  0.45594000000E+02  0.51100000000E-03 0. -1.
    9900012    2    1    2    0    0  0.32970630901E+02 -0.23512125108E+02  0.36440696406E+01  0.50528907872E+02  0.30000145968E+02 0.  0.
         12    1    1    2    0    0 -0.32970630901E+02  0.23512125108E+02 -0.36440696406E+01  0.40659092128E+02  0.00000000000E+00 0. -1.
         11    1    3    3    0    0 -0.10256764770E+01 -0.15438604567E+01  0.77871205865E+01  0.80046714258E+01  0.51100000000E-03 0. -1.
        -11    1    3    3    0    0  0.84917880575E+01 -0.11076454500E+02  0.20542012758E+01  0.14107375796E+02  0.51100000000E-03 0.  1.
         12    1    3    3    0    0  0.25504519320E+02 -0.10891810151E+02 -0.61972522217E+01  0.28416860651E+02  0.00000000000E+00 0. -1.
</event>
<event>
 7    1  0.2942034E-011  0.5052886E+02  0.7816164E-02  0.1300439E+00
        -11   -1    0    0    0    0  0.00000000000E+00  0.00000000000E+00  0.45593999997E+02  0.45594000000E+02  0.51100000000E-03 0. -1.
         11   -1    0    0    0    0 -0.00000000000E+00 -0.00000000000E+00 -0.45593999997E+02  0.45594000000E+02  0.51100000000E-03 0.  1.
    9900012    2    1    2    0    0 -0.18554201619E+02  0.20653569845E+02 -0.29704166734E+02  0.50528857530E+02  0.29999992948E+02 0.  0.
         12    1    1    2    0    0  0.18554201619E+02 -0.20653569845E+02  0.29704166734E+02  0.40659142470E+02  0.00000000000E+00 0. -1.
         11    1    3    3    0    0 -0.18033440813E+02  0.91203651440E+01 -0.19701312319E+02  0.28222823304E+02  0.51100000000E-03 0. -1.
        -11    1    3    3    0    0 -0.51875067170E+01  0.11848142287E+02 -0.20724115983E+01  0.13098992010E+02  0.51100000000E-03 0.  1.
         12    1    3    3    0    0  0.46667459113E+01 -0.31493758624E+00 -0.79304428168E+01  0.92070422153E+01  0.00000000000E+00 0. -1.
</event>
<event>
 7    1  0.2942034E-011  0.5052886E+02  0.7816164E-02  0.1300439E+00
        -11   -1    0    0    0    0  0.00000000000E+00  0.00000000000E+00  0.45593999997E+02  0.45594000000E+02  0.51100000000E-03 0.  1.
         11   -1    0    0    0    0 -0.00000000000E+00 -0.00000000000E+00 -0.45593999997E+02  0.45594000000E+02  0.51100000000E-03 0. -1.
    9900012    2    1    2    0    0 -0.95427257106E+01  0.39351237985E+02  0.36853704625E+01  0.50528862031E+02  0.30000006631E+02 0.  0.
         12    1    1    2    0    0  0.95427257106E+01 -0.39351237985E+02 -0.36853704625E+01  0.40659137969E+02  0.00000000000E+00 0. -1.
         11    1    3    3    0    0 -0.65310187488E+01  0.76419629045E+00  0.47381603163E+01  0.81048359213E+01  0.51100000000E-03 0. -1.
        -11    1    3    3    0    0 -0.72092686437E+01  0.33867452113E+02 -0.49858768548E+01  0.34983379415E+02  0.51100000000E-03 0.  1.
         12    1    3    3    0    0  0.41975616820E+01  0.47195895813E+01  0.39330870010E+01  0.74406466956E+01  0.00000000000E+00 0. -1.
</event>
<event>
 7    1  0.2942034E-011  0.5052886E+02  0.7816164E-02  0.1300439E+00
        -11   -1    0    0    0    0  0.00000000000E+00  0.00000000000E+00  0.45593999997E+02  0.45594000000E+02  0.51100000000E-03 0.  1.
         11   -1    0    0    0    0 -0.00000000000E+00 -0.00000000000E+00 -0.45593999997E+02  0.45594000000E+02  0.51100000000E-03 0. -1.
    9900012    2    1    2    0    0  0.40589654411E+02 -0.11694890980E+01 -0.20682598263E+01  0.50528862667E+02  0.30000008563E+02 0.  0.
         12    1    1    2    0    0 -0.40589654411E+02  0.11694890980E+01  0.20682598263E+01  0.40659137333E+02  0.00000000000E+00 0. -1.
         11    1    3    3    0    0  0.94084197189E+01 -0.12201140486E+02 -0.27277633654E+01  0.15646944878E+02  0.51100000000E-03 0.  1.
        -11    1    3    3    0    0  0.17048095944E+02  0.11574149855E+02  0.18481931651E+01  0.20688507399E+02  0.51100000000E-03 0. -1.
        -12    1    3    3    0    0  0.14133138749E+02 -0.54249846660E+00 -0.11886896261E+01  0.14193410390E+02  0.00000000000E+00 0.  1.
</event>
<event>
 7    1  0.2942034E-011  0.5052884E+02  0.7816164E-02  0.1300439E+00
        -11   -1    0    0    0    0  0.00000000000E+00  0.00000000000E+00  0.45593999997E+02  0.45594000000E+02  0.51100000000E-03 0.  1.
         11   -1    0    0    0    0 -0.00000000000E+00 -0.00000000000E+00 -0.45593999997E+02  0.45594000000E+02  0.51100000000E-03 0. -1.
    9900012    2    1    2    0    0  0.19916906606E+02 -0.30387729752E+02  0.18250199591E+02  0.50528842688E+02  0.29999947836E+02 0.  0.
         12    1    1    2    0    0 -0.19916906606E+02  0.30387729752E+02 -0.18250199591E+02  0.40659157312E+02  0.00000000000E+00 0. -1.
         11    1    3    3    0    0  0.81974951589E+01 -0.86270423143E+01  0.13345252251E+02  0.17880731078E+02  0.51100000000E-03 0.  1.
        -11    1    3    3    0    0  0.11904752726E+02 -0.14256920410E+02 -0.59031607670E+01  0.19489233549E+02  0.51100000000E-03 0. -1.
        -12    1    3    3    0    0 -0.18534127929E+00 -0.75037670276E+01  0.10808108106E+02  0.13158878061E+02  0.00000000000E+00 0.  1.
</event>
<event>
 7    1  0.2942034E-011  0.5052886E+02  0.7816164E-02  0.1300439E+00
        -11   -1    0    0    0    0  0.00000000000E+00  0.00000000000E+00  0.45593999997E+02  0.45594000000E+02  0.51100000000E-03 0.  1.
         11   -1    0    0    0    0 -0.00000000000E+00 -0.00000000000E+00 -0.45593999997E+02  0.45594000000E+02  0.51100000000E-03 0. -1.
    9900012    2    1    2    0    0  0.10797858155E+02  0.66775694087E+01  0.38626179276E+02  0.50528863273E+02  0.30000010405E+02 0.  0.
         12    1    1    2    0    0 -0.10797858155E+02 -0.66775694087E+01 -0.38626179276E+02  0.40659136727E+02  0.00000000000E+00 0. -1.
         11    1    3    3    0    0 -0.74271357787E+01  0.56604153648E+01  0.21678926569E+02  0.23604628898E+02  0.51100000000E-03 0. -1.
        -11    1    3    3    0    0  0.11078470913E+02 -0.32141037837E+01  0.13934226544E+02  0.18089379496E+02  0.51100000000E-03 0.  1.
         12    1    3    3    0    0  0.71465230201E+01  0.42312578277E+01  0.30130261627E+01  0.88348548793E+01  0.00000000000E+00 0. -1.
</event>
<event>
 7    1  0.2942034E-011  0.5052886E+02  0.7816164E-02  0.1300439E+00
        -11   -1    0    0    0    0  0.00000000000E+00  0.00000000000E+00  0.45593999997E+02  0.45594000000E+02  0.51100000000E-03 0.  1.
         11   -1    0    0    0    0 -0.00000000000E+00 -0.00000000000E+00 -0.45593999997E+02  0.45594000000E+02  0.51100000000E-03 0. -1.
    9900012    2    1    2    0    0  0.27357546093E+02  0.12158791407E+02  0.27511703743E+02  0.50528863517E+02  0.30000011147E+02 0.  0.
         12    1    1    2    0    0 -0.27357546093E+02 -0.12158791407E+02 -0.27511703743E+02  0.40659136483E+02  0.00000000000E+00 0. -1.
         11    1    3    3    0    0 -0.15244755989E+01  0.10995322314E+02  0.14592379263E+02  0.18334630387E+02  0.51100000000E-03 0. -1.
        -11    1    3    3    0    0  0.16408690550E+02  0.16208249190E+00  0.41873422696E+01  0.16935324970E+02  0.51100000000E-03 0.  1.
         12    1    3    3    0    0  0.12473331142E+02  0.10013866011E+01  0.87319822108E+01  0.15258908160E+02  0.00000000000E+00 0. -1.
</event>
<event>
 7    1  0.2942034E-011  0.5052886E+02  0.7816164E-02  0.1300439E+00
        -11   -1    0    0    0    0  0.00000000000E+00  0.00000000000E+00  0.45593999997E+02  0.45594000000E+02  0.51100000000E-03 0. -1.
         11   -1    0    0    0    0 -0.00000000000E+00 -0.00000000000E+00 -0.45593999997E+02  0.45594000000E+02  0.51100000000E-03 0.  1.
    9900012    2    1    2    0    0 -0.25239903247E+02 -0.31261423981E+02 -0.62318631985E+01  0.50528862477E+02  0.30000007984E+02 0.  0.
         12    1    1    2    0    0  0.25239903247E+02  0.31261423981E+02  0.62318631985E+01  0.40659137523E+02  0.00000000000E+00 0. -1.
         11    1    3    3    0    0 -0.55897726600E+01 -0.26246037261E+02 -0.41722538441E+01  0.27157093598E+02  0.51100000000E-03 0. -1.
        -11    1    3    3    0    0 -0.15566693608E+02 -0.57224137550E+01 -0.60156924259E+01  0.17642463680E+02  0.51100000000E-03 0.  1.
         12    1    3    3    0    0 -0.40834369785E+01  0.70702703561E+00  0.39560830714E+01  0.57293051983E+01  0.00000000000E+00 0. -1.
</event>
<event>
 7    1  0.2942034E-011  0.5052886E+02  0.7816164E-02  0.1300439E+00
        -11   -1    0    0    0    0  0.00000000000E+00  0.00000000000E+00  0.45593999997E+02  0.45594000000E+02  0.51100000000E-03 0.  1.
         11   -1    0    0    0    0 -0.00000000000E+00 -0.00000000000E+00 -0.45593999997E+02  0.45594000000E+02  0.51100000000E-03 0. -1.
    9900012    2    1    2    0    0 -0.17581105905E+02  0.28453868053E+01  0.36550984335E+02  0.50528856296E+02  0.29999989198E+02 0.  0.
         12    1    1    2    0    0  0.17581105905E+02 -0.28453868053E+01 -0.36550984335E+02  0.40659143704E+02  0.00000000000E+00 0. -1.
         11    1    3    3    0    0  0.11938066109E+01 -0.94026918825E+01  0.35865980044E+01  0.10134074914E+02  0.51100000000E-03 0. -1.
        -11    1    3    3    0    0 -0.11533897775E+02  0.10106047187E+02  0.18103929619E+02  0.23725835191E+02  0.51100000000E-03 0.  1.
         12    1    3    3    0    0 -0.72410147412E+01  0.21420315007E+01  0.14860456711E+02  0.16668946190E+02  0.00000000000E+00 0. -1.
</event>
<event>
 7    1  0.2942034E-011  0.5052886E+02  0.7816164E-02  0.1300439E+00
        -11   -1    0    0    0    0  0.00000000000E+00  0.00000000000E+00  0.45593999997E+02  0.45594000000E+02  0.51100000000E-03 0.  1.
         11   -1    0    0    0    0 -0.00000000000E+00 -0.00000000000E+00 -0.45593999997E+02  0.45594000000E+02  0.51100000000E-03 0. -1.
    9900012    2    1    2    0    0  0.35056613764E+02  0.41710880640E+01  0.20169314796E+02  0.50528863221E+02  0.30000010247E+02 0.  0.
         12    1    1    2    0    0 -0.35056613764E+02 -0.41710880640E+01 -0.20169314796E+02  0.40659136779E+02  0.00000000000E+00 0. -1.
         11    1    3    3    0    0  0.11275981466E+02 -0.47207241047E+01 -0.48078742988E+01  0.13135777466E+02  0.51100000000E-03 0. -1.
        -11    1    3    3    0    0  0.13052629340E+02  0.97110332481E+01  0.10528387704E+02  0.19378396408E+02  0.51100000000E-03 0.  1.
        -12    1    3    3    0    0  0.10728002958E+02 -0.81922107941E+00  0.14448801392E+02  0.18014689348E+02  0.00000000000E+00 0.  1.
</event>
<event>
 7    1  0.2942034E-011  0.5052886E+02  0.7816164E-02  0.1300439E+00
        -11   -1    0    0    0    0  0.00000000000E+00  0.00000000000E+00  0.45593999997E+02  0.45594000000E+02  0.51100000000E-03 0. -1.
         11   -1    0    0    0    0 -0.00000000000E+00 -0.00000000000E+00 -0.45593999997E+02  0.45594000000E+02  0.51100000000E-03 0.  1.
    9900012    2    1    2    0    0 -0.15347497389E+02 -0.33381485480E+02 -0.17415412479E+02  0.50528857846E+02  0.29999993908E+02 0.  0.
         12    1    1    2    0    0  0.15347497389E+02  0.33381485480E+02  0.17415412479E+02  0.40659142154E+02  0.00000000000E+00 0. -1.
         11    1    3    3    0    0 -0.86557762360E+01 -0.33965187105E+02 -0.72736683489E+01  0.35797522943E+02  0.51100000000E-03 0.  1.
        -11    1    3    3    0    0 -0.52375929016E+01 -0.35329293174E+01 -0.60848271930E+01  0.87714930995E+01  0.51100000000E-03 0. -1.
         12    1    3    3    0    0 -0.14541282510E+01  0.41166309430E+01 -0.40569169367E+01  0.59598418034E+01  0.00000000000E+00 0. -1.
</event>
<event>
 7    1  0.2942034E-011  0.5052885E+02  0.7816164E-02  0.1300439E+00
        -11   -1    0    0    0    0  0.00000000000E+00  0.00000000000E+00  0.45593999997E+02  0.45594000000E+02  0.51100000000E-03 0.  1.
         11   -1    0    0    0    0 -0.00000000000E+00 -0.00000000000E+00 -0.45593999997E+02  0.45594000000E+02  0.51100000000E-03 0. -1.
    9900012    2    1    2    0    0 -0.34446004522E+02  0.21543791490E+02  0.15823738451E+01  0.50528854826E+02  0.29999984730E+02 0.  0.
         12    1    1    2    0    0  0.34446004522E+02 -0.21543791490E+02 -0.15823738451E+01  0.40659145174E+02  0.00000000000E+00 0. -1.
         11    1    3    3    0    0 -0.38766194259E+01  0.31860429229E+01 -0.65777874441E+01  0.82732300585E+01  0.51100000000E-03 0. -1.
        -11    1    3    3    0    0 -0.28880448739E+02  0.22313226968E+02  0.95692626229E+01  0.37729712488E+02  0.51100000000E-03 0.  1.
        -12    1    3    3    0    0 -0.16889363570E+01 -0.39554784000E+01 -0.14091013337E+01  0.45259122793E+01  0.00000000000E+00 0.  1.
</event>
<event>
 7    1  0.2942034E-011  0.5052886E+02  0.7816164E-02  0.1300439E+00
        -11   -1    0    0    0    0  0.00000000000E+00  0.00000000000E+00  0.45593999997E+02  0.45594000000E+02  0.51100000000E-03 0.  1.
         11   -1    0    0    0    0 -0.00000000000E+00 -0.00000000000E+00 -0.45593999997E+02  0.45594000000E+02  0.51100000000E-03 0. -1.
    9900012    2    1    2    0    0  0.70967250372E+01  0.23807814052E+02 -0.32186804064E+02  0.50528857460E+02  0.29999992736E+02 0.  0.
         12    1    1    2    0    0 -0.70967250372E+01 -0.23807814052E+02  0.32186804064E+02  0.40659142540E+02  0.00000000000E+00 0. -1.
         11    1    3    3    0    0 -0.60359276715E+01  0.14182041291E+02 -0.20108982616E+02  0.25336414508E+02  0.51100000000E-03 0. -1.
        -11    1    3    3    0    0  0.90459927483E+01  0.12976583546E+02 -0.12086922428E+02  0.19907671872E+02  0.51100000000E-03 0.  1.
         12    1    3    3    0    0  0.40866599604E+01 -0.33508107845E+01  0.91009790263E-02  0.52847710805E+01  0.00000000000E+00 0. -1.
</event>
<event>
 7    1  0.2942034E-011  0.5052885E+02  0.7816164E-02  0.1300439E+00
        -11   -1    0    0    0    0  0.00000000000E+00  0.00000000000E+00  0.45593999997E+02  0.45594000000E+02  0.51100000000E-03 0. -1.
         11   -1    0    0    0    0 -0.00000000000E+00 -0.00000000000E+00 -0.45593999997E+02  0.45594000000E+02  0.51100000000E-03 0.  1.
    9900012    2    1    2    0    0  0.25600914359E+02 -0.29341272995E+02 -0.11698274362E+02  0.50528846787E+02  0.29999960293E+02 0.  0.
         12    1    1    2    0    0 -0.25600914359E+02  0.29341272995E+02  0.11698274362E+02  0.40659153213E+02  0.00000000000E+00 0. -1.
         11    1    3    3    0    0 -0.13089132437E+01 -0.18263532766E+01 -0.41523007941E+01  0.47212733787E+01  0.51100000000E-03 0. -1.
        -11    1    3    3    0    0  0.19368243838E+02 -0.31155634616E+02 -0.74426893265E+01  0.37432553511E+02  0.51100000000E-03 0.  1.
        -12    1    3    3    0    0  0.75415837641E+01  0.36407148974E+01 -0.10328424104E+00  0.83750198967E+01  0.00000000000E+00 0.  1.
</event>
<event>
 7    1  0.2942034E-011  0.5052887E+02  0.7816164E-02  0.1300439E+00
        -11   -1    0    0    0    0  0.00000000000E+00  0.00000000000E+00  0.45593999997E+02  0.45594000000E+02  0.51100000000E-03 0.  1.
         11   -1    0    0    0    0 -0.00000000000E+00 -0.00000000000E+00 -0.45593999997E+02  0.45594000000E+02  0.51100000000E-03 0. -1.
    9900012    2    1    2    0    0  0.18177122155E+02 -0.29379842739E+02  0.21437866997E+02  0.50528867316E+02  0.30000022695E+02 0.  0.
         12    1    1    2    0    0 -0.18177122155E+02  0.29379842739E+02 -0.21437866997E+02  0.40659132684E+02  0.00000000000E+00 0. -1.
         11    1    3    3    0    0  0.76527431552E+01 -0.68542236470E+01 -0.29650579388E+01  0.10692821351E+02  0.51100000000E-03 0. -1.
        -11    1    3    3    0    0  0.15210620138E+02 -0.12464464568E+02  0.19526660815E+02  0.27713107455E+02  0.51100000000E-03 0.  1.
        -12    1    3    3    0    0 -0.46862411382E+01 -0.10061154524E+02  0.48762641208E+01  0.12122938511E+02  0.00000000000E+00 0.  1.
</event>
<event>
 7    1  0.2942034E-011  0.5052881E+02  0.7816164E-02  0.1300439E+00
        -11   -1    0    0    0    0  0.00000000000E+00  0.00000000000E+00  0.45593999997E+02  0.45594000000E+02  0.51100000000E-03 0.  1.
         11   -1    0    0    0    0 -0.00000000000E+00 -0.00000000000E+00 -0.45593999997E+02  0.45594000000E+02  0.51100000000E-03 0. -1.
    9900012    2    1    2    0    0 -0.35030662663E+02  0.20032010237E+02 -0.49740491470E+01  0.50528807612E+02  0.29999841216E+02 0.  0.
         12    1    1    2    0    0  0.35030662663E+02 -0.20032010237E+02  0.49740491470E+01  0.40659192388E+02  0.00000000000E+00 0. -1.
         11    1    3    3    0    0 -0.52366048932E+01 -0.27930677119E+01 -0.10061809024E+02  0.11681748977E+02  0.51100000000E-03 0. -1.
        -11    1    3    3    0    0 -0.23929001227E+02  0.16689690494E+02  0.45630747560E+00  0.29177921195E+02  0.51100000000E-03 0.  1.
        -12    1    3    3    0    0 -0.58650565432E+01  0.61353874554E+01  0.46314524017E+01  0.96691374400E+01  0.00000000000E+00 0.  1.
</event>
<event>
 7    1  0.2942034E-011  0.5052885E+02  0.7816164E-02  0.1300439E+00
        -11   -1    0    0    0    0  0.00000000000E+00  0.00000000000E+00  0.45593999997E+02  0.45594000000E+02  0.51100000000E-03 0.  1.
         11   -1    0    0    0    0 -0.00000000000E+00 -0.00000000000E+00 -0.45593999997E+02  0.45594000000E+02  0.51100000000E-03 0. -1.
    9900012    2    1    2    0    0  0.19320381325E+02  0.21136745436E+02  0.28863938847E+02  0.50528854560E+02  0.29999983919E+02 0.  0.
         12    1    1    2    0    0 -0.19320381325E+02 -0.21136745436E+02 -0.28863938847E+02  0.40659145440E+02  0.00000000000E+00 0. -1.
         11    1    3    3    0    0 -0.11625300128E+01 -0.38481263253E+01  0.11218863756E+02  0.11917317503E+02  0.51100000000E-03 0. -1.
        -11    1    3    3    0    0  0.19343489206E+02  0.20990533786E+02  0.10630671885E+02  0.30459551347E+02  0.51100000000E-03 0.  1.
        -12    1    3    3    0    0  0.11394221318E+01  0.39943379755E+01  0.70144032068E+01  0.81519857093E+01  0.00000000000E+00 0.  1.
</event>
<event>
 7    1  0.2942034E-011  0.5052885E+02  0.7816164E-02  0.1300439E+00
        -11   -1    0    0    0    0  0.00000000000E+00  0.00000000000E+00  0.45593999997E+02  0.45594000000E+02  0.51100000000E-03 0.  1.
         11   -1    0    0    0    0 -0.00000000000E+00 -0.00000000000E+00 -0.45593999997E+02  0.45594000000E+02  0.51100000000E-03 0. -1.
    9900012    2    1    2    0    0  0.17784864586E+02  0.28656033161E+02  0.22708954890E+02  0.50528852480E+02  0.29999977599E+02 0.  0.
         12    1    1    2    0    0 -0.17784864586E+02 -0.28656033161E+02 -0.22708954890E+02  0.40659147520E+02  0.00000000000E+00 0. -1.
         11    1    3    3    0    0 -0.12757181587E+01 -0.17100367555E+01  0.44485657448E+01  0.49337024608E+01  0.51100000000E-03 0. -1.
        -11    1    3    3    0    0  0.14984532567E+02  0.47116389075E+01  0.54030705707E+01  0.16611108611E+02  0.51100000000E-03 0.  1.
        -12    1    3    3    0    0  0.40760501779E+01  0.25654431009E+02  0.12857318575E+02  0.28984041408E+02  0.00000000000E+00 0.  1.
</event>
<event>
 7    1  0.2942034E-011  0.5052885E+02  0.7816164E-02  0.1300439E+00
        -11   -1    0    0    0    0  0.00000000000E+00  0.00000000000E+00  0.45593999997E+02  0.45594000000E+02  0.51100000000E-03 0. -1.
         11   -1    0    0    0    0 -0.00000000000E+00 -0.00000000000E+00 -0.45593999997E+02  0.45594000000E+02  0.51100000000E-03 0.  1.
    9900012    2    1    2    0    0  0.18083774804E+02  0.18466129049E+02 -0.31387025615E+02  0.50528853303E+02  0.29999980099E+02 0.  0.
         12    1    1    2    0    0 -0.18083774804E+02 -0.18466129049E+02  0.31387025615E+02  0.40659146697E+02  0.00000000000E+00 0. -1.
         11    1    3    3    0    0 -0.22702519693E+01 -0.10648903660E+01 -0.13078685264E+02  0.13316908199E+02  0.51100000000E-03 0.  1.
        -11    1    3    3    0    0  0.17365026189E+02  0.18410952183E+02 -0.81874784455E+01  0.26599663501E+02  0.51100000000E-03 0. -1.
         12    1    3    3    0    0  0.29890005845E+01  0.11200672319E+01 -0.10120861905E+02  0.10612281602E+02  0.00000000000E+00 0. -1.
</event>
<event>
 7    1  0.2942034E-011  0.5052886E+02  0.7816164E-02  0.1300439E+00
        -11   -1    0    0    0    0  0.00000000000E+00  0.00000000000E+00  0.45593999997E+02  0.45594000000E+02  0.51100000000E-03 0.  1.
         11   -1    0    0    0    0 -0.00000000000E+00 -0.00000000000E+00 -0.45593999997E+02  0.45594000000E+02  0.51100000000E-03 0. -1.
    9900012    2    1    2    0    0 -0.13484532395E+02 -0.37822816882E+02  0.63849550753E+01  0.50528859059E+02  0.29999997595E+02 0.  0.
         12    1    1    2    0    0  0.13484532395E+02  0.37822816882E+02 -0.63849550753E+01  0.40659140941E+02  0.00000000000E+00 0. -1.
         11    1    3    3    0    0 -0.17643510144E+02 -0.24773456922E+02 -0.37859588819E+01  0.30648835263E+02  0.51100000000E-03 0. -1.
        -11    1    3    3    0    0  0.39792187002E+01 -0.14023288037E+02  0.62924030199E+01  0.15877062853E+02  0.51100000000E-03 0.  1.
         12    1    3    3    0    0  0.17975904843E+00  0.97392807691E+00  0.38785109373E+01  0.40029609423E+01  0.00000000000E+00 0. -1.
</event>
<event>
 7    1  0.2942034E-011  0.5052887E+02  0.7816164E-02  0.1300439E+00
        -11   -1    0    0    0    0  0.00000000000E+00  0.00000000000E+00  0.45593999997E+02  0.45594000000E+02  0.51100000000E-03 0.  1.
         11   -1    0    0    0    0 -0.00000000000E+00 -0.00000000000E+00 -0.45593999997E+02  0.45594000000E+02  0.51100000000E-03 0. -1.
    9900012    2    1    2    0    0 -0.40536535384E+02  0.97657937083E+00  0.30001354145E+01  0.50528865470E+02  0.30000017083E+02 0.  0.
         12    1    1    2    0    0  0.40536535384E+02 -0.97657937083E+00 -0.30001354145E+01  0.40659134530E+02  0.00000000000E+00 0. -1.
         11    1    3    3    0    0  0.24211040605E+00 -0.25184113038E+01  0.65988433960E+00  0.26146626067E+01  0.51100000000E-03 0. -1.
        -11    1    3    3    0    0 -0.39525925252E+02  0.15221060936E+01  0.92479233937E+01  0.40621911099E+02  0.51100000000E-03 0.  1.
        -12    1    3    3    0    0 -0.12527205382E+01  0.19728845810E+01 -0.69076723188E+01  0.72922917646E+01  0.00000000000E+00 0.  1.
</event>
<event>
 7    1  0.2942034E-011  0.5052886E+02  0.7816164E-02  0.1300439E+00
        -11   -1    0    0    0    0  0.00000000000E+00  0.00000000000E+00  0.45593999997E+02  0.45594000000E+02  0.51100000000E-03 0.  1.
         11   -1    0    0    0    0 -0.00000000000E+00 -0.00000000000E+00 -0.45593999997E+02  0.45594000000E+02  0.51100000000E-03 0. -1.
    9900012    2    1    2    0    0 -0.30788025677E+02  0.11361972385E+02  0.24003517632E+02  0.50528858343E+02  0.29999995419E+02 0.  0.
         12    1    1    2    0    0  0.30788025677E+02 -0.11361972385E+02 -0.24003517632E+02  0.40659141657E+02  0.00000000000E+00 0. -1.
         11    1    3    3    0    0 -0.16587924540E+02  0.32423701004E+01 -0.94609639522E+00  0.16928298883E+02  0.51100000000E-03 0. -1.
        -11    1    3    3    0    0 -0.94721755488E+01  0.36527114067E+01  0.25120107784E+02  0.27093988735E+02  0.51100000000E-03 0.  1.
         12    1    3    3    0    0 -0.47279255883E+01  0.44668908781E+01 -0.17049375608E+00  0.65065707255E+01  0.00000000000E+00 0. -1.
</event>
<event>
 7    1  0.2942034E-011  0.5052886E+02  0.7816164E-02  0.1300439E+00
        -11   -1    0    0    0    0  0.00000000000E+00  0.00000000000E+00  0.45593999997E+02  0.45594000000E+02  0.51100000000E-03 0.  1.
         11   -1    0    0    0    0 -0.00000000000E+00 -0.00000000000E+00 -0.45593999997E+02  0.45594000000E+02  0.51100000000E-03 0. -1.
    9900012    2    1    2    0    0  0.51622018753E+00 -0.24412779352E+02  0.32510237790E+02  0.50528857853E+02  0.29999993930E+02 0.  0.
         12    1    1    2    0    0 -0.51622018753E+00  0.24412779352E+02 -0.32510237790E+02  0.40659142147E+02  0.00000000000E+00 0. -1.
         11    1    3    3    0    0  0.30231572650E+01 -0.11744019327E+02  0.32492240885E+01  0.12554637679E+02  0.51100000000E-03 0. -1.
        -11    1    3    3    0    0  0.35174507982E+01 -0.10522794299E+02  0.29558371600E+02  0.31572123651E+02  0.51100000000E-03 0.  1.
        -12    1    3    3    0    0 -0.60243878756E+01 -0.21459657261E+01 -0.29735789813E+00  0.64020965233E+01  0.00000000000E+00 0.  1.
</event>
<event>
 7    1  0.2942034E-011  0.5052887E+02  0.7816164E-02  0.1300439E+00
        -11   -1    0    0    0    0  0.00000000000E+00  0.00000000000E+00  0.45593999997E+02  0.45594000000E+02  0.51100000000E-03 0. -1.
         11   -1    0    0    0    0 -0.00000000000E+00 -0.00000000000E+00 -0.45593999997E+02  0.45594000000E+02  0.51100000000E-03 0.  1.
    9900012    2    1    2    0    0  0.27675359826E+02  0.14772794669E+02 -0.25865113205E+02  0.50528867140E+02  0.30000022158E+02 0.  0.
         12    1    1    2    0    0 -0.27675359826E+02 -0.14772794669E+02  0.25865113205E+02  0.40659132860E+02  0.00000000000E+00 0. -1.
         11    1    3    3    0    0  0.65947731402E+01  0.68221134850E+01 -0.17171869286E+01  0.96426654189E+01  0.51100000000E-03 0. -1.
        -11    1    3    3    0    0  0.24307511471E+02 -0.37233831678E-01 -0.18980842623E+02  0.30840377547E+02  0.51100000000E-03 0.  1.
        -12    1    3    3    0    0 -0.32269247852E+01  0.79879150153E+01 -0.51670836536E+01  0.10045824174E+02  0.00000000000E+00 0.  1.
</event>
<event>
 7    1  0.2942034E-011  0.5052887E+02  0.7816164E-02  0.1300439E+00
        -11   -1    0    0    0    0  0.00000000000E+00  0.00000000000E+00  0.45593999997E+02  0.45594000000E+02  0.51100000000E-03 0.  1.
         11   -1    0    0    0    0 -0.00000000000E+00 -0.00000000000E+00 -0.45593999997E+02  0.45594000000E+02  0.51100000000E-03 0. -1.
    9900012    2    1    2    0    0 -0.26301595285E+02  0.20655853543E+02  0.23124162208E+02  0.50528867226E+02  0.30000022419E+02 0.  0.
         12    1    1    2    0    0  0.26301595285E+02 -0.20655853543E+02 -0.23124162208E+02  0.40659132774E+02  0.00000000000E+00 0. -1.
         11    1    3    3    0    0  0.11824613989E+01  0.73725277087E+01 -0.62574090270E+00  0.74929254443E+01  0.51100000000E-03 0. -1.
        -11    1    3    3    0    0 -0.17071430852E+02 -0.21132400596E+01  0.13025514658E+02  0.21576922099E+02  0.51100000000E-03 0.  1.
        -12    1    3    3    0    0 -0.10412625832E+02  0.15396565894E+02  0.10724388453E+02  0.21459019683E+02  0.00000000000E+00 0.  1.
</event>
<event>
 7    1  0.2942034E-011  0.5052886E+02  0.7816164E-02  0.1300439E+00
        -11   -1    0    0    0    0  0.00000000000E+00  0.00000000000E+00  0.45593999997E+02  0.45594000000E+02  0.51100000000E-03 0.  1.
         11   -1    0    0    0    0 -0.00000000000E+00 -0.00000000000E+00 -0.45593999997E+02  0.45594000000E+02  0.51100000000E-03 0. -1.
    9900012    2    1    2    0    0 -0.83627603004E+01 -0.38019179223E+02  0.11737644701E+02  0.50528855250E+02  0.29999986019E+02 0.  0.
         12    1    1    2    0    0  0.83627603004E+01  0.38019179223E+02 -0.11737644701E+02  0.40659144750E+02  0.00000000000E+00 0. -1.
         11    1    3    3    0    0  0.80511560634E+01 -0.63748065070E+01 -0.16720175382E+01  0.10404562214E+02  0.51100000000E-03 0. -1.
        -11    1    3    3    0    0 -0.62942121833E+01 -0.61919205000E+01  0.85796317522E+01  0.12311257765E+02  0.51100000000E-03 0.  1.
         12    1    3    3    0    0 -0.10119704180E+02 -0.25452452216E+02  0.48300304869E+01  0.27813035271E+02  0.00000000000E+00 0. -1.
</event>
<event>
 7    1  0.2942034E-011  0.5052882E+02  0.7816164E-02  0.1300439E+00
        -11   -1    0    0    0    0  0.00000000000E+00  0.00000000000E+00  0.45593999997E+02  0.45594000000E+02  0.51100000000E-03 0.  1.
         11   -1    0    0    0    0 -0.00000000000E+00 -0.00000000000E+00 -0.45593999997E+02  0.45594000000E+02  0.51100000000E-03 0. -1.
    9900012    2    1    2    0    0  0.14507731635E+02 -0.20561547285E+02  0.31936149512E+02  0.50528817156E+02  0.29999870226E+02 0.  0.
         12    1    1    2    0    0 -0.14507731635E+02  0.20561547285E+02 -0.31936149512E+02  0.40659182844E+02  0.00000000000E+00 0. -1.
         11    1    3    3    0    0 -0.12478279527E+01 -0.38475808692E+01 -0.52240124952E+01  0.66069100157E+01  0.51100000000E-03 0. -1.
        -11    1    3    3    0    0  0.14736943108E+02 -0.14434058588E+02  0.30610409811E+02  0.36912284250E+02  0.51100000000E-03 0.  1.
         12    1    3    3    0    0  0.10186164795E+01 -0.22799078280E+01  0.65497521956E+01  0.70096228900E+01  0.00000000000E+00 0. -1.
</event>
<event>
 7    1  0.2942034E-011  0.5052885E+02  0.7816164E-02  0.1300439E+00
        -11   -1    0    0    0    0  0.00000000000E+00  0.00000000000E+00  0.45593999997E+02  0.45594000000E+02  0.51100000000E-03 0.  1.
         11   -1    0    0    0    0 -0.00000000000E+00 -0.00000000000E+00 -0.45593999997E+02  0.45594000000E+02  0.51100000000E-03 0. -1.
    9900012    2    1    2    0    0 -0.11679502663E+02 -0.51872085902E+01  0.38598557851E+02  0.50528848710E+02  0.29999966140E+02 0.  0.
         12    1    1    2    0    0  0.11679502663E+02  0.51872085902E+01 -0.38598557851E+02  0.40659151290E+02  0.00000000000E+00 0. -1.
         11    1    3    3    0    0 -0.17462406306E+01  0.36144294336E+01  0.20230499578E+02  0.20624901695E+02  0.51100000000E-03 0. -1.
        -11    1    3    3    0    0 -0.15036486102E+02 -0.21973534407E+01  0.10863183948E+02  0.18679749521E+02  0.51100000000E-03 0.  1.
        -12    1    3    3    0    0  0.51032240698E+01 -0.66042845830E+01  0.75048743253E+01  0.11224197495E+02  0.00000000000E+00 0.  1.
</event>
<event>
 7    1  0.2942034E-011  0.5052889E+02  0.7816164E-02  0.1300439E+00
        -11   -1    0    0    0    0  0.00000000000E+00  0.00000000000E+00  0.45593999997E+02  0.45594000000E+02  0.51100000000E-03 0.  1.
         11   -1    0    0    0    0 -0.00000000000E+00 -0.00000000000E+00 -0.45593999997E+02  0.45594000000E+02  0.51100000000E-03 0. -1.
    9900012    2    1    2    0    0 -0.24013734872E+02 -0.31943555292E+02  0.74908653383E+01  0.50528889696E+02  0.30000090720E+02 0.  0.
         12    1    1    2    0    0  0.24013734872E+02  0.31943555292E+02 -0.74908653383E+01  0.40659110304E+02  0.00000000000E+00 0. -1.
         11    1    3    3    0    0 -0.27977090263E+02 -0.25003607870E+02  0.70354272458E+01  0.38175846066E+02  0.51100000000E-03 0. -1.
        -11    1    3    3    0    0  0.38109396340E+01 -0.42180357505E+01  0.46542017850E+01  0.73468824002E+01  0.51100000000E-03 0.  1.
         12    1    3    3    0    0  0.15241575716E+00 -0.27219116716E+01 -0.41987636925E+01  0.50061612295E+01  0.00000000000E+00 0. -1.
</event>
<event>
 7    1  0.2942034E-011  0.5052886E+02  0.7816164E-02  0.1300439E+00
        -11   -1    0    0    0    0  0.00000000000E+00  0.00000000000E+00  0.45593999997E+02  0.45594000000E+02  0.51100000000E-03 0. -1.
         11   -1    0    0    0    0 -0.00000000000E+00 -0.00000000000E+00 -0.45593999997E+02  0.45594000000E+02  0.51100000000E-03 0.  1.
    9900012    2    1    2    0    0  0.55081158655E+01 -0.93876579108E+00 -0.40273376350E+02  0.50528862476E+02  0.30000007982E+02 0.  0.
         12    1    1    2    0    0 -0.55081158655E+01  0.93876579108E+00  0.40273376350E+02  0.40659137524E+02  0.00000000000E+00 0. -1.
         11    1    3    3    0    0  0.43083205202E+01  0.45948476911E+01 -0.32224295463E+02  0.32834120505E+02  0.51100000000E-03 0.  1.
        -11    1    3    3    0    0  0.75997054416E+01 -0.50623144379E+00 -0.40670327783E+01  0.86343817935E+01  0.51100000000E-03 0. -1.
         12    1    3    3    0    0 -0.63999100964E+01 -0.50273820384E+01 -0.39820481087E+01  0.90603601773E+01  0.00000000000E+00 0. -1.
</event>
<event>
 7    1  0.3045994E-011  0.5052887E+02  0.7816164E-02  0.1300439E+00
        -11   -1    0    0    0    0  0.00000000000E+00  0.00000000000E+00  0.45593999997E+02  0.45594000000E+02  0.51100000000E-03 0. -1.
         11   -1    0    0    0    0 -0.00000000000E+00 -0.00000000000E+00 -0.45593999997E+02  0.45594000000E+02  0.51100000000E-03 0.  1.
    9900012    2    1    2    0    0 -0.47296862280E+01 -0.35726348547E+02 -0.18826133798E+02  0.50528865404E+02  0.30000016883E+02 0.  0.
         12    1    1    2    0    0  0.47296862280E+01  0.35726348547E+02  0.18826133798E+02  0.40659134596E+02  0.00000000000E+00 0. -1.
         11    1    3    3    0    0  0.91932533629E+01 -0.10245588442E+02 -0.88238340053E+01  0.16350780921E+02  0.51100000000E-03 0.  1.
        -11    1    3    3    0    0 -0.11887240634E+02 -0.27401370935E+02 -0.88588053379E+01  0.31154775738E+02  0.51100000000E-03 0. -1.
         12    1    3    3    0    0 -0.20356989568E+01  0.19206108299E+01 -0.11434944549E+01  0.30233087455E+01  0.00000000000E+00 0. -1.
</event>
<event>
 7    1  0.2942034E-011  0.5052889E+02  0.7816164E-02  0.1300439E+00
        -11   -1    0    0    0    0  0.00000000000E+00  0.00000000000E+00  0.45593999997E+02  0.45594000000E+02  0.51100000000E-03 0.  1.
         11   -1    0    0    0    0 -0.00000000000E+00 -0.00000000000E+00 -0.45593999997E+02  0.45594000000E+02  0.51100000000E-03 0. -1.
    9900012    2    1    2    0    0  0.19016772562E+02 -0.10707526972E+02  0.34305602088E+02  0.50528891462E+02  0.30000096087E+02 0.  0.
         12    1    1    2    0    0 -0.19016772562E+02  0.10707526972E+02 -0.34305602088E+02  0.40659108538E+02  0.00000000000E+00 0. -1.
         11    1    3    3    0    0  0.82636910301E+01 -0.26781098502E+01 -0.47041580595E+00  0.86995490172E+01  0.51100000000E-03 0. -1.
        -11    1    3    3    0    0  0.15106572770E+02 -0.58225434923E+01  0.32772288681E+02  0.36553159361E+02  0.51100000000E-03 0.  1.
        -12    1    3    3    0    0 -0.43534912383E+01 -0.22068736291E+01  0.20037292124E+01  0.52761830838E+01  0.00000000000E+00 0.  1.
</event>
<event>
 7    1  0.2942034E-011  0.5052886E+02  0.7816164E-02  0.1300439E+00
        -11   -1    0    0    0    0  0.00000000000E+00  0.00000000000E+00  0.45593999997E+02  0.45594000000E+02  0.51100000000E-03 0. -1.
         11   -1    0    0    0    0 -0.00000000000E+00 -0.00000000000E+00 -0.45593999997E+02  0.45594000000E+02  0.51100000000E-03 0.  1.
    9900012    2    1    2    0    0 -0.25820365192E+02 -0.23755068379E+02 -0.20546804984E+02  0.50528859240E+02  0.29999998145E+02 0.  0.
         12    1    1    2    0    0  0.25820365192E+02  0.23755068379E+02  0.20546804984E+02  0.40659140760E+02  0.00000000000E+00 0. -1.
         11    1    3    3    0    0 -0.10887631940E+02 -0.71429265680E+01  0.26285405039E+01  0.13284244602E+02  0.51100000000E-03 0. -1.
        -11    1    3    3    0    0 -0.17135346616E+02 -0.19117000813E+02 -0.21623765447E+02  0.33565861468E+02  0.51100000000E-03 0.  1.
        -12    1    3    3    0    0  0.22026133637E+01  0.25048590028E+01 -0.15515800413E+01  0.36787531690E+01  0.00000000000E+00 0.  1.
</event>
<event>
 7    1  0.2942034E-011  0.5052885E+02  0.7816164E-02  0.1300439E+00
        -11   -1    0    0    0    0  0.00000000000E+00  0.00000000000E+00  0.45593999997E+02  0.45594000000E+02  0.51100000000E-03 0.  1.
         11   -1    0    0    0    0 -0.00000000000E+00 -0.00000000000E+00 -0.45593999997E+02  0.45594000000E+02  0.51100000000E-03 0. -1.
    9900012    2    1    2    0    0 -0.45606221222E+01  0.31833954258E+02  0.24879035566E+02  0.50528851847E+02  0.29999975674E+02 0.  0.
         12    1    1    2    0    0  0.45606221222E+01 -0.31833954258E+02 -0.24879035566E+02  0.40659148153E+02  0.00000000000E+00 0. -1.
         11    1    3    3    0    0 -0.26923099190E+01 -0.19680480075E+01 -0.17517188159E+01  0.37669967788E+01  0.51100000000E-03 0. -1.
        -11    1    3    3    0    0  0.28857014142E+00  0.29701304068E+02  0.29039616000E+02  0.41539740415E+02  0.51100000000E-03 0.  1.
        -12    1    3    3    0    0 -0.21568823446E+01  0.41006981973E+01 -0.24088616181E+01  0.52221146530E+01  0.00000000000E+00 0.  1.
</event>
<event>
 7    1  0.2942034E-011  0.5052883E+02  0.7816164E-02  0.1300439E+00
        -11   -1    0    0    0    0  0.00000000000E+00  0.00000000000E+00  0.45593999997E+02  0.45594000000E+02  0.51100000000E-03 0.  1.
         11   -1    0    0    0    0 -0.00000000000E+00 -0.00000000000E+00 -0.45593999997E+02  0.45594000000E+02  0.51100000000E-03 0. -1.
    9900012    2    1    2    0    0 -0.36631836148E+02 -0.16836708597E+02 -0.52727767357E+01  0.50528826983E+02  0.29999900096E+02 0.  0.
         12    1    1    2    0    0  0.36631836148E+02  0.16836708597E+02  0.52727767357E+01  0.40659173017E+02  0.00000000000E+00 0. -1.
         11    1    3    3    0    0 -0.17139152815E+02 -0.80098761299E+01  0.65926469463E+01  0.20034262373E+02  0.51100000000E-03 0. -1.
        -11    1    3    3    0    0 -0.17466654481E+02 -0.12095843000E+02 -0.14597043161E+02  0.25777259473E+02  0.51100000000E-03 0.  1.
         12    1    3    3    0    0 -0.20260288522E+01  0.32690105328E+01  0.27316194786E+01  0.47173051363E+01  0.00000000000E+00 0. -1.
</event>
<event>
 7    1  0.2942034E-011  0.5052886E+02  0.7816164E-02  0.1300439E+00
        -11   -1    0    0    0    0  0.00000000000E+00  0.00000000000E+00  0.45593999997E+02  0.45594000000E+02  0.51100000000E-03 0.  1.
         11   -1    0    0    0    0 -0.00000000000E+00 -0.00000000000E+00 -0.45593999997E+02  0.45594000000E+02  0.51100000000E-03 0. -1.
    9900012    2    1    2    0    0  0.14086123095E+02 -0.38378513972E+01  0.37947570437E+02  0.50528855035E+02  0.29999985366E+02 0.  0.
         12    1    1    2    0    0 -0.14086123095E+02  0.38378513972E+01 -0.37947570437E+02  0.40659144965E+02  0.00000000000E+00 0. -1.
         11    1    3    3    0    0  0.16208147192E+02  0.63658365646E+01  0.31668459283E+02  0.36140271501E+02  0.51100000000E-03 0. -1.
        -11    1    3    3    0    0 -0.32210191482E+01 -0.38496972253E+01  0.61507872946E+01  0.79389745990E+01  0.51100000000E-03 0.  1.
         12    1    3    3    0    0  0.10989950507E+01 -0.63539907364E+01  0.12832385919E+00  0.64496089349E+01  0.00000000000E+00 0. -1.
</event>
<event>
 7    1  0.2942034E-011  0.5052888E+02  0.7816164E-02  0.1300439E+00
        -11   -1    0    0    0    0  0.00000000000E+00  0.00000000000E+00  0.45593999997E+02  0.45594000000E+02  0.51100000000E-03 0. -1.
         11   -1    0    0    0    0 -0.00000000000E+00 -0.00000000000E+00 -0.45593999997E+02  0.45594000000E+02  0.51100000000E-03 0.  1.
    9900012    2    1    2    0    0 -0.37871211756E+02  0.14217534305E+02 -0.40984267270E+01  0.50528879704E+02  0.30000060349E+02 0.  0.
         12    1    1    2    0    0  0.37871211756E+02 -0.14217534305E+02  0.40984267270E+01  0.40659120296E+02  0.00000000000E+00 0. -1.
         11    1    3    3    0    0 -0.13433065317E+02  0.63717259376E+01 -0.13745515170E+02  0.20248094300E+02  0.51100000000E-03 0. -1.
        -11    1    3    3    0    0 -0.10179998616E+02  0.37643957991E+01  0.10918800116E+02  0.15395559222E+02  0.51100000000E-03 0.  1.
        -12    1    3    3    0    0 -0.14258147823E+02  0.40814125688E+01 -0.12717116725E+01  0.14885226182E+02  0.00000000000E+00 0.  1.
</event>
<event>
 7    1  0.2942034E-011  0.5052886E+02  0.7816164E-02  0.1300439E+00
        -11   -1    0    0    0    0  0.00000000000E+00  0.00000000000E+00  0.45593999997E+02  0.45594000000E+02  0.51100000000E-03 0.  1.
         11   -1    0    0    0    0 -0.00000000000E+00 -0.00000000000E+00 -0.45593999997E+02  0.45594000000E+02  0.51100000000E-03 0. -1.
    9900012    2    1    2    0    0  0.39774435363E+02 -0.69023173283E+01  0.48495266106E+01  0.50528860790E+02  0.30000002858E+02 0.  0.
         12    1    1    2    0    0 -0.39774435363E+02  0.69023173283E+01 -0.48495266106E+01  0.40659139210E+02  0.00000000000E+00 0. -1.
         11    1    3    3    0    0  0.17545923810E+01  0.44937550431E+01  0.21377746850E+01  0.52766002005E+01  0.51100000000E-03 0. -1.
        -11    1    3    3    0    0  0.32813881023E+02 -0.92792337828E+00 -0.14060081341E+01  0.32857094953E+02  0.51100000000E-03 0.  1.
        -12    1    3    3    0    0  0.52059619589E+01 -0.10468148993E+02  0.41177600596E+01  0.12395165637E+02  0.00000000000E+00 0.  1.
</event>
<event>
 7    1  0.2942034E-011  0.5052886E+02  0.7816164E-02  0.1300439E+00
        -11   -1    0    0    0    0  0.00000000000E+00  0.00000000000E+00  0.45593999997E+02  0.45594000000E+02  0.51100000000E-03 0.  1.
         11   -1    0    0    0    0 -0.00000000000E+00 -0.00000000000E+00 -0.45593999997E+02  0.45594000000E+02  0.51100000000E-03 0. -1.
    9900012    2    1    2    0    0 -0.78858908894E+01 -0.10729017016E+02  0.38417010678E+02  0.50528858461E+02  0.29999995778E+02 0.  0.
         12    1    1    2    0    0  0.78858908894E+01  0.10729017016E+02 -0.38417010678E+02  0.40659141539E+02  0.00000000000E+00 0. -1.
         11    1    3    3    0    0 -0.10548788008E+02 -0.74742498645E+01  0.77095316149E+01  0.15052515320E+02  0.51100000000E-03 0. -1.
        -11    1    3    3    0    0 -0.56388180590E+01  0.21509709196E+01  0.19992210939E+02  0.20883281435E+02  0.51100000000E-03 0.  1.
        -12    1    3    3    0    0  0.83017151777E+01 -0.54057380710E+01  0.10715268124E+02  0.14593061706E+02  0.00000000000E+00 0.  1.
</event>
<event>
 7    1  0.2942034E-011  0.5052886E+02  0.7816164E-02  0.1300439E+00
        -11   -1    0    0    0    0  0.00000000000E+00  0.00000000000E+00  0.45593999997E+02  0.45594000000E+02  0.51100000000E-03 0.  1.
         11   -1    0    0    0    0 -0.00000000000E+00 -0.00000000000E+00 -0.45593999997E+02  0.45594000000E+02  0.51100000000E-03 0. -1.
    9900012    2    1    2    0    0  0.34628728292E+02 -0.14777711744E+02  0.15350434895E+02  0.50528862786E+02  0.30000008924E+02 0.  0.
         12    1    1    2    0    0 -0.34628728292E+02  0.14777711744E+02 -0.15350434895E+02  0.40659137214E+02  0.00000000000E+00 0. -1.
         11    1    3    3    0    0  0.52410041544E-01  0.52347872567E+01 -0.10651880641E+01  0.53423188138E+01  0.51100000000E-03 0. -1.
        -11    1    3    3    0    0  0.26762467117E+02 -0.91897757966E+01  0.14185079063E+02  0.31652773870E+02  0.51100000000E-03 0.  1.
         12    1    3    3    0    0  0.78138511339E+01 -0.10822723205E+02  0.22305438958E+01  0.13533770102E+02  0.00000000000E+00 0. -1.
</event>
<event>
 7    1  0.2942034E-011  0.5052886E+02  0.7816164E-02  0.1300439E+00
        -11   -1    0    0    0    0  0.00000000000E+00  0.00000000000E+00  0.45593999997E+02  0.45594000000E+02  0.51100000000E-03 0.  1.
         11   -1    0    0    0    0 -0.00000000000E+00 -0.00000000000E+00 -0.45593999997E+02  0.45594000000E+02  0.51100000000E-03 0. -1.
    9900012    2    1    2    0    0 -0.17026495093E+01 -0.40131616251E+02  0.63023704181E+01  0.50528861899E+02  0.30000006228E+02 0.  0.
         12    1    1    2    0    0  0.17026495093E+01  0.40131616251E+02 -0.63023704181E+01  0.40659138101E+02  0.00000000000E+00 0. -1.
         11    1    3    3    0    0  0.51187032308E+01 -0.64078911256E+00  0.36546964598E+01  0.63220676939E+01  0.51100000000E-03 0. -1.
        -11    1    3    3    0    0 -0.17857497244E+01 -0.34256452327E+02 -0.37763353982E+01  0.34510203381E+02  0.51100000000E-03 0.  1.
        -12    1    3    3    0    0 -0.50356030157E+01 -0.52343748112E+01  0.64240093565E+01  0.96965908240E+01  0.00000000000E+00 0.  1.
</event>
<event>
 7    1  0.2942034E-011  0.5052873E+02  0.7816164E-02  0.1300439E+00
        -11   -1    0    0    0    0  0.00000000000E+00  0.00000000000E+00  0.45593999997E+02  0.45594000000E+02  0.51100000000E-03 0.  1.
         11   -1    0    0    0    0 -0.00000000000E+00 -0.00000000000E+00 -0.45593999997E+02  0.45594000000E+02  0.51100000000E-03 0. -1.
    9900012    2    1    2    0    0  0.19929681569E+02  0.34668542799E+02  0.73536625151E+01  0.50528727753E+02  0.29999598477E+02 0.  0.
         12    1    1    2    0    0 -0.19929681569E+02 -0.34668542799E+02 -0.73536625151E+01  0.40659272247E+02  0.00000000000E+00 0. -1.
         11    1    3    3    0    0  0.92886667774E+01  0.20798489788E+01  0.89400755034E+01  0.13058715578E+02  0.51100000000E-03 0. -1.
        -11    1    3    3    0    0  0.14823084099E+01  0.19847805554E+02 -0.66458889376E+01  0.20983337760E+02  0.51100000000E-03 0.  1.
        -12    1    3    3    0    0  0.91587063821E+01  0.12740888266E+02  0.50594759493E+01  0.16486674415E+02  0.00000000000E+00 0.  1.
</event>
<event>
 7    1  0.2942034E-011  0.5052887E+02  0.7816164E-02  0.1300439E+00
        -11   -1    0    0    0    0  0.00000000000E+00  0.00000000000E+00  0.45593999997E+02  0.45594000000E+02  0.51100000000E-03 0.  1.
         11   -1    0    0    0    0 -0.00000000000E+00 -0.00000000000E+00 -0.45593999997E+02  0.45594000000E+02  0.51100000000E-03 0. -1.
    9900012    2    1    2    0    0 -0.44816335914E+01  0.34853219843E+02  0.20453194914E+02  0.50528866275E+02  0.30000019531E+02 0.  0.
         12    1    1    2    0    0  0.44816335914E+01 -0.34853219843E+02 -0.20453194914E+02  0.40659133725E+02  0.00000000000E+00 0. -1.
         11    1    3    3    0    0 -0.14111755805E+02  0.18210954717E+02  0.15266783674E+02  0.27637930596E+02  0.51100000000E-03 0. -1.
        -11    1    3    3    0    0  0.62834383061E+01  0.76448360464E+01  0.81761524663E+01  0.12836455295E+02  0.51100000000E-03 0.  1.
         12    1    3    3    0    0  0.33466839073E+01  0.89974290792E+01 -0.29897412264E+01  0.10054480385E+02  0.00000000000E+00 0. -1.
</event>
<event>
 7    1  0.2942034E-011  0.5052889E+02  0.7816164E-02  0.1300439E+00
        -11   -1    0    0    0    0  0.00000000000E+00  0.00000000000E+00  0.45593999997E+02  0.45594000000E+02  0.51100000000E-03 0. -1.
         11   -1    0    0    0    0 -0.00000000000E+00 -0.00000000000E+00 -0.45593999997E+02  0.45594000000E+02  0.51100000000E-03 0.  1.
    9900012    2    1    2    0    0 -0.77754593272E+01  0.27199077283E+02 -0.29204725345E+02  0.50528885951E+02  0.30000079336E+02 0.  0.
         12    1    1    2    0    0  0.77754593272E+01 -0.27199077283E+02  0.29204725345E+02  0.40659114049E+02  0.00000000000E+00 0. -1.
         11    1    3    3    0    0 -0.13449814118E+02  0.21141804808E+02 -0.12317664181E+02  0.27921286888E+02  0.51100000000E-03 0. -1.
        -11    1    3    3    0    0  0.32059327093E+01 -0.31829204048E+01 -0.95113567508E+01  0.10529714827E+02  0.51100000000E-03 0.  1.
        -12    1    3    3    0    0  0.24684220811E+01  0.92401928791E+01 -0.73757044132E+01  0.12077884235E+02  0.00000000000E+00 0.  1.
</event>
<event>
 7    1  0.2942034E-011  0.5052885E+02  0.7816164E-02  0.1300439E+00
        -11   -1    0    0    0    0  0.00000000000E+00  0.00000000000E+00  0.45593999997E+02  0.45594000000E+02  0.51100000000E-03 0.  1.
         11   -1    0    0    0    0 -0.00000000000E+00 -0.00000000000E+00 -0.45593999997E+02  0.45594000000E+02  0.51100000000E-03 0. -1.
    9900012    2    1    2    0    0 -0.19693594448E+02 -0.21297406078E+02  0.28491212724E+02  0.50528851332E+02  0.29999974110E+02 0.  0.
         12    1    1    2    0    0  0.19693594448E+02  0.21297406078E+02 -0.28491212724E+02  0.40659148668E+02  0.00000000000E+00 0. -1.
         11    1    3    3    0    0  0.47737156179E+01 -0.65272398361E+00 -0.27100626288E+01  0.55280058893E+01  0.51100000000E-03 0. -1.
        -11    1    3    3    0    0 -0.78856654536E+01 -0.57025794533E+01  0.12760104333E+02  0.16047535478E+02  0.51100000000E-03 0.  1.
         12    1    3    3    0    0 -0.16581644612E+02 -0.14942102641E+02  0.18441171019E+02  0.28953309965E+02  0.00000000000E+00 0. -1.
</event>
<event>
 7    1  0.2942034E-011  0.5052886E+02  0.7816164E-02  0.1300439E+00
        -11   -1    0    0    0    0  0.00000000000E+00  0.00000000000E+00  0.45593999997E+02  0.45594000000E+02  0.51100000000E-03 0.  1.
         11   -1    0    0    0    0 -0.00000000000E+00 -0.00000000000E+00 -0.45593999997E+02  0.45594000000E+02  0.51100000000E-03 0. -1.
    9900012    2    1    2    0    0  0.19585975990E+02 -0.21602910426E+02  0.28334945167E+02  0.50528864348E+02  0.30000013671E+02 0.  0.
         12    1    1    2    0    0 -0.19585975990E+02  0.21602910426E+02 -0.28334945167E+02  0.40659135652E+02  0.00000000000E+00 0. -1.
         11    1    3    3    0    0  0.10408698881E+02 -0.37575036649E+01  0.27721730127E+01  0.11408101930E+02  0.51100000000E-03 0. -1.
        -11    1    3    3    0    0  0.10948810055E+02 -0.17388988210E+02  0.28813714952E+02  0.35390443939E+02  0.51100000000E-03 0.  1.
        -12    1    3    3    0    0 -0.17715329460E+01 -0.45641855134E+00 -0.32509427977E+01  0.37303184780E+01  0.00000000000E+00 0.  1.
</event>
<event>
 7    1  0.2942034E-011  0.5052885E+02  0.7816164E-02  0.1300439E+00
        -11   -1    0    0    0    0  0.00000000000E+00  0.00000000000E+00  0.45593999997E+02  0.45594000000E+02  0.51100000000E-03 0. -1.
         11   -1    0    0    0    0 -0.00000000000E+00 -0.00000000000E+00 -0.45593999997E+02  0.45594000000E+02  0.51100000000E-03 0.  1.
    9900012    2    1    2    0    0 -0.36980106233E+02  0.85508582892E+01 -0.14578099698E+02  0.50528850657E+02  0.29999972058E+02 0.  0.
         12    1    1    2    0    0  0.36980106233E+02 -0.85508582892E+01  0.14578099698E+02  0.40659149343E+02  0.00000000000E+00 0. -1.
         11    1    3    3    0    0 -0.14288242001E+02 -0.96222211911E+01 -0.10512461889E+02  0.20180506816E+02  0.51100000000E-03 0. -1.
        -11    1    3    3    0    0 -0.16008731262E+02  0.11608178581E+02 -0.62315022815E+01  0.20733087265E+02  0.51100000000E-03 0.  1.
         12    1    3    3    0    0 -0.66831329701E+01  0.65649008993E+01  0.21658644728E+01  0.96152565763E+01  0.00000000000E+00 0. -1.
</event>
<event>
 7    1  0.2942034E-011  0.5052886E+02  0.7816164E-02  0.1300439E+00
        -11   -1    0    0    0    0  0.00000000000E+00  0.00000000000E+00  0.45593999997E+02  0.45594000000E+02  0.51100000000E-03 0.  1.
         11   -1    0    0    0    0 -0.00000000000E+00 -0.00000000000E+00 -0.45593999997E+02  0.45594000000E+02  0.51100000000E-03 0. -1.
    9900012    2    1    2    0    0  0.15231941346E+02 -0.30800411323E+02  0.21736790697E+02  0.50528862717E+02  0.30000008714E+02 0.  0.
         12    1    1    2    0    0 -0.15231941346E+02  0.30800411323E+02 -0.21736790697E+02  0.40659137283E+02  0.00000000000E+00 0. -1.
         11    1    3    3    0    0  0.38122166850E+01  0.36452892456E+01 -0.12513514703E+01  0.54209787401E+01  0.51100000000E-03 0. -1.
        -11    1    3    3    0    0  0.75821181791E+01 -0.34121057526E+02  0.20466360761E+02  0.40504407239E+02  0.51100000000E-03 0.  1.
        -12    1    3    3    0    0  0.38376064814E+01 -0.32464304278E+00  0.25217814067E+01  0.46034767377E+01  0.00000000000E+00 0.  1.
</event>
<event>
 7    1  0.2942034E-011  0.5052888E+02  0.7816164E-02  0.1300439E+00
        -11   -1    0    0    0    0  0.00000000000E+00  0.00000000000E+00  0.45593999997E+02  0.45594000000E+02  0.51100000000E-03 0.  1.
         11   -1    0    0    0    0 -0.00000000000E+00 -0.00000000000E+00 -0.45593999997E+02  0.45594000000E+02  0.51100000000E-03 0. -1.
    9900012    2    1    2    0    0  0.27701349768E+02 -0.23782414728E+02  0.17894024251E+02  0.50528878844E+02  0.30000057735E+02 0.  0.
         12    1    1    2    0    0 -0.27701349768E+02  0.23782414728E+02 -0.17894024251E+02  0.40659121156E+02  0.00000000000E+00 0. -1.
         11    1    3    3    0    0  0.17400008926E+01 -0.10413030962E+02 -0.54741252767E+01  0.11892218663E+02  0.51100000000E-03 0. -1.
        -11    1    3    3    0    0  0.19417299527E+02 -0.10109225000E+02  0.11580136095E+02  0.24765449789E+02  0.51100000000E-03 0.  1.
        -12    1    3    3    0    0  0.65440493476E+01 -0.32601587663E+01  0.11788013433E+02  0.13871210392E+02  0.00000000000E+00 0.  1.
</event>
<event>
 7    1  0.2942034E-011  0.5052887E+02  0.7816164E-02  0.1300439E+00
        -11   -1    0    0    0    0  0.00000000000E+00  0.00000000000E+00  0.45593999997E+02  0.45594000000E+02  0.51100000000E-03 0.  1.
         11   -1    0    0    0    0 -0.00000000000E+00 -0.00000000000E+00 -0.45593999997E+02  0.45594000000E+02  0.51100000000E-03 0. -1.
    9900012    2    1    2    0    0  0.19090502424E+02  0.50875732340E+00  0.35895108005E+02  0.50528869469E+02  0.30000029237E+02 0.  0.
         12    1    1    2    0    0 -0.19090502424E+02 -0.50875732340E+00 -0.35895108005E+02  0.40659130531E+02  0.00000000000E+00 0. -1.
         11    1    3    3    0    0 -0.60870677016E+00  0.76438078118E+01  0.14969347941E+02  0.16819027910E+02  0.51100000000E-03 0. -1.
        -11    1    3    3    0    0  0.96470648364E+01 -0.11126764297E+02  0.16239883174E+02  0.21922694849E+02  0.51100000000E-03 0.  1.
        -12    1    3    3    0    0  0.10052144358E+02  0.39917138084E+01  0.46858768904E+01  0.11787146710E+02  0.00000000000E+00 0.  1.
</event>
<event>
 7    1  0.2942034E-011  0.5052887E+02  0.7816164E-02  0.1300439E+00
        -11   -1    0    0    0    0  0.00000000000E+00  0.00000000000E+00  0.45593999997E+02  0.45594000000E+02  0.51100000000E-03 0. -1.
         11   -1    0    0    0    0 -0.00000000000E+00 -0.00000000000E+00 -0.45593999997E+02  0.45594000000E+02  0.51100000000E-03 0.  1.
    9900012    2    1    2    0    0  0.11951139999E+02  0.26320259086E+01 -0.38773803644E+02  0.50528866258E+02  0.30000019477E+02 0.  0.
         12    1    1    2    0    0 -0.11951139999E+02 -0.26320259086E+01  0.38773803644E+02  0.40659133742E+02  0.00000000000E+00 0. -1.
         11    1    3    3    0    0  0.17191274626E+01 -0.12739505334E+02 -0.16549174552E+02  0.20955323286E+02  0.51100000000E-03 0. -1.
        -11    1    3    3    0    0  0.24200031439E+01  0.80534208945E+01 -0.12779029999E+02  0.15297634173E+02  0.51100000000E-03 0.  1.
         12    1    3    3    0    0  0.78120093927E+01  0.73181103478E+01 -0.94455990929E+01  0.14275908799E+02  0.00000000000E+00 0. -1.
</event>
<event>
 7    1  0.2942034E-011  0.5052886E+02  0.7816164E-02  0.1300439E+00
        -11   -1    0    0    0    0  0.00000000000E+00  0.00000000000E+00  0.45593999997E+02  0.45594000000E+02  0.51100000000E-03 0. -1.
         11   -1    0    0    0    0 -0.00000000000E+00 -0.00000000000E+00 -0.45593999997E+02  0.45594000000E+02  0.51100000000E-03 0.  1.
    9900012    2    1    2    0    0 -0.28703757979E+02  0.10125254316E+02 -0.26958099615E+02  0.50528860413E+02  0.30000001712E+02 0.  0.
         12    1    1    2    0    0  0.28703757979E+02 -0.10125254316E+02  0.26958099615E+02  0.40659139587E+02  0.00000000000E+00 0. -1.
         11    1    3    3    0    0 -0.21475080210E+02  0.18382888919E+01 -0.24741136574E+02  0.32812836136E+02  0.51100000000E-03 0.  1.
        -11    1    3    3    0    0 -0.57841235302E+01 -0.61758224992E+00  0.37309549158E+01  0.69106814203E+01  0.51100000000E-03 0. -1.
         12    1    3    3    0    0 -0.14445542387E+01  0.89045476741E+01 -0.59479179568E+01  0.10805342857E+02  0.00000000000E+00 0. -1.
</event>
<event>
 7    1  0.2942034E-011  0.5052886E+02  0.7816164E-02  0.1300439E+00
        -11   -1    0    0    0    0  0.00000000000E+00  0.00000000000E+00  0.45593999997E+02  0.45594000000E+02  0.51100000000E-03 0. -1.
         11   -1    0    0    0    0 -0.00000000000E+00 -0.00000000000E+00 -0.45593999997E+02  0.45594000000E+02  0.51100000000E-03 0.  1.
    9900012    2    1    2    0    0 -0.91834168791E+01 -0.34769053035E+02  0.18972170416E+02  0.50528862714E+02  0.30000008707E+02 0.  0.
         12    1    1    2    0    0  0.91834168791E+01  0.34769053035E+02 -0.18972170416E+02  0.40659137286E+02  0.00000000000E+00 0. -1.
         11    1    3    3    0    0 -0.15807072215E+02 -0.24584364016E+02  0.21812968056E+02  0.36469988507E+02  0.51100000000E-03 0.  1.
        -11    1    3    3    0    0  0.16893085813E+01 -0.78797586477E+01 -0.30295916825E+01  0.86094590918E+01  0.51100000000E-03 0. -1.
         12    1    3    3    0    0  0.49343467543E+01 -0.23049303714E+01  0.18879404248E+00  0.54494151154E+01  0.00000000000E+00 0. -1.
</event>
<event>
 7    1  0.2942034E-011  0.5052886E+02  0.7816164E-02  0.1300439E+00
        -11   -1    0    0    0    0  0.00000000000E+00  0.00000000000E+00  0.45593999997E+02  0.45594000000E+02  0.51100000000E-03 0.  1.
         11   -1    0    0    0    0 -0.00000000000E+00 -0.00000000000E+00 -0.45593999997E+02  0.45594000000E+02  0.51100000000E-03 0. -1.
    9900012    2    1    2    0    0  0.93793857702E+01  0.36351487568E+02  0.15612871179E+02  0.50528864836E+02  0.30000015155E+02 0.  0.
         12    1    1    2    0    0 -0.93793857702E+01 -0.36351487568E+02 -0.15612871179E+02  0.40659135164E+02  0.00000000000E+00 0. -1.
         11    1    3    3    0    0  0.97072947341E+01 -0.14827770483E+01  0.31401023962E+01  0.10309725610E+02  0.51100000000E-03 0. -1.
        -11    1    3    3    0    0  0.15452537920E+01  0.20554764222E+02  0.90143964574E+01  0.22497677330E+02  0.51100000000E-03 0.  1.
         12    1    3    3    0    0 -0.18731627559E+01  0.17279500395E+02  0.34583723256E+01  0.17721461896E+02  0.00000000000E+00 0. -1.
</event>
<event>
 7    1  0.2942034E-011  0.5052888E+02  0.7816164E-02  0.1300439E+00
        -11   -1    0    0    0    0  0.00000000000E+00  0.00000000000E+00  0.45593999997E+02  0.45594000000E+02  0.51100000000E-03 0. -1.
         11   -1    0    0    0    0 -0.00000000000E+00 -0.00000000000E+00 -0.45593999997E+02  0.45594000000E+02  0.51100000000E-03 0.  1.
    9900012    2    1    2    0    0 -0.22206525734E+02  0.32747246142E+02 -0.93622871825E+01  0.50528876346E+02  0.30000050140E+02 0.  0.
         12    1    1    2    0    0  0.22206525734E+02 -0.32747246142E+02  0.93622871825E+01  0.40659123654E+02  0.00000000000E+00 0. -1.
         11    1    3    3    0    0 -0.39563531124E+01  0.52387008385E+01  0.71237221026E+01  0.96873181677E+01  0.51100000000E-03 0. -1.
        -11    1    3    3    0    0 -0.16053706199E+02  0.29291493396E+02 -0.17654316936E+02  0.37780788436E+02  0.51100000000E-03 0.  1.
        -12    1    3    3    0    0 -0.21964664224E+01 -0.17829480925E+01  0.11683076513E+01  0.30607697420E+01  0.00000000000E+00 0.  1.
</event>
<event>
 7    1  0.2942034E-011  0.5052885E+02  0.7816164E-02  0.1300439E+00
        -11   -1    0    0    0    0  0.00000000000E+00  0.00000000000E+00  0.45593999997E+02  0.45594000000E+02  0.51100000000E-03 0.  1.
         11   -1    0    0    0    0 -0.00000000000E+00 -0.00000000000E+00 -0.45593999997E+02  0.45594000000E+02  0.51100000000E-03 0. -1.
    9900012    2    1    2    0    0 -0.19199317232E+02  0.35832832784E+02 -0.74870537980E+00  0.50528852846E+02  0.29999978712E+02 0.  0.
         12    1    1    2    0    0  0.19199317232E+02 -0.35832832784E+02  0.74870537980E+00  0.40659147154E+02  0.00000000000E+00 0. -1.
         11    1    3    3    0    0 -0.19421236657E+02  0.21600362892E+02  0.10549640239E+02  0.30903964467E+02  0.51100000000E-03 0.  1.
        -11    1    3    3    0    0  0.24821472755E+01  0.10160409334E+02 -0.45044371240E+01  0.11387929004E+02  0.51100000000E-03 0. -1.
         12    1    3    3    0    0 -0.22602278504E+01  0.40720605587E+01 -0.67939084944E+01  0.82369593759E+01  0.00000000000E+00 0. -1.
</event>
<event>
 7    1  0.2942034E-011  0.5052886E+02  0.7816164E-02  0.1300439E+00
        -11   -1    0    0    0    0  0.00000000000E+00  0.00000000000E+00  0.45593999997E+02  0.45594000000E+02  0.51100000000E-03 0.  1.
         11   -1    0    0    0    0 -0.00000000000E+00 -0.00000000000E+00 -0.45593999997E+02  0.45594000000E+02  0.51100000000E-03 0. -1.
    9900012    2    1    2    0    0 -0.39624578016E+02  0.70408032063E+01 -0.57866501806E+01  0.50528863105E+02  0.30000009895E+02 0.  0.
         12    1    1    2    0    0  0.39624578016E+02 -0.70408032063E+01  0.57866501806E+01  0.40659136895E+02  0.00000000000E+00 0. -1.
         11    1    3    3    0    0  0.90047574428E+00  0.45741894019E+00 -0.50315060932E+01  0.51318751427E+01  0.51100000000E-03 0. -1.
        -11    1    3    3    0    0 -0.24749602523E+02 -0.39347131050E+01  0.50574694175E+01  0.25565656444E+02  0.51100000000E-03 0.  1.
        -12    1    3    3    0    0 -0.15775451237E+02  0.10518097371E+02 -0.58126135049E+01  0.19831331519E+02  0.00000000000E+00 0.  1.
</event>
<event>
 7    1  0.2942034E-011  0.5052888E+02  0.7816164E-02  0.1300439E+00
        -11   -1    0    0    0    0  0.00000000000E+00  0.00000000000E+00  0.45593999997E+02  0.45594000000E+02  0.51100000000E-03 0.  1.
         11   -1    0    0    0    0 -0.00000000000E+00 -0.00000000000E+00 -0.45593999997E+02  0.45594000000E+02  0.51100000000E-03 0. -1.
    9900012    2    1    2    0    0  0.11211276040E+01  0.18738265349E+01  0.40600442215E+02  0.50528879731E+02  0.30000060430E+02 0.  0.
         12    1    1    2    0    0 -0.11211276040E+01 -0.18738265349E+01 -0.40600442215E+02  0.40659120269E+02  0.00000000000E+00 0. -1.
         11    1    3    3    0    0 -0.73835598118E+01  0.12084309438E+01  0.60339971571E+01  0.96117835386E+01  0.51100000000E-03 0.  1.
        -11    1    3    3    0    0  0.96726369184E+01  0.78194286637E+01  0.29664337829E+02  0.32166384762E+02  0.51100000000E-03 0. -1.
        -12    1    3    3    0    0 -0.11679495025E+01 -0.71540330726E+01  0.49021072293E+01  0.87507114301E+01  0.00000000000E+00 0.  1.
</event>
<event>
 7    1  0.2942034E-011  0.5052886E+02  0.7816164E-02  0.1300439E+00
        -11   -1    0    0    0    0  0.00000000000E+00  0.00000000000E+00  0.45593999997E+02  0.45594000000E+02  0.51100000000E-03 0.  1.
         11   -1    0    0    0    0 -0.00000000000E+00 -0.00000000000E+00 -0.45593999997E+02  0.45594000000E+02  0.51100000000E-03 0. -1.
    9900012    2    1    2    0    0  0.16959851606E+02 -0.17653843026E+02  0.32463382890E+02  0.50528856272E+02  0.29999989123E+02 0.  0.
         12    1    1    2    0    0 -0.16959851606E+02  0.17653843026E+02 -0.32463382890E+02  0.40659143728E+02  0.00000000000E+00 0. -1.
         11    1    3    3    0    0  0.71680608984E+01  0.23052421649E+01  0.25334765393E+02  0.26430012794E+02  0.51100000000E-03 0.  1.
        -11    1    3    3    0    0  0.48744993991E+01 -0.91024867162E+01  0.23015506416E+00  0.10328067604E+02  0.51100000000E-03 0. -1.
        -12    1    3    3    0    0  0.49172913085E+01 -0.10856598475E+02  0.68984624322E+01  0.13770775874E+02  0.00000000000E+00 0.  1.
</event>
<event>
 7    1  0.2942034E-011  0.5052885E+02  0.7816164E-02  0.1300439E+00
        -11   -1    0    0    0    0  0.00000000000E+00  0.00000000000E+00  0.45593999997E+02  0.45594000000E+02  0.51100000000E-03 0. -1.
         11   -1    0    0    0    0 -0.00000000000E+00 -0.00000000000E+00 -0.45593999997E+02  0.45594000000E+02  0.51100000000E-03 0.  1.
    9900012    2    1    2    0    0 -0.19079746079E+02 -0.18590515603E+02 -0.30716809584E+02  0.50528851314E+02  0.29999974055E+02 0.  0.
         12    1    1    2    0    0  0.19079746079E+02  0.18590515603E+02  0.30716809584E+02  0.40659148686E+02  0.00000000000E+00 0. -1.
         11    1    3    3    0    0 -0.25117676863E+02 -0.15383475154E+02 -0.26386655699E+02  0.39544969314E+02  0.51100000000E-03 0.  1.
        -11    1    3    3    0    0  0.50416962817E+01 -0.54792377266E+01 -0.40797029319E+01  0.84902723004E+01  0.51100000000E-03 0. -1.
        -12    1    3    3    0    0  0.99623450239E+00  0.22721972778E+01 -0.25045095285E+00  0.24936096994E+01  0.00000000000E+00 0.  1.
</event>
<event>
 7    1  0.2942034E-011  0.5052886E+02  0.7816164E-02  0.1300439E+00
        -11   -1    0    0    0    0  0.00000000000E+00  0.00000000000E+00  0.45593999997E+02  0.45594000000E+02  0.51100000000E-03 0. -1.
         11   -1    0    0    0    0 -0.00000000000E+00 -0.00000000000E+00 -0.45593999997E+02  0.45594000000E+02  0.51100000000E-03 0.  1.
    9900012    2    1    2    0    0 -0.12489972399E+02  0.37780469577E+02 -0.83547870327E+01  0.50528858859E+02  0.29999996986E+02 0.  0.
         12    1    1    2    0    0  0.12489972399E+02 -0.37780469577E+02  0.83547870327E+01  0.40659141141E+02  0.00000000000E+00 0. -1.
         11    1    3    3    0    0 -0.10581112303E+01 -0.19064454293E+01  0.37779677610E+01  0.43620149260E+01  0.51100000000E-03 0. -1.
        -11    1    3    3    0    0 -0.15454935617E+02  0.34828309527E+02 -0.91367775782E+01  0.39183502704E+02  0.51100000000E-03 0.  1.
        -12    1    3    3    0    0  0.40230744489E+01  0.48586054801E+01 -0.29959772154E+01  0.69833412281E+01  0.00000000000E+00 0.  1.
</event>
<event>
 7    1  0.2942034E-011  0.5052885E+02  0.7816164E-02  0.1300439E+00
        -11   -1    0    0    0    0  0.00000000000E+00  0.00000000000E+00  0.45593999997E+02  0.45594000000E+02  0.51100000000E-03 0.  1.
         11   -1    0    0    0    0 -0.00000000000E+00 -0.00000000000E+00 -0.45593999997E+02  0.45594000000E+02  0.51100000000E-03 0. -1.
    9900012    2    1    2    0    0  0.58053923840E+01  0.32599869884E+02  0.23594754833E+02  0.50528849088E+02  0.29999967289E+02 0.  0.
         12    1    1    2    0    0 -0.58053923840E+01 -0.32599869884E+02 -0.23594754833E+02  0.40659150912E+02  0.00000000000E+00 0. -1.
         11    1    3    3    0    0  0.67392156051E+01  0.18186775174E+01 -0.39699792188E+01  0.80302770901E+01  0.51100000000E-03 0. -1.
        -11    1    3    3    0    0  0.44808676381E+01  0.14239424462E+02  0.12114106916E+02  0.19224748904E+02  0.51100000000E-03 0.  1.
         12    1    3    3    0    0 -0.54146908592E+01  0.16541767905E+02  0.15450627136E+02  0.23273823094E+02  0.00000000000E+00 0. -1.
</event>
<event>
 7    1  0.2942034E-011  0.5052884E+02  0.7816164E-02  0.1300439E+00
        -11   -1    0    0    0    0  0.00000000000E+00  0.00000000000E+00  0.45593999997E+02  0.45594000000E+02  0.51100000000E-03 0.  1.
         11   -1    0    0    0    0 -0.00000000000E+00 -0.00000000000E+00 -0.45593999997E+02  0.45594000000E+02  0.51100000000E-03 0. -1.
    9900012    2    1    2    0    0 -0.24613201516E+02  0.31994099757E+02 -0.48718949611E+01  0.50528837827E+02  0.29999933057E+02 0.  0.
         12    1    1    2    0    0  0.24613201516E+02 -0.31994099757E+02  0.48718949611E+01  0.40659162173E+02  0.00000000000E+00 0. -1.
         11    1    3    3    0    0  0.24358750073E+01  0.95297849802E+01 -0.45595340258E+01  0.10841569979E+02  0.51100000000E-03 0. -1.
        -11    1    3    3    0    0 -0.14836208179E+02  0.40814702285E+01  0.63313189761E+01  0.16639022586E+02  0.51100000000E-03 0.  1.
         12    1    3    3    0    0 -0.12212868344E+02  0.18382844548E+02 -0.66436799115E+01  0.23048245262E+02  0.00000000000E+00 0. -1.
</event>
<event>
 7    1  0.2942034E-011  0.5052897E+02  0.7816164E-02  0.1300438E+00
        -11   -1    0    0    0    0  0.00000000000E+00  0.00000000000E+00  0.45593999997E+02  0.45594000000E+02  0.51100000000E-03 0.  1.
         11   -1    0    0    0    0 -0.00000000000E+00 -0.00000000000E+00 -0.45593999997E+02  0.45594000000E+02  0.51100000000E-03 0. -1.
    9900012    2    1    2    0    0  0.28033987926E+02 -0.27554847166E+02  0.10391455853E+02  0.50528973498E+02  0.30000345441E+02 0.  0.
         12    1    1    2    0    0 -0.28033987926E+02  0.27554847166E+02 -0.10391455853E+02  0.40659026502E+02  0.00000000000E+00 0. -1.
         11    1    3    3    0    0  0.47901616864E+01  0.56161428774E+01 -0.20370372817E+01  0.76574297875E+01  0.51100000000E-03 0. -1.
        -11    1    3    3    0    0  0.11941571848E+02 -0.17783955567E+02  0.31748996589E+01  0.21655258066E+02  0.51100000000E-03 0.  1.
         12    1    3    3    0    0  0.11302254392E+02 -0.15387034476E+02  0.92535934757E+01  0.21216285644E+02  0.00000000000E+00 0. -1.
</event>
<event>
 7    1  0.2942034E-011  0.5052885E+02  0.7816164E-02  0.1300439E+00
        -11   -1    0    0    0    0  0.00000000000E+00  0.00000000000E+00  0.45593999997E+02  0.45594000000E+02  0.51100000000E-03 0.  1.
         11   -1    0    0    0    0 -0.00000000000E+00 -0.00000000000E+00 -0.45593999997E+02  0.45594000000E+02  0.51100000000E-03 0. -1.
    9900012    2    1    2    0    0  0.45837639261E+01 -0.13084416302E+02  0.38222418295E+02  0.50528854632E+02  0.29999984141E+02 0.  0.
         12    1    1    2    0    0 -0.45837639261E+01  0.13084416302E+02 -0.38222418295E+02  0.40659145368E+02  0.00000000000E+00 0. -1.
         11    1    3    3    0    0 -0.92930696933E+01 -0.10885794684E+02  0.15525859148E+02  0.21116675230E+02  0.51100000000E-03 0. -1.
        -11    1    3    3    0    0  0.69576753295E+01 -0.73177011388E+01  0.12019157383E+02  0.15697711311E+02  0.51100000000E-03 0.  1.
         12    1    3    3    0    0  0.69191582899E+01  0.51190795214E+01  0.10677401764E+02  0.13714468091E+02  0.00000000000E+00 0. -1.
</event>
<event>
 7    1  0.2942034E-011  0.5052888E+02  0.7816164E-02  0.1300439E+00
        -11   -1    0    0    0    0  0.00000000000E+00  0.00000000000E+00  0.45593999997E+02  0.45594000000E+02  0.51100000000E-03 0.  1.
         11   -1    0    0    0    0 -0.00000000000E+00 -0.00000000000E+00 -0.45593999997E+02  0.45594000000E+02  0.51100000000E-03 0. -1.
    9900012    2    1    2    0    0 -0.36955421789E+02 -0.80506095423E+01  0.14921411641E+02  0.50528880003E+02  0.30000061256E+02 0.  0.
         12    1    1    2    0    0  0.36955421789E+02  0.80506095423E+01 -0.14921411641E+02  0.40659119997E+02  0.00000000000E+00 0. -1.
         11    1    3    3    0    0 -0.57658373603E+01  0.64964315672E+01  0.24287712756E+01  0.90192812210E+01  0.51100000000E-03 0. -1.
        -11    1    3    3    0    0 -0.32084220152E+02 -0.12200500339E+02  0.63966124500E+01  0.34916558283E+02  0.51100000000E-03 0.  1.
         12    1    3    3    0    0  0.89463572303E+00 -0.23465407709E+01  0.60960279156E+01  0.65930404984E+01  0.00000000000E+00 0. -1.
</event>
<event>
 7    1  0.2942034E-011  0.5052883E+02  0.7816164E-02  0.1300439E+00
        -11   -1    0    0    0    0  0.00000000000E+00  0.00000000000E+00  0.45593999997E+02  0.45594000000E+02  0.51100000000E-03 0.  1.
         11   -1    0    0    0    0 -0.00000000000E+00 -0.00000000000E+00 -0.45593999997E+02  0.45594000000E+02  0.51100000000E-03 0. -1.
    9900012    2    1    2    0    0  0.35907832836E+02  0.34920065636E+01  0.18751039210E+02  0.50528830797E+02  0.29999911692E+02 0.  0.
         12    1    1    2    0    0 -0.35907832836E+02 -0.34920065636E+01 -0.18751039210E+02  0.40659169203E+02  0.00000000000E+00 0. -1.
         11    1    3    3    0    0  0.69505086602E+01  0.89280570893E+01 -0.20736325005E+01  0.11503031167E+02  0.51100000000E-03 0. -1.
        -11    1    3    3    0    0  0.19090938240E+02 -0.14187186670E+00  0.20225316166E+02  0.27812721276E+02  0.51100000000E-03 0.  1.
        -12    1    3    3    0    0  0.98663859355E+01 -0.52941786590E+01  0.59935554372E+00  0.11213078354E+02  0.00000000000E+00 0.  1.
</event>
<event>
 7    1  0.2942034E-011  0.5052886E+02  0.7816164E-02  0.1300439E+00
        -11   -1    0    0    0    0  0.00000000000E+00  0.00000000000E+00  0.45593999997E+02  0.45594000000E+02  0.51100000000E-03 0.  1.
         11   -1    0    0    0    0 -0.00000000000E+00 -0.00000000000E+00 -0.45593999997E+02  0.45594000000E+02  0.51100000000E-03 0. -1.
    9900012    2    1    2    0    0 -0.21690455394E+02  0.64738742662E+01  0.33775417282E+02  0.50528859382E+02  0.29999998578E+02 0.  0.
         12    1    1    2    0    0  0.21690455394E+02 -0.64738742662E+01 -0.33775417282E+02  0.40659140618E+02  0.00000000000E+00 0. -1.
         11    1    3    3    0    0 -0.16692794403E+02 -0.10330557543E+02  0.16337638314E+02  0.25539934026E+02  0.51100000000E-03 0. -1.
        -11    1    3    3    0    0 -0.54440880912E+01  0.13647428956E+02  0.14738041557E+02  0.20811061516E+02  0.51100000000E-03 0.  1.
         12    1    3    3    0    0  0.44642710007E+00  0.31570028532E+01  0.26997374111E+01  0.41778638394E+01  0.00000000000E+00 0. -1.
</event>
<event>
 7    1  0.2942034E-011  0.5052887E+02  0.7816164E-02  0.1300439E+00
        -11   -1    0    0    0    0  0.00000000000E+00  0.00000000000E+00  0.45593999997E+02  0.45594000000E+02  0.51100000000E-03 0. -1.
         11   -1    0    0    0    0 -0.00000000000E+00 -0.00000000000E+00 -0.45593999997E+02  0.45594000000E+02  0.51100000000E-03 0.  1.
    9900012    2    1    2    0    0  0.18675282018E+02 -0.15350745728E+02 -0.32691797868E+02  0.50528865717E+02  0.30000017832E+02 0.  0.
         12    1    1    2    0    0 -0.18675282018E+02  0.15350745728E+02  0.32691797868E+02  0.40659134283E+02  0.00000000000E+00 0. -1.
         11    1    3    3    0    0  0.11403044712E+02 -0.16661725821E+02 -0.89408318569E+01  0.22081236618E+02  0.51100000000E-03 0. -1.
        -11    1    3    3    0    0  0.57132978304E+01 -0.47150657149E+01 -0.19633798736E+02  0.20984748506E+02  0.51100000000E-03 0.  1.
         12    1    3    3    0    0  0.15589394756E+01  0.60260458079E+01 -0.41171672750E+01  0.74628805925E+01  0.00000000000E+00 0. -1.
</event>
<event>
 7    1  0.2942034E-011  0.5052885E+02  0.7816164E-02  0.1300439E+00
        -11   -1    0    0    0    0  0.00000000000E+00  0.00000000000E+00  0.45593999997E+02  0.45594000000E+02  0.51100000000E-03 0.  1.
         11   -1    0    0    0    0 -0.00000000000E+00 -0.00000000000E+00 -0.45593999997E+02  0.45594000000E+02  0.51100000000E-03 0. -1.
    9900012    2    1    2    0    0  0.23102798332E+02 -0.22093868326E+02  0.25125445442E+02  0.50528851988E+02  0.29999976103E+02 0.  0.
         12    1    1    2    0    0 -0.23102798332E+02  0.22093868326E+02 -0.25125445442E+02  0.40659148012E+02  0.00000000000E+00 0. -1.
         11    1    3    3    0    0 -0.17685161412E+01 -0.11869778038E+02  0.22575622060E+01  0.12211300806E+02  0.51100000000E-03 0. -1.
        -11    1    3    3    0    0  0.11420426437E+02 -0.66893959051E-01  0.16980463686E+02  0.20463791488E+02  0.51100000000E-03 0.  1.
        -12    1    3    3    0    0  0.13450888036E+02 -0.10157196330E+02  0.58874195498E+01  0.17853759694E+02  0.00000000000E+00 0.  1.
</event>
<event>
 7    1  0.2942034E-011  0.5052885E+02  0.7816164E-02  0.1300439E+00
        -11   -1    0    0    0    0  0.00000000000E+00  0.00000000000E+00  0.45593999997E+02  0.45594000000E+02  0.51100000000E-03 0.  1.
         11   -1    0    0    0    0 -0.00000000000E+00 -0.00000000000E+00 -0.45593999997E+02  0.45594000000E+02  0.51100000000E-03 0. -1.
    9900012    2    1    2    0    0  0.80942843604E+01 -0.44048900716E+01  0.39601086333E+02  0.50528849312E+02  0.29999967970E+02 0.  0.
         12    1    1    2    0    0 -0.80942843604E+01  0.44048900716E+01 -0.39601086333E+02  0.40659150688E+02  0.00000000000E+00 0. -1.
         11    1    3    3    0    0 -0.27530723165E+01 -0.11841251611E+02  0.25191629762E+02  0.27971643806E+02  0.51100000000E-03 0. -1.
        -11    1    3    3    0    0 -0.80358724594E+00  0.12045980347E+00  0.67747466059E+01  0.68233023429E+01  0.51100000000E-03 0.  1.
         12    1    3    3    0    0  0.11650943923E+02  0.73159017357E+01  0.76347099650E+01  0.15733903163E+02  0.00000000000E+00 0. -1.
</event>
<event>
 7    1  0.2942034E-011  0.5052887E+02  0.7816164E-02  0.1300439E+00
        -11   -1    0    0    0    0  0.00000000000E+00  0.00000000000E+00  0.45593999997E+02  0.45594000000E+02  0.51100000000E-03 0.  1.
         11   -1    0    0    0    0 -0.00000000000E+00 -0.00000000000E+00 -0.45593999997E+02  0.45594000000E+02  0.51100000000E-03 0. -1.
    9900012    2    1    2    0    0 -0.90271121172E+01  0.93900600779E+01  0.38516271041E+02  0.50528866754E+02  0.30000020985E+02 0.  0.
         12    1    1    2    0    0  0.90271121172E+01 -0.93900600779E+01 -0.38516271041E+02  0.40659133246E+02  0.00000000000E+00 0. -1.
         11    1    3    3    0    0  0.79957353437E+01 -0.57006046409E+01  0.10234263445E+02  0.14183399645E+02  0.51100000000E-03 0. -1.
        -11    1    3    3    0    0 -0.78241538147E+01  0.81238411473E+01  0.13442794041E+02  0.17547731756E+02  0.51100000000E-03 0.  1.
         12    1    3    3    0    0 -0.91986936462E+01  0.69668235716E+01  0.14839213554E+02  0.18797735353E+02  0.00000000000E+00 0. -1.
</event>
<event>
 7    1  0.2942034E-011  0.5052886E+02  0.7816164E-02  0.1300439E+00
        -11   -1    0    0    0    0  0.00000000000E+00  0.00000000000E+00  0.45593999997E+02  0.45594000000E+02  0.51100000000E-03 0.  1.
         11   -1    0    0    0    0 -0.00000000000E+00 -0.00000000000E+00 -0.45593999997E+02  0.45594000000E+02  0.51100000000E-03 0. -1.
    9900012    2    1    2    0    0  0.12918169577E+01 -0.14246766034E+02  0.38059510804E+02  0.50528862084E+02  0.30000006789E+02 0.  0.
         12    1    1    2    0    0 -0.12918169577E+01  0.14246766034E+02 -0.38059510804E+02  0.40659137916E+02  0.00000000000E+00 0. -1.
         11    1    3    3    0    0  0.11391807280E+02 -0.10252391536E+02  0.86507129294E+01  0.17598853365E+02  0.51100000000E-03 0. -1.
        -11    1    3    3    0    0 -0.10489743793E+02 -0.33931525155E+01  0.15599649055E+02  0.19102284150E+02  0.51100000000E-03 0.  1.
         12    1    3    3    0    0  0.38975347023E+00 -0.60122198213E+00  0.13809148819E+02  0.13827724569E+02  0.00000000000E+00 0. -1.
</event>
<event>
 7    1  0.2942034E-011  0.5052895E+02  0.7816164E-02  0.1300438E+00
        -11   -1    0    0    0    0  0.00000000000E+00  0.00000000000E+00  0.45593999997E+02  0.45594000000E+02  0.51100000000E-03 0.  1.
         11   -1    0    0    0    0 -0.00000000000E+00 -0.00000000000E+00 -0.45593999997E+02  0.45594000000E+02  0.51100000000E-03 0. -1.
    9900012    2    1    2    0    0 -0.32278344975E+01 -0.40427911286E+02 -0.28850055901E+01  0.50528952006E+02  0.30000280117E+02 0.  0.
         12    1    1    2    0    0  0.32278344975E+01  0.40427911286E+02  0.28850055901E+01  0.40659047994E+02  0.00000000000E+00 0. -1.
         11    1    3    3    0    0  0.10855106482E+02 -0.31012421836E+02 -0.32527298891E+01  0.33017932958E+02  0.51100000000E-03 0. -1.
        -11    1    3    3    0    0 -0.51302384205E+01 -0.57092188212E+01 -0.94273249388E+00  0.77332574389E+01  0.51100000000E-03 0.  1.
         12    1    3    3    0    0 -0.89527025587E+01 -0.37062706291E+01  0.13104567929E+01  0.97777616093E+01  0.00000000000E+00 0. -1.
</event>
<event>
 7    1  0.2942034E-011  0.5052886E+02  0.7816164E-02  0.1300439E+00
        -11   -1    0    0    0    0  0.00000000000E+00  0.00000000000E+00  0.45593999997E+02  0.45594000000E+02  0.51100000000E-03 0. -1.
         11   -1    0    0    0    0 -0.00000000000E+00 -0.00000000000E+00 -0.45593999997E+02  0.45594000000E+02  0.51100000000E-03 0.  1.
    9900012    2    1    2    0    0 -0.30636446207E+02  0.17276829570E+02  0.20398158892E+02  0.50528861269E+02  0.30000004312E+02 0.  0.
         12    1    1    2    0    0  0.30636446207E+02 -0.17276829570E+02 -0.20398158892E+02  0.40659138731E+02  0.00000000000E+00 0. -1.
         11    1    3    3    0    0  0.48617937360E+00  0.21503924316E+01  0.42161460055E+01  0.47577773586E+01  0.51100000000E-03 0. -1.
        -11    1    3    3    0    0 -0.30028981740E+02  0.18758677130E+02  0.73535296552E+01  0.36162164076E+02  0.51100000000E-03 0.  1.
        -12    1    3    3    0    0 -0.10936438409E+01 -0.36322399916E+01  0.88284832318E+01  0.96089198342E+01  0.00000000000E+00 0.  1.
</event>
<event>
 7    1  0.2942034E-011  0.5052886E+02  0.7816164E-02  0.1300439E+00
        -11   -1    0    0    0    0  0.00000000000E+00  0.00000000000E+00  0.45593999997E+02  0.45594000000E+02  0.51100000000E-03 0. -1.
         11   -1    0    0    0    0 -0.00000000000E+00 -0.00000000000E+00 -0.45593999997E+02  0.45594000000E+02  0.51100000000E-03 0.  1.
    9900012    2    1    2    0    0 -0.37785959822E+02 -0.14554746148E+02  0.36805648264E+01  0.50528856471E+02  0.29999989729E+02 0.  0.
         12    1    1    2    0    0  0.37785959822E+02  0.14554746148E+02 -0.36805648264E+01  0.40659143529E+02  0.00000000000E+00 0. -1.
         11    1    3    3    0    0 -0.23970567732E+02 -0.50601051144E+01  0.13947939052E+02  0.28191094076E+02  0.51100000000E-03 0. -1.
        -11    1    3    3    0    0 -0.10653952242E+02 -0.92403927707E+00 -0.58763337439E+01  0.12202124631E+02  0.51100000000E-03 0.  1.
         12    1    3    3    0    0 -0.31614398476E+01 -0.85706017562E+01 -0.43910404821E+01  0.10135637764E+02  0.00000000000E+00 0. -1.
</event>
<event>
 7    1  0.2942034E-011  0.5052887E+02  0.7816164E-02  0.1300439E+00
        -11   -1    0    0    0    0  0.00000000000E+00  0.00000000000E+00  0.45593999997E+02  0.45594000000E+02  0.51100000000E-03 0. -1.
         11   -1    0    0    0    0 -0.00000000000E+00 -0.00000000000E+00 -0.45593999997E+02  0.45594000000E+02  0.51100000000E-03 0.  1.
    9900012    2    1    2    0    0 -0.18278974893E+02  0.13206589966E+02 -0.33832384901E+02  0.50528865605E+02  0.30000017493E+02 0.  0.
         12    1    1    2    0    0  0.18278974893E+02 -0.13206589966E+02  0.33832384901E+02  0.40659134395E+02  0.00000000000E+00 0. -1.
         11    1    3    3    0    0 -0.15808048955E+02  0.19265915184E+02 -0.28130416862E+02  0.37581780862E+02  0.51100000000E-03 0.  1.
        -11    1    3    3    0    0  0.23213216804E+01 -0.43905968143E+01  0.43312125462E+00  0.49853253667E+01  0.51100000000E-03 0. -1.
        -12    1    3    3    0    0 -0.47922476189E+01 -0.16687284044E+01 -0.61350892933E+01  0.79617593763E+01  0.00000000000E+00 0.  1.
</event>
<event>
 7    1  0.2942034E-011  0.5052885E+02  0.7816164E-02  0.1300439E+00
        -11   -1    0    0    0    0  0.00000000000E+00  0.00000000000E+00  0.45593999997E+02  0.45594000000E+02  0.51100000000E-03 0. -1.
         11   -1    0    0    0    0 -0.00000000000E+00 -0.00000000000E+00 -0.45593999997E+02  0.45594000000E+02  0.51100000000E-03 0.  1.
    9900012    2    1    2    0    0 -0.37689286168E+02  0.13500586840E+02 -0.71005925857E+01  0.50528849099E+02  0.29999967322E+02 0.  0.
         12    1    1    2    0    0  0.37689286168E+02 -0.13500586840E+02  0.71005925857E+01  0.40659150901E+02  0.00000000000E+00 0. -1.
         11    1    3    3    0    0 -0.69955921610E+00 -0.47278774497E+01 -0.59140638927E+01  0.76038385217E+01  0.51100000000E-03 0. -1.
        -11    1    3    3    0    0 -0.13480384349E+02  0.93232649968E+00  0.15948930111E+01  0.13606383755E+02  0.51100000000E-03 0.  1.
         12    1    3    3    0    0 -0.23509342603E+02  0.17296137790E+02 -0.27814217040E+01  0.29318626823E+02  0.00000000000E+00 0. -1.
</event>
<event>
 7    1  0.2942034E-011  0.5052886E+02  0.7816164E-02  0.1300439E+00
        -11   -1    0    0    0    0  0.00000000000E+00  0.00000000000E+00  0.45593999997E+02  0.45594000000E+02  0.51100000000E-03 0.  1.
         11   -1    0    0    0    0 -0.00000000000E+00 -0.00000000000E+00 -0.45593999997E+02  0.45594000000E+02  0.51100000000E-03 0. -1.
    9900012    2    1    2    0    0  0.95937626523E+00  0.39805205350E+02 -0.82335270643E+01  0.50528859039E+02  0.29999997534E+02 0.  0.
         12    1    1    2    0    0 -0.95937626523E+00 -0.39805205350E+02  0.82335270643E+01  0.40659140961E+02  0.00000000000E+00 0. -1.
         11    1    3    3    0    0  0.21473737718E+01  0.34336762301E+01 -0.95923389452E+01  0.10412219421E+02  0.51100000000E-03 0. -1.
        -11    1    3    3    0    0 -0.64806057193E+01  0.17616689809E+02  0.66663101956E+01  0.19919480471E+02  0.51100000000E-03 0.  1.
        -12    1    3    3    0    0  0.52926082127E+01  0.18754839311E+02 -0.53074983147E+01  0.20197159147E+02  0.00000000000E+00 0.  1.
</event>
<event>
 7    1  0.2942034E-011  0.5052890E+02  0.7816164E-02  0.1300439E+00
        -11   -1    0    0    0    0  0.00000000000E+00  0.00000000000E+00  0.45593999997E+02  0.45594000000E+02  0.51100000000E-03 0.  1.
         11   -1    0    0    0    0 -0.00000000000E+00 -0.00000000000E+00 -0.45593999997E+02  0.45594000000E+02  0.51100000000E-03 0. -1.
    9900012    2    1    2    0    0 -0.24575857884E+02 -0.13405049239E+02  0.29487194018E+02  0.50528895891E+02  0.30000109552E+02 0.  0.
         12    1    1    2    0    0  0.24575857884E+02  0.13405049239E+02 -0.29487194018E+02  0.40659104109E+02  0.00000000000E+00 0. -1.
         11    1    3    3    0    0 -0.80784528194E+01  0.61335474515E+01  0.58178974038E+01  0.11693149052E+02  0.51100000000E-03 0. -1.
        -11    1    3    3    0    0 -0.94804875186E+01 -0.17890102657E+02  0.24265698033E+02  0.31603156772E+02  0.51100000000E-03 0.  1.
        -12    1    3    3    0    0 -0.70169175464E+01 -0.16484940329E+01 -0.59640141836E+00  0.72325900673E+01  0.00000000000E+00 0.  1.
</event>
<event>
 7    1  0.2942034E-011  0.5052885E+02  0.7816164E-02  0.1300439E+00
        -11   -1    0    0    0    0  0.00000000000E+00  0.00000000000E+00  0.45593999997E+02  0.45594000000E+02  0.51100000000E-03 0. -1.
         11   -1    0    0    0    0 -0.00000000000E+00 -0.00000000000E+00 -0.45593999997E+02  0.45594000000E+02  0.51100000000E-03 0.  1.
    9900012    2    1    2    0    0 -0.32953893902E+02  0.12577288626E+02 -0.20224214924E+02  0.50528853651E+02  0.29999981158E+02 0.  0.
         12    1    1    2    0    0  0.32953893902E+02 -0.12577288626E+02  0.20224214924E+02  0.40659146349E+02  0.00000000000E+00 0. -1.
         11    1    3    3    0    0  0.26393800243E+01 -0.42534184922E+01 -0.53853750206E+01  0.73525614690E+01  0.51100000000E-03 0. -1.
        -11    1    3    3    0    0 -0.22981936907E+02  0.12012846264E+02 -0.48485667697E+01  0.26381556045E+02  0.51100000000E-03 0.  1.
        -12    1    3    3    0    0 -0.12611337020E+02  0.48178608546E+01 -0.99902731338E+01  0.16794736137E+02  0.00000000000E+00 0.  1.
</event>
<event>
 7    1  0.2942034E-011  0.5052886E+02  0.7816164E-02  0.1300439E+00
        -11   -1    0    0    0    0  0.00000000000E+00  0.00000000000E+00  0.45593999997E+02  0.45594000000E+02  0.51100000000E-03 0.  1.
         11   -1    0    0    0    0 -0.00000000000E+00 -0.00000000000E+00 -0.45593999997E+02  0.45594000000E+02  0.51100000000E-03 0. -1.
    9900012    2    1    2    0    0  0.16515695269E+02  0.30337423432E+02  0.21448498749E+02  0.50528861430E+02  0.30000004802E+02 0.  0.
         12    1    1    2    0    0 -0.16515695269E+02 -0.30337423432E+02 -0.21448498749E+02  0.40659138570E+02  0.00000000000E+00 0. -1.
         11    1    3    3    0    0 -0.92108046223E+00 -0.16205931868E+01 -0.23549683353E+01  0.30034293094E+01  0.51100000000E-03 0. -1.
        -11    1    3    3    0    0  0.21003891050E+02  0.27669572148E+02  0.23496912713E+02  0.41938926660E+02  0.51100000000E-03 0.  1.
        -12    1    3    3    0    0 -0.35671153187E+01  0.42884444711E+01  0.30655437097E+00  0.55865054606E+01  0.00000000000E+00 0.  1.
</event>
<event>
 7    1  0.2942034E-011  0.5052887E+02  0.7816164E-02  0.1300439E+00
        -11   -1    0    0    0    0  0.00000000000E+00  0.00000000000E+00  0.45593999997E+02  0.45594000000E+02  0.51100000000E-03 0.  1.
         11   -1    0    0    0    0 -0.00000000000E+00 -0.00000000000E+00 -0.45593999997E+02  0.45594000000E+02  0.51100000000E-03 0. -1.
    9900012    2    1    2    0    0 -0.18892426253E+02  0.13720626906E+02  0.33286421375E+02  0.50528865474E+02  0.30000017095E+02 0.  0.
         12    1    1    2    0    0  0.18892426253E+02 -0.13720626906E+02 -0.33286421375E+02  0.40659134526E+02  0.00000000000E+00 0. -1.
         11    1    3    3    0    0 -0.10366721650E+02  0.54024169959E+01 -0.18358665391E+01  0.11833234273E+02  0.51100000000E-03 0. -1.
        -11    1    3    3    0    0 -0.98418298601E+01  0.38719251202E+01  0.17271041206E+02  0.20251969873E+02  0.51100000000E-03 0.  1.
         12    1    3    3    0    0  0.13161252565E+01  0.44462847897E+01  0.17851246708E+02  0.18443661327E+02  0.00000000000E+00 0. -1.
</event>
<event>
 7    1  0.2942034E-011  0.5052886E+02  0.7816164E-02  0.1300439E+00
        -11   -1    0    0    0    0  0.00000000000E+00  0.00000000000E+00  0.45593999997E+02  0.45594000000E+02  0.51100000000E-03 0.  1.
         11   -1    0    0    0    0 -0.00000000000E+00 -0.00000000000E+00 -0.45593999997E+02  0.45594000000E+02  0.51100000000E-03 0. -1.
    9900012    2    1    2    0    0 -0.30187621804E+02  0.24816681815E+02 -0.11225216498E+02  0.50528859676E+02  0.29999999470E+02 0.  0.
         12    1    1    2    0    0  0.30187621804E+02 -0.24816681815E+02  0.11225216498E+02  0.40659140324E+02  0.00000000000E+00 0. -1.
         11    1    3    3    0    0 -0.17125248714E+02  0.50228904341E+01  0.49869367598E+01  0.18530329472E+02  0.51100000000E-03 0. -1.
        -11    1    3    3    0    0 -0.81599950013E+01  0.20469561426E+02 -0.10405907938E+02  0.24369476475E+02  0.51100000000E-03 0.  1.
         12    1    3    3    0    0 -0.49023780889E+01 -0.67577004525E+00 -0.58062453200E+01  0.76290537288E+01  0.00000000000E+00 0. -1.
</event>
<event>
 7    1  0.2942034E-011  0.5052886E+02  0.7816164E-02  0.1300439E+00
        -11   -1    0    0    0    0  0.00000000000E+00  0.00000000000E+00  0.45593999997E+02  0.45594000000E+02  0.51100000000E-03 0. -1.
         11   -1    0    0    0    0 -0.00000000000E+00 -0.00000000000E+00 -0.45593999997E+02  0.45594000000E+02  0.51100000000E-03 0.  1.
    9900012    2    1    2    0    0 -0.39917332342E+02  0.51142670121E+01 -0.57979727376E+01  0.50528860360E+02  0.30000001551E+02 0.  0.
         12    1    1    2    0    0  0.39917332342E+02 -0.51142670121E+01  0.57979727376E+01  0.40659139640E+02  0.00000000000E+00 0. -1.
         11    1    3    3    0    0  0.35050490921E+01  0.11350728616E+01 -0.38594534222E+01  0.53356480880E+01  0.51100000000E-03 0. -1.
        -11    1    3    3    0    0 -0.17227318255E+02  0.72347889433E+01  0.43707217879E+00  0.18689935732E+02  0.51100000000E-03 0.  1.
         12    1    3    3    0    0 -0.26195063179E+02 -0.32555947928E+01 -0.23755914942E+01  0.26503276540E+02  0.00000000000E+00 0. -1.
</event>
<event>
 7    1  0.2942034E-011  0.5052886E+02  0.7816164E-02  0.1300439E+00
        -11   -1    0    0    0    0  0.00000000000E+00  0.00000000000E+00  0.45593999997E+02  0.45594000000E+02  0.51100000000E-03 0.  1.
         11   -1    0    0    0    0 -0.00000000000E+00 -0.00000000000E+00 -0.45593999997E+02  0.45594000000E+02  0.51100000000E-03 0. -1.
    9900012    2    1    2    0    0 -0.21182271548E+01 -0.39790034937E+02  0.80889790228E+01  0.50528863902E+02  0.30000012317E+02 0.  0.
         12    1    1    2    0    0  0.21182271548E+01  0.39790034937E+02 -0.80889790228E+01  0.40659136098E+02  0.00000000000E+00 0. -1.
         11    1    3    3    0    0  0.78445602597E+01 -0.39028922129E+01  0.42522180841E+01  0.97391504861E+01  0.51100000000E-03 0. -1.
        -11    1    3    3    0    0 -0.11487339401E+02 -0.20420261767E+02 -0.33478649718E+01  0.23667578188E+02  0.51100000000E-03 0.  1.
        -12    1    3    3    0    0  0.15245519865E+01 -0.15466880957E+02  0.71846259106E+01  0.17122135228E+02  0.00000000000E+00 0.  1.
</event>
<event>
 7    1  0.2942034E-011  0.5052885E+02  0.7816164E-02  0.1300439E+00
        -11   -1    0    0    0    0  0.00000000000E+00  0.00000000000E+00  0.45593999997E+02  0.45594000000E+02  0.51100000000E-03 0.  1.
         11   -1    0    0    0    0 -0.00000000000E+00 -0.00000000000E+00 -0.45593999997E+02  0.45594000000E+02  0.51100000000E-03 0. -1.
    9900012    2    1    2    0    0 -0.21032812389E+02  0.34171150761E+02 -0.65665352331E+01  0.50528854334E+02  0.29999983234E+02 0.  0.
         12    1    1    2    0    0  0.21032812389E+02 -0.34171150761E+02  0.65665352331E+01  0.40659145666E+02  0.00000000000E+00 0. -1.
         11    1    3    3    0    0 -0.13246163893E+02  0.19075782096E+02  0.60693393766E+01  0.24003816388E+02  0.51100000000E-03 0. -1.
        -11    1    3    3    0    0 -0.48514865626E+01  0.17318825867E+02 -0.13792722248E+02  0.22665344439E+02  0.51100000000E-03 0.  1.
        -12    1    3    3    0    0 -0.29351619334E+01 -0.22234572022E+01  0.11568476386E+01  0.38596935065E+01  0.00000000000E+00 0.  1.
</event>
<event>
 7    1  0.2942034E-011  0.5052887E+02  0.7816164E-02  0.1300439E+00
        -11   -1    0    0    0    0  0.00000000000E+00  0.00000000000E+00  0.45593999997E+02  0.45594000000E+02  0.51100000000E-03 0. -1.
         11   -1    0    0    0    0 -0.00000000000E+00 -0.00000000000E+00 -0.45593999997E+02  0.45594000000E+02  0.51100000000E-03 0.  1.
    9900012    2    1    2    0    0  0.35497154030E+02  0.85022275653E+00 -0.19808945491E+02  0.50528866408E+02  0.30000019933E+02 0.  0.
         12    1    1    2    0    0 -0.35497154030E+02 -0.85022275653E+00  0.19808945491E+02  0.40659133592E+02  0.00000000000E+00 0. -1.
         11    1    3    3    0    0 -0.29246024227E+01 -0.39750529739E+01  0.14713055456E+01  0.51496685083E+01  0.51100000000E-03 0. -1.
        -11    1    3    3    0    0  0.13007957179E+02  0.52974894652E+01 -0.11469440696E+02  0.18133350897E+02  0.51100000000E-03 0.  1.
         12    1    3    3    0    0  0.25413799274E+02 -0.47221373477E+00 -0.98108103415E+01  0.27245847003E+02  0.00000000000E+00 0. -1.
</event>
<event>
 7    1  0.2942034E-011  0.5052886E+02  0.7816164E-02  0.1300439E+00
        -11   -1    0    0    0    0  0.00000000000E+00  0.00000000000E+00  0.45593999997E+02  0.45594000000E+02  0.51100000000E-03 0.  1.
         11   -1    0    0    0    0 -0.00000000000E+00 -0.00000000000E+00 -0.45593999997E+02  0.45594000000E+02  0.51100000000E-03 0. -1.
    9900012    2    1    2    0    0  0.24925246717E+02  0.26411478261E+02  0.18284733384E+02  0.50528861018E+02  0.30000003551E+02 0.  0.
         12    1    1    2    0    0 -0.24925246717E+02 -0.26411478261E+02 -0.18284733384E+02  0.40659138982E+02  0.00000000000E+00 0. -1.
         11    1    3    3    0    0 -0.47130171187E+01  0.68133974393E+01 -0.24108352302E+01  0.86282699190E+01  0.51100000000E-03 0. -1.
        -11    1    3    3    0    0  0.24365722885E+02  0.12352764957E+02  0.17201983977E+02  0.32282929030E+02  0.51100000000E-03 0.  1.
        -12    1    3    3    0    0  0.52725409504E+01  0.72453158645E+01  0.34935846376E+01  0.96176620688E+01  0.00000000000E+00 0.  1.
</event>
<event>
 7    1  0.2942034E-011  0.5052886E+02  0.7816164E-02  0.1300439E+00
        -11   -1    0    0    0    0  0.00000000000E+00  0.00000000000E+00  0.45593999997E+02  0.45594000000E+02  0.51100000000E-03 0.  1.
         11   -1    0    0    0    0 -0.00000000000E+00 -0.00000000000E+00 -0.45593999997E+02  0.45594000000E+02  0.51100000000E-03 0. -1.
    9900012    2    1    2    0    0  0.99992023884E+01  0.13053349417E+02  0.37185909908E+02  0.50528857423E+02  0.29999992623E+02 0.  0.
         12    1    1    2    0    0 -0.99992023884E+01 -0.13053349417E+02 -0.37185909908E+02  0.40659142577E+02  0.00000000000E+00 0. -1.
         11    1    3    3    0    0  0.50715801396E+01 -0.77693197827E+00  0.33233030786E+01  0.61130100626E+01  0.51100000000E-03 0. -1.
        -11    1    3    3    0    0 -0.87520351594E+01  0.17872216609E+01  0.48792071082E+01  0.10178356594E+02  0.51100000000E-03 0.  1.
        -12    1    3    3    0    0  0.13679657408E+02  0.12043059735E+02  0.28983399721E+02  0.34237490766E+02  0.00000000000E+00 0.  1.
</event>
<event>
 7    1  0.2942034E-011  0.5052886E+02  0.7816164E-02  0.1300439E+00
        -11   -1    0    0    0    0  0.00000000000E+00  0.00000000000E+00  0.45593999997E+02  0.45594000000E+02  0.51100000000E-03 0.  1.
         11   -1    0    0    0    0 -0.00000000000E+00 -0.00000000000E+00 -0.45593999997E+02  0.45594000000E+02  0.51100000000E-03 0. -1.
    9900012    2    1    2    0    0 -0.33469159843E+02 -0.15947438237E+02  0.16693122828E+02  0.50528858387E+02  0.29999995554E+02 0.  0.
         12    1    1    2    0    0  0.33469159843E+02  0.15947438237E+02 -0.16693122828E+02  0.40659141613E+02  0.00000000000E+00 0. -1.
         11    1    3    3    0    0  0.12314482862E+01 -0.62473962573E+01  0.26816206871E+01  0.69092340131E+01  0.51100000000E-03 0. -1.
        -11    1    3    3    0    0 -0.19382218011E+02 -0.10485929534E+02 -0.11308973303E+01  0.22065901800E+02  0.51100000000E-03 0.  1.
        -12    1    3    3    0    0 -0.15318390119E+02  0.78588755388E+00  0.15142399471E+02  0.21553722574E+02  0.00000000000E+00 0.  1.
</event>
<event>
 7    1  0.4098112E-011  0.5052886E+02  0.7816164E-02  0.1300439E+00
        -11   -1    0    0    0    0  0.00000000000E+00  0.00000000000E+00  0.45593999997E+02  0.45594000000E+02  0.51100000000E-03 0. -1.
         11   -1    0    0    0    0 -0.00000000000E+00 -0.00000000000E+00 -0.45593999997E+02  0.45594000000E+02  0.51100000000E-03 0.  1.
    9900012    2    1    2    0    0  0.65872720474E+01 -0.11233343167E+02 -0.38517336273E+02  0.50528863938E+02  0.30000012426E+02 0.  0.
         12    1    1    2    0    0 -0.65872720474E+01  0.11233343167E+02  0.38517336273E+02  0.40659136062E+02  0.00000000000E+00 0. -1.
         11    1    3    3    0    0 -0.61137411061E+01  0.23832492752E+01 -0.30926831146E+00  0.65691212936E+01  0.51100000000E-03 0. -1.
        -11    1    3    3    0    0  0.20112836621E+01 -0.75746137442E+01 -0.23650040480E+02  0.24914743633E+02  0.51100000000E-03 0.  1.
         12    1    3    3    0    0  0.10689729491E+02 -0.60419786977E+01 -0.14558027481E+02  0.19044999011E+02  0.00000000000E+00 0. -1.
</event>
<event>
 7    1  0.2942034E-011  0.5052886E+02  0.7816164E-02  0.1300439E+00
        -11   -1    0    0    0    0  0.00000000000E+00  0.00000000000E+00  0.45593999997E+02  0.45594000000E+02  0.51100000000E-03 0. -1.
         11   -1    0    0    0    0 -0.00000000000E+00 -0.00000000000E+00 -0.45593999997E+02  0.45594000000E+02  0.51100000000E-03 0.  1.
    9900012    2    1    2    0    0  0.87102835731E+01  0.36669550453E+02 -0.15252566021E+02  0.50528859077E+02  0.29999997652E+02 0.  0.
         12    1    1    2    0    0 -0.87102835731E+01 -0.36669550453E+02  0.15252566021E+02  0.40659140923E+02  0.00000000000E+00 0. -1.
         11    1    3    3    0    0  0.13981779854E+01  0.39535395912E+02 -0.10043996568E+02  0.40815245913E+02  0.51100000000E-03 0.  1.
        -11    1    3    3    0    0  0.22152438268E+01 -0.17608871354E+01 -0.27571639269E+01  0.39509469619E+01  0.51100000000E-03 0. -1.
        -12    1    3    3    0    0  0.50968617609E+01 -0.11049583240E+01 -0.24514055254E+01  0.57626662022E+01  0.00000000000E+00 0.  1.
</event>
<event>
 7    1  0.2942034E-011  0.5052886E+02  0.7816164E-02  0.1300439E+00
        -11   -1    0    0    0    0  0.00000000000E+00  0.00000000000E+00  0.45593999997E+02  0.45594000000E+02  0.51100000000E-03 0.  1.
         11   -1    0    0    0    0 -0.00000000000E+00 -0.00000000000E+00 -0.45593999997E+02  0.45594000000E+02  0.51100000000E-03 0. -1.
    9900012    2    1    2    0    0  0.24904861447E+02 -0.16822808090E+02  0.27384424760E+02  0.50528859390E+02  0.29999998602E+02 0.  0.
         12    1    1    2    0    0 -0.24904861447E+02  0.16822808090E+02 -0.27384424760E+02  0.40659140610E+02  0.00000000000E+00 0. -1.
         11    1    3    3    0    0  0.11995678824E+02 -0.84370818133E+01 -0.31919394654E+01  0.15008968578E+02  0.51100000000E-03 0. -1.
        -11    1    3    3    0    0  0.12135532102E+02 -0.99983981869E+01  0.29509465711E+02  0.33437219868E+02  0.51100000000E-03 0.  1.
         12    1    3    3    0    0  0.77365052112E+00  0.16126719104E+01  0.10668985144E+01  0.20826709436E+01  0.00000000000E+00 0. -1.
</event>
<event>
 7    1  0.2942034E-011  0.5052885E+02  0.7816164E-02  0.1300439E+00
        -11   -1    0    0    0    0  0.00000000000E+00  0.00000000000E+00  0.45593999997E+02  0.45594000000E+02  0.51100000000E-03 0. -1.
         11   -1    0    0    0    0 -0.00000000000E+00 -0.00000000000E+00 -0.45593999997E+02  0.45594000000E+02  0.51100000000E-03 0.  1.
    9900012    2    1    2    0    0 -0.71710671032E+01  0.24800986549E+02  0.31411038583E+02  0.50528849959E+02  0.29999969934E+02 0.  0.
         12    1    1    2    0    0  0.71710671032E+01 -0.24800986549E+02 -0.31411038583E+02  0.40659150041E+02  0.00000000000E+00 0. -1.
         11    1    3    3    0    0 -0.10065853556E+02  0.10147487486E+02  0.71799887313E+01  0.15995160159E+02  0.51100000000E-03 0. -1.
        -11    1    3    3    0    0  0.19254201720E-02  0.85160635659E+00  0.19704944188E+02  0.19723338024E+02  0.51100000000E-03 0.  1.
        -12    1    3    3    0    0  0.28928610321E+01  0.13801892706E+02  0.45261056639E+01  0.14810351775E+02  0.00000000000E+00 0.  1.
</event>
<event>
 7    1  0.2942034E-011  0.5052884E+02  0.7816164E-02  0.1300439E+00
        -11   -1    0    0    0    0  0.00000000000E+00  0.00000000000E+00  0.45593999997E+02  0.45594000000E+02  0.51100000000E-03 0.  1.
         11   -1    0    0    0    0 -0.00000000000E+00 -0.00000000000E+00 -0.45593999997E+02  0.45594000000E+02  0.51100000000E-03 0. -1.
    9900012    2    1    2    0    0 -0.13308537122E+02 -0.23005168918E+02  0.30770310203E+02  0.50528844238E+02  0.29999952547E+02 0.  0.
         12    1    1    2    0    0  0.13308537122E+02  0.23005168918E+02 -0.30770310203E+02  0.40659155762E+02  0.00000000000E+00 0. -1.
         11    1    3    3    0    0 -0.84588242596E+01 -0.41611626263E+01  0.69472939335E+00  0.94524933985E+01  0.51100000000E-03 0. -1.
        -11    1    3    3    0    0 -0.54478548477E+01 -0.21497652330E+02  0.17613182276E+02  0.28320529097E+02  0.51100000000E-03 0.  1.
        -12    1    3    3    0    0  0.59814198518E+00  0.26536460388E+01  0.12462398534E+02  0.12755821743E+02  0.00000000000E+00 0.  1.
</event>
<event>
 7    1  0.2942034E-011  0.5052885E+02  0.7816164E-02  0.1300439E+00
        -11   -1    0    0    0    0  0.00000000000E+00  0.00000000000E+00  0.45593999997E+02  0.45594000000E+02  0.51100000000E-03 0.  1.
         11   -1    0    0    0    0 -0.00000000000E+00 -0.00000000000E+00 -0.45593999997E+02  0.45594000000E+02  0.51100000000E-03 0. -1.
    9900012    2    1    2    0    0 -0.86936060696E+01  0.39621844851E+02  0.27744301160E+01  0.50528845577E+02  0.29999956616E+02 0.  0.
         12    1    1    2    0    0  0.86936060696E+01 -0.39621844851E+02 -0.27744301160E+01  0.40659154423E+02  0.00000000000E+00 0. -1.
         11    1    3    3    0    0 -0.20113693747E+01  0.20907978279E+02  0.71606142620E+00  0.21016705420E+02  0.51100000000E-03 0.  1.
        -11    1    3    3    0    0  0.19584440023E+01  0.25321083772E+01 -0.79819898184E+01  0.85999556665E+01  0.51100000000E-03 0. -1.
        -12    1    3    3    0    0 -0.86406806972E+01  0.16181758195E+02  0.10040358508E+02  0.20912184490E+02  0.00000000000E+00 0.  1.
</event>
<event>
 7    1  0.2942034E-011  0.5052886E+02  0.7816164E-02  0.1300439E+00
        -11   -1    0    0    0    0  0.00000000000E+00  0.00000000000E+00  0.45593999997E+02  0.45594000000E+02  0.51100000000E-03 0.  1.
         11   -1    0    0    0    0 -0.00000000000E+00 -0.00000000000E+00 -0.45593999997E+02  0.45594000000E+02  0.51100000000E-03 0. -1.
    9900012    2    1    2    0    0 -0.34508430859E+02  0.51492635980E+01  0.20876281100E+02  0.50528857996E+02  0.29999994365E+02 0.  0.
         12    1    1    2    0    0  0.34508430859E+02 -0.51492635980E+01 -0.20876281100E+02  0.40659142004E+02  0.00000000000E+00 0. -1.
         11    1    3    3    0    0 -0.22435334391E+02  0.63310681334E+01  0.12057542035E+02  0.26245208575E+02  0.51100000000E-03 0. -1.
        -11    1    3    3    0    0  0.27348639786E+01  0.45075934449E+01 -0.13480520336E+01  0.54419779669E+01  0.51100000000E-03 0.  1.
        -12    1    3    3    0    0 -0.14807960446E+02 -0.56893979804E+01  0.10166791099E+02  0.18841671454E+02  0.00000000000E+00 0.  1.
</event>
<event>
 7    1  0.2942034E-011  0.5052886E+02  0.7816164E-02  0.1300439E+00
        -11   -1    0    0    0    0  0.00000000000E+00  0.00000000000E+00  0.45593999997E+02  0.45594000000E+02  0.51100000000E-03 0.  1.
         11   -1    0    0    0    0 -0.00000000000E+00 -0.00000000000E+00 -0.45593999997E+02  0.45594000000E+02  0.51100000000E-03 0. -1.
    9900012    2    1    2    0    0 -0.21324379759E+02 -0.13983471373E+02  0.31668578340E+02  0.50528862062E+02  0.30000006725E+02 0.  0.
         12    1    1    2    0    0  0.21324379759E+02  0.13983471373E+02 -0.31668578340E+02  0.40659137938E+02  0.00000000000E+00 0. -1.
         11    1    3    3    0    0 -0.22784028065E+02 -0.16498822962E+02  0.21983330001E+02  0.35701399023E+02  0.51100000000E-03 0. -1.
        -11    1    3    3    0    0 -0.15834145069E+01  0.46566170292E+01  0.99477935714E+01  0.11097291600E+02  0.51100000000E-03 0.  1.
         12    1    3    3    0    0  0.30430628130E+01 -0.21412654401E+01 -0.26254523226E+00  0.37301714395E+01  0.00000000000E+00 0. -1.
</event>
<event>
 7    1  0.2942034E-011  0.5052884E+02  0.7816164E-02  0.1300439E+00
        -11   -1    0    0    0    0  0.00000000000E+00  0.00000000000E+00  0.45593999997E+02  0.45594000000E+02  0.51100000000E-03 0.  1.
         11   -1    0    0    0    0 -0.00000000000E+00 -0.00000000000E+00 -0.45593999997E+02  0.45594000000E+02  0.51100000000E-03 0. -1.
    9900012    2    1    2    0    0  0.70722278545E+01  0.16197081195E+00  0.40039038102E+02  0.50528840965E+02  0.29999942596E+02 0.  0.
         12    1    1    2    0    0 -0.70722278545E+01 -0.16197081195E+00 -0.40039038102E+02  0.40659159035E+02  0.00000000000E+00 0. -1.
         11    1    3    3    0    0 -0.12988942980E+01 -0.76304737517E+01  0.79143212525E+01  0.11070128148E+02  0.51100000000E-03 0. -1.
        -11    1    3    3    0    0  0.41455026581E+01  0.13069042178E+02  0.11970680333E+02  0.18201160502E+02  0.51100000000E-03 0.  1.
         12    1    3    3    0    0  0.42256194944E+01 -0.52765976139E+01  0.20154036516E+02  0.21257552314E+02  0.00000000000E+00 0. -1.
</event>
<event>
 7    1  0.2942034E-011  0.5052888E+02  0.7816164E-02  0.1300439E+00
        -11   -1    0    0    0    0  0.00000000000E+00  0.00000000000E+00  0.45593999997E+02  0.45594000000E+02  0.51100000000E-03 0.  1.
         11   -1    0    0    0    0 -0.00000000000E+00 -0.00000000000E+00 -0.45593999997E+02  0.45594000000E+02  0.51100000000E-03 0. -1.
    9900012    2    1    2    0    0 -0.87412080712E+01 -0.17263053036E+02  0.35759505700E+02  0.50528880893E+02  0.30000063963E+02 0.  0.
         12    1    1    2    0    0  0.87412080712E+01  0.17263053036E+02 -0.35759505700E+02  0.40659119107E+02  0.00000000000E+00 0. -1.
         11    1    3    3    0    0  0.46700396998E+01  0.74396465476E+00 -0.20639034916E+01  0.51596949609E+01  0.51100000000E-03 0. -1.
        -11    1    3    3    0    0 -0.14691831541E+01 -0.41787908540E+01  0.17448076238E+02  0.18001559844E+02  0.51100000000E-03 0.  1.
         12    1    3    3    0    0 -0.11942064617E+02 -0.13828226837E+02  0.20375332953E+02  0.27367626088E+02  0.00000000000E+00 0. -1.
</event>
<event>
 7    1  0.2942034E-011  0.5052886E+02  0.7816164E-02  0.1300439E+00
        -11   -1    0    0    0    0  0.00000000000E+00  0.00000000000E+00  0.45593999997E+02  0.45594000000E+02  0.51100000000E-03 0.  1.
         11   -1    0    0    0    0 -0.00000000000E+00 -0.00000000000E+00 -0.45593999997E+02  0.45594000000E+02  0.51100000000E-03 0. -1.
    9900012    2    1    2    0    0 -0.36480104109E+02 -0.66367371658E+01  0.16682974743E+02  0.50528856843E+02  0.29999990859E+02 0.  0.
         12    1    1    2    0    0  0.36480104109E+02  0.66367371658E+01 -0.16682974743E+02  0.40659143157E+02  0.00000000000E+00 0. -1.
         11    1    3    3    0    0 -0.17137716907E+02  0.28617557161E+01 -0.62667065480E+01  0.18470587370E+02  0.51100000000E-03 0. -1.
        -11    1    3    3    0    0 -0.20357616569E+01 -0.13883010714E+01  0.60994730878E+01  0.65783947585E+01  0.51100000000E-03 0.  1.
         12    1    3    3    0    0 -0.17306625544E+02 -0.81101918104E+01  0.16850208204E+02  0.25479874714E+02  0.00000000000E+00 0. -1.
</event>
<event>
 7    1  0.2942034E-011  0.5052885E+02  0.7816164E-02  0.1300439E+00
        -11   -1    0    0    0    0  0.00000000000E+00  0.00000000000E+00  0.45593999997E+02  0.45594000000E+02  0.51100000000E-03 0. -1.
         11   -1    0    0    0    0 -0.00000000000E+00 -0.00000000000E+00 -0.45593999997E+02  0.45594000000E+02  0.51100000000E-03 0.  1.
    9900012    2    1    2    0    0 -0.17536004360E+02 -0.35395487193E+02 -0.96340174217E+01  0.50528852761E+02  0.29999978452E+02 0.  0.
         12    1    1    2    0    0  0.17536004360E+02  0.35395487193E+02  0.96340174217E+01  0.40659147239E+02  0.00000000000E+00 0. -1.
         11    1    3    3    0    0 -0.13577479565E+02 -0.13238297695E+02  0.79293351310E+01  0.20554192591E+02  0.51100000000E-03 0. -1.
        -11    1    3    3    0    0 -0.24684683054E+01 -0.20013338325E+02 -0.11132141467E+02  0.23033706185E+02  0.51100000000E-03 0.  1.
         12    1    3    3    0    0 -0.14900564889E+01 -0.21438511726E+01 -0.64312110858E+01  0.69409539849E+01  0.00000000000E+00 0. -1.
</event>
<event>
 7    1  0.2942034E-011  0.5052886E+02  0.7816164E-02  0.1300439E+00
        -11   -1    0    0    0    0  0.00000000000E+00  0.00000000000E+00  0.45593999997E+02  0.45594000000E+02  0.51100000000E-03 0.  1.
         11   -1    0    0    0    0 -0.00000000000E+00 -0.00000000000E+00 -0.45593999997E+02  0.45594000000E+02  0.51100000000E-03 0. -1.
    9900012    2    1    2    0    0  0.39177207526E+01  0.19754148735E+02  0.35321251609E+02  0.50528859043E+02  0.29999997547E+02 0.  0.
         12    1    1    2    0    0 -0.39177207526E+01 -0.19754148735E+02 -0.35321251609E+02  0.40659140957E+02  0.00000000000E+00 0. -1.
         11    1    3    3    0    0 -0.10523752157E+02  0.17868168426E+01  0.16555622892E+02  0.19698495462E+02  0.51100000000E-03 0. -1.
        -11    1    3    3    0    0  0.13691251261E+02  0.12191926688E+02  0.12036894149E+02  0.21931262127E+02  0.51100000000E-03 0.  1.
         12    1    3    3    0    0  0.75022164768E+00  0.57754052041E+01  0.67287345684E+01  0.88991014537E+01  0.00000000000E+00 0. -1.
</event>
<event>
 7    1  0.2942034E-011  0.5052886E+02  0.7816164E-02  0.1300439E+00
        -11   -1    0    0    0    0  0.00000000000E+00  0.00000000000E+00  0.45593999997E+02  0.45594000000E+02  0.51100000000E-03 0. -1.
         11   -1    0    0    0    0 -0.00000000000E+00 -0.00000000000E+00 -0.45593999997E+02  0.45594000000E+02  0.51100000000E-03 0.  1.
    9900012    2    1    2    0    0  0.21863548161E+02  0.76379855105E+01 -0.33418741846E+02  0.50528857518E+02  0.29999992910E+02 0.  0.
         12    1    1    2    0    0 -0.21863548161E+02 -0.76379855105E+01  0.33418741846E+02  0.40659142482E+02  0.00000000000E+00 0. -1.
         11    1    3    3    0    0  0.45153939846E+01  0.85477707221E+01 -0.24694501006E+01  0.99775423434E+01  0.51100000000E-03 0. -1.
        -11    1    3    3    0    0  0.20873647738E+02 -0.42979698192E+01 -0.25303563588E+02  0.33082503608E+02  0.51100000000E-03 0.  1.
        -12    1    3    3    0    0 -0.35254935615E+01  0.33881846076E+01 -0.56457281576E+01  0.74688115666E+01  0.00000000000E+00 0.  1.
</event>
<event>
 7    1  0.2942034E-011  0.5052886E+02  0.7816164E-02  0.1300439E+00
        -11   -1    0    0    0    0  0.00000000000E+00  0.00000000000E+00  0.45593999997E+02  0.45594000000E+02  0.51100000000E-03 0.  1.
         11   -1    0    0    0    0 -0.00000000000E+00 -0.00000000000E+00 -0.45593999997E+02  0.45594000000E+02  0.51100000000E-03 0. -1.
    9900012    2    1    2    0    0  0.25532382016E+02 -0.29605195432E+02  0.11171193338E+02  0.50528859716E+02  0.29999999594E+02 0.  0.
         12    1    1    2    0    0 -0.25532382016E+02  0.29605195432E+02 -0.11171193338E+02  0.40659140284E+02  0.00000000000E+00 0. -1.
         11    1    3    3    0    0 -0.29781589347E+01  0.30798317172E+01  0.33222018810E+01  0.54214222899E+01  0.51100000000E-03 0. -1.
        -11    1    3    3    0    0  0.13868197482E+02 -0.15687188588E+02  0.86583800541E+01  0.22657941933E+02  0.51100000000E-03 0.  1.
         12    1    3    3    0    0  0.14642343469E+02 -0.16997838561E+02 -0.80938859715E+00  0.22449495494E+02  0.00000000000E+00 0. -1.
</event>
<event>
 7    1  0.2942034E-011  0.5052886E+02  0.7816164E-02  0.1300439E+00
        -11   -1    0    0    0    0  0.00000000000E+00  0.00000000000E+00  0.45593999997E+02  0.45594000000E+02  0.51100000000E-03 0. -1.
         11   -1    0    0    0    0 -0.00000000000E+00 -0.00000000000E+00 -0.45593999997E+02  0.45594000000E+02  0.51100000000E-03 0.  1.
    9900012    2    1    2    0    0  0.13666367592E+02  0.36701988633E+02 -0.10925208359E+02  0.50528858955E+02  0.29999997281E+02 0.  0.
         12    1    1    2    0    0 -0.13666367592E+02 -0.36701988633E+02  0.10925208359E+02  0.40659141045E+02  0.00000000000E+00 0. -1.
         11    1    3    3    0    0  0.26221282295E+01 -0.35785979732E+01 -0.14620719617E+01  0.46711427497E+01  0.51100000000E-03 0. -1.
        -11    1    3    3    0    0  0.53571496678E+01  0.19034151318E+02 -0.12881309214E+02  0.23599281690E+02  0.51100000000E-03 0.  1.
         12    1    3    3    0    0  0.56870896944E+01  0.21246435289E+02  0.34181728172E+01  0.22258434516E+02  0.00000000000E+00 0. -1.
</event>
<event>
 7    1  0.2942034E-011  0.5052882E+02  0.7816164E-02  0.1300439E+00
        -11   -1    0    0    0    0  0.00000000000E+00  0.00000000000E+00  0.45593999997E+02  0.45594000000E+02  0.51100000000E-03 0.  1.
         11   -1    0    0    0    0 -0.00000000000E+00 -0.00000000000E+00 -0.45593999997E+02  0.45594000000E+02  0.51100000000E-03 0. -1.
    9900012    2    1    2    0    0 -0.40058986710E+02  0.58205513235E+01  0.38167173455E+01  0.50528824341E+02  0.29999892067E+02 0.  0.
         12    1    1    2    0    0  0.40058986710E+02 -0.58205513235E+01 -0.38167173455E+01  0.40659175659E+02  0.00000000000E+00 0. -1.
         11    1    3    3    0    0 -0.33032986522E+02  0.11258921453E+01 -0.57852987240E+01  0.33554664553E+02  0.51100000000E-03 0. -1.
        -11    1    3    3    0    0 -0.25091623170E+01  0.19475468433E+01  0.11046219280E+02  0.11493815506E+02  0.51100000000E-03 0.  1.
        -12    1    3    3    0    0 -0.45168378718E+01  0.27471123349E+01 -0.14442032104E+01  0.54803442824E+01  0.00000000000E+00 0.  1.
</event>
<event>
 7    1  0.2942034E-011  0.5052885E+02  0.7816164E-02  0.1300439E+00
        -11   -1    0    0    0    0  0.00000000000E+00  0.00000000000E+00  0.45593999997E+02  0.45594000000E+02  0.51100000000E-03 0.  1.
         11   -1    0    0    0    0 -0.00000000000E+00 -0.00000000000E+00 -0.45593999997E+02  0.45594000000E+02  0.51100000000E-03 0. -1.
    9900012    2    1    2    0    0 -0.40590794650E+01  0.20915331474E+02  0.34630029985E+02  0.50528853507E+02  0.29999980720E+02 0.  0.
         12    1    1    2    0    0  0.40590794650E+01 -0.20915331474E+02 -0.34630029985E+02  0.40659146493E+02  0.00000000000E+00 0. -1.
         11    1    3    3    0    0 -0.71022883404E+01  0.15088042118E+01  0.21083247890E+02  0.22298482722E+02  0.51100000000E-03 0.  1.
        -11    1    3    3    0    0  0.40655367137E+01  0.92494587872E+01 -0.13271142214E+01  0.10190304659E+02  0.51100000000E-03 0. -1.
        -12    1    3    3    0    0 -0.10223278382E+01  0.10157068475E+02  0.14873896316E+02  0.18040066126E+02  0.00000000000E+00 0.  1.
</event>
<event>
 7    1  0.2942034E-011  0.5052885E+02  0.7816164E-02  0.1300439E+00
        -11   -1    0    0    0    0  0.00000000000E+00  0.00000000000E+00  0.45593999997E+02  0.45594000000E+02  0.51100000000E-03 0.  1.
         11   -1    0    0    0    0 -0.00000000000E+00 -0.00000000000E+00 -0.45593999997E+02  0.45594000000E+02  0.51100000000E-03 0. -1.
    9900012    2    1    2    0    0 -0.26948021678E+02  0.29021528339E+02  0.92044238247E+01  0.50528850999E+02  0.29999973097E+02 0.  0.
         12    1    1    2    0    0  0.26948021678E+02 -0.29021528339E+02 -0.92044238247E+01  0.40659149001E+02  0.00000000000E+00 0. -1.
         11    1    3    3    0    0 -0.17093075485E+02  0.21875561239E+02 -0.82936261410E+01  0.28974085729E+02  0.51100000000E-03 0. -1.
        -11    1    3    3    0    0 -0.81814293408E+01  0.53317624710E+01  0.15744459121E+02  0.18527046995E+02  0.51100000000E-03 0.  1.
         12    1    3    3    0    0 -0.16735168529E+01  0.18142046299E+01  0.17535908450E+01  0.30277182742E+01  0.00000000000E+00 0. -1.
</event>
<event>
 7    1  0.2942034E-011  0.5052885E+02  0.7816164E-02  0.1300439E+00
        -11   -1    0    0    0    0  0.00000000000E+00  0.00000000000E+00  0.45593999997E+02  0.45594000000E+02  0.51100000000E-03 0. -1.
         11   -1    0    0    0    0 -0.00000000000E+00 -0.00000000000E+00 -0.45593999997E+02  0.45594000000E+02  0.51100000000E-03 0.  1.
    9900012    2    1    2    0    0  0.36680119838E+02 -0.44374608949E+01 -0.16971859411E+02  0.50528852660E+02  0.29999978145E+02 0.  0.
         12    1    1    2    0    0 -0.36680119838E+02  0.44374608949E+01  0.16971859411E+02  0.40659147340E+02  0.00000000000E+00 0. -1.
         11    1    3    3    0    0  0.83943040276E+00 -0.73347248858E+01 -0.90422039561E+01  0.11673229424E+02  0.51100000000E-03 0. -1.
        -11    1    3    3    0    0  0.35498832070E+02  0.91868397010E+00 -0.89241949571E+01  0.36614919288E+02  0.51100000000E-03 0.  1.
         12    1    3    3    0    0  0.34185736526E+00  0.19785800207E+01  0.99453950224E+00  0.22407039470E+01  0.00000000000E+00 0. -1.
</event>
<event>
 7    1  0.2942034E-011  0.5052887E+02  0.7816164E-02  0.1300439E+00
        -11   -1    0    0    0    0  0.00000000000E+00  0.00000000000E+00  0.45593999997E+02  0.45594000000E+02  0.51100000000E-03 0.  1.
         11   -1    0    0    0    0 -0.00000000000E+00 -0.00000000000E+00 -0.45593999997E+02  0.45594000000E+02  0.51100000000E-03 0. -1.
    9900012    2    1    2    0    0  0.68674954396E+01 -0.13565520091E+02  0.37709136542E+02  0.50528870549E+02  0.30000032521E+02 0.  0.
         12    1    1    2    0    0 -0.68674954396E+01  0.13565520091E+02 -0.37709136542E+02  0.40659129451E+02  0.00000000000E+00 0. -1.
         11    1    3    3    0    0  0.57546859983E+01 -0.10016017001E+01  0.55463791243E+01  0.80549325606E+01  0.51100000000E-03 0. -1.
        -11    1    3    3    0    0 -0.79338676014E+01 -0.14537804790E+02  0.27511289996E+02  0.32111759540E+02  0.51100000000E-03 0.  1.
        -12    1    3    3    0    0  0.90466770427E+01  0.19738863989E+01  0.46514674214E+01  0.10362178449E+02  0.00000000000E+00 0.  1.
</event>
<event>
 7    1  0.2942034E-011  0.5052886E+02  0.7816164E-02  0.1300439E+00
        -11   -1    0    0    0    0  0.00000000000E+00  0.00000000000E+00  0.45593999997E+02  0.45594000000E+02  0.51100000000E-03 0. -1.
         11   -1    0    0    0    0 -0.00000000000E+00 -0.00000000000E+00 -0.45593999997E+02  0.45594000000E+02  0.51100000000E-03 0.  1.
    9900012    2    1    2    0    0  0.34206332242E+02  0.21951404813E+02 -0.11082127521E+01  0.50528862352E+02  0.30000007606E+02 0.  0.
         12    1    1    2    0    0 -0.34206332242E+02 -0.21951404813E+02  0.11082127521E+01  0.40659137648E+02  0.00000000000E+00 0. -1.
         11    1    3    3    0    0  0.33750559668E+01 -0.69057136530E+01  0.18539096218E+01  0.79067607137E+01  0.51100000000E-03 0. -1.
        -11    1    3    3    0    0  0.93031130892E+01  0.92786584274E+01 -0.31931077917E+01  0.13521736316E+02  0.51100000000E-03 0.  1.
         12    1    3    3    0    0  0.21528163186E+02  0.19578460039E+02  0.23098541782E+00  0.29100365323E+02  0.00000000000E+00 0. -1.
</event>
<event>
 7    1  0.2942034E-011  0.5052887E+02  0.7816164E-02  0.1300439E+00
        -11   -1    0    0    0    0  0.00000000000E+00  0.00000000000E+00  0.45593999997E+02  0.45594000000E+02  0.51100000000E-03 0.  1.
         11   -1    0    0    0    0 -0.00000000000E+00 -0.00000000000E+00 -0.45593999997E+02  0.45594000000E+02  0.51100000000E-03 0. -1.
    9900012    2    1    2    0    0 -0.80838917832E+00  0.29181101531E+02  0.28301499418E+02  0.50528867582E+02  0.30000023503E+02 0.  0.
         12    1    1    2    0    0  0.80838917832E+00 -0.29181101531E+02 -0.28301499418E+02  0.40659132418E+02  0.00000000000E+00 0. -1.
         11    1    3    3    0    0  0.41331190711E+01  0.16575324427E+00  0.54778126640E+01  0.68641517493E+01  0.51100000000E-03 0. -1.
        -11    1    3    3    0    0  0.51928299504E+00  0.31284578842E+02  0.18632170121E+02  0.36416373953E+02  0.51100000000E-03 0.  1.
        -12    1    3    3    0    0 -0.54607912445E+01 -0.22692305553E+01  0.41915166330E+01  0.72483418803E+01  0.00000000000E+00 0.  1.
</event>
<event>
 7    1  0.2942034E-011  0.5052886E+02  0.7816164E-02  0.1300439E+00
        -11   -1    0    0    0    0  0.00000000000E+00  0.00000000000E+00  0.45593999997E+02  0.45594000000E+02  0.51100000000E-03 0.  1.
         11   -1    0    0    0    0 -0.00000000000E+00 -0.00000000000E+00 -0.45593999997E+02  0.45594000000E+02  0.51100000000E-03 0. -1.
    9900012    2    1    2    0    0  0.35914563151E+02  0.26438479989E+01  0.18876441990E+02  0.50528857846E+02  0.29999993907E+02 0.  0.
         12    1    1    2    0    0 -0.35914563151E+02 -0.26438479989E+01 -0.18876441990E+02  0.40659142154E+02  0.00000000000E+00 0. -1.
         11    1    3    3    0    0 -0.64815729559E+00 -0.39369429778E+01  0.44322077289E+00  0.40144828814E+01  0.51100000000E-03 0. -1.
        -11    1    3    3    0    0  0.28271337902E+02  0.13904853756E+02  0.15250305409E+02  0.35002647329E+02  0.51100000000E-03 0.  1.
        -12    1    3    3    0    0  0.82913825442E+01 -0.73240627795E+01  0.31829158086E+01  0.11511727635E+02  0.00000000000E+00 0.  1.
</event>
<event>
 7    1  0.2942034E-011  0.5052887E+02  0.7816164E-02  0.1300439E+00
        -11   -1    0    0    0    0  0.00000000000E+00  0.00000000000E+00  0.45593999997E+02  0.45594000000E+02  0.51100000000E-03 0.  1.
         11   -1    0    0    0    0 -0.00000000000E+00 -0.00000000000E+00 -0.45593999997E+02  0.45594000000E+02  0.51100000000E-03 0. -1.
    9900012    2    1    2    0    0 -0.10423473783E+02 -0.25488265555E+02  0.29914281293E+02  0.50528871726E+02  0.30000036099E+02 0.  0.
         12    1    1    2    0    0  0.10423473783E+02  0.25488265555E+02 -0.29914281293E+02  0.40659128274E+02  0.00000000000E+00 0. -1.
         11    1    3    3    0    0 -0.12636311665E+02 -0.72504967807E+01  0.24002184288E+02  0.28077587626E+02  0.51100000000E-03 0. -1.
        -11    1    3    3    0    0 -0.35953764635E+01 -0.14034964031E+02  0.40756161785E+01  0.15050501479E+02  0.51100000000E-03 0.  1.
         12    1    3    3    0    0  0.58082143448E+01 -0.42028047432E+01  0.18364808267E+01  0.74007826215E+01  0.00000000000E+00 0. -1.
</event>
<event>
 7    1  0.2942034E-011  0.5052886E+02  0.7816164E-02  0.1300439E+00
        -11   -1    0    0    0    0  0.00000000000E+00  0.00000000000E+00  0.45593999997E+02  0.45594000000E+02  0.51100000000E-03 0.  1.
         11   -1    0    0    0    0 -0.00000000000E+00 -0.00000000000E+00 -0.45593999997E+02  0.45594000000E+02  0.51100000000E-03 0. -1.
    9900012    2    1    2    0    0 -0.25259243538E+02 -0.30457037706E+02  0.93544207600E+01  0.50528859359E+02  0.29999998508E+02 0.  0.
         12    1    1    2    0    0  0.25259243538E+02  0.30457037706E+02 -0.93544207600E+01  0.40659140641E+02  0.00000000000E+00 0. -1.
         11    1    3    3    0    0 -0.17104667768E+02 -0.12383730721E+02 -0.79952898174E+01  0.22579882762E+02  0.51100000000E-03 0. -1.
        -11    1    3    3    0    0 -0.44594627347E+01 -0.17375294253E+02  0.12751167389E+02  0.22008633040E+02  0.51100000000E-03 0.  1.
         12    1    3    3    0    0 -0.36951130353E+01 -0.69801273176E+00  0.45985431881E+01  0.59403435566E+01  0.00000000000E+00 0. -1.
</event>
<event>
 7    1  0.2942034E-011  0.5052887E+02  0.7816164E-02  0.1300439E+00
        -11   -1    0    0    0    0  0.00000000000E+00  0.00000000000E+00  0.45593999997E+02  0.45594000000E+02  0.51100000000E-03 0.  1.
         11   -1    0    0    0    0 -0.00000000000E+00 -0.00000000000E+00 -0.45593999997E+02  0.45594000000E+02  0.51100000000E-03 0. -1.
    9900012    2    1    2    0    0  0.11799673173E+02  0.14975342628E+02  0.35912000261E+02  0.50528868964E+02  0.30000027704E+02 0.  0.
         12    1    1    2    0    0 -0.11799673173E+02 -0.14975342628E+02 -0.35912000261E+02  0.40659131036E+02  0.00000000000E+00 0. -1.
         11    1    3    3    0    0  0.10040327164E+02 -0.63086971226E+01  0.92123669595E+01  0.15015842774E+02  0.51100000000E-03 0. -1.
        -11    1    3    3    0    0 -0.92409604659E-01  0.84904375923E+01  0.39894026141E+01  0.93814393098E+01  0.51100000000E-03 0.  1.
         12    1    3    3    0    0  0.18517556136E+01  0.12793602159E+02  0.22710230687E+02  0.26131586881E+02  0.00000000000E+00 0. -1.
</event>
<event>
 7    1  0.2942034E-011  0.5052886E+02  0.7816164E-02  0.1300439E+00
        -11   -1    0    0    0    0  0.00000000000E+00  0.00000000000E+00  0.45593999997E+02  0.45594000000E+02  0.51100000000E-03 0.  1.
         11   -1    0    0    0    0 -0.00000000000E+00 -0.00000000000E+00 -0.45593999997E+02  0.45594000000E+02  0.51100000000E-03 0. -1.
    9900012    2    1    2    0    0  0.27609482745E+02  0.18627416813E+02  0.23321700140E+02  0.50528857215E+02  0.29999991992E+02 0.  0.
         12    1    1    2    0    0 -0.27609482745E+02 -0.18627416813E+02 -0.23321700140E+02  0.40659142785E+02  0.00000000000E+00 0. -1.
         11    1    3    3    0    0  0.31728639732E+02  0.96730238848E+01  0.14168453156E+02  0.36069641465E+02  0.51100000000E-03 0.  1.
        -11    1    3    3    0    0 -0.10563335425E+01  0.72549660337E+01  0.77986441543E+01  0.10703701398E+02  0.51100000000E-03 0. -1.
        -12    1    3    3    0    0 -0.30628234450E+01  0.16994268945E+01  0.13546028300E+01  0.37555143525E+01  0.00000000000E+00 0.  1.
</event>
<event>
 7    1  0.2942034E-011  0.5052886E+02  0.7816164E-02  0.1300439E+00
        -11   -1    0    0    0    0  0.00000000000E+00  0.00000000000E+00  0.45593999997E+02  0.45594000000E+02  0.51100000000E-03 0.  1.
         11   -1    0    0    0    0 -0.00000000000E+00 -0.00000000000E+00 -0.45593999997E+02  0.45594000000E+02  0.51100000000E-03 0. -1.
    9900012    2    1    2    0    0 -0.79369795398E+01 -0.10275801461E+02  0.38530219042E+02  0.50528861799E+02  0.30000005923E+02 0.  0.
         12    1    1    2    0    0  0.79369795398E+01  0.10275801461E+02 -0.38530219042E+02  0.40659138201E+02  0.00000000000E+00 0. -1.
         11    1    3    3    0    0 -0.15742015331E+02 -0.98764082337E+01  0.34081593236E+02  0.38818932032E+02  0.51100000000E-03 0. -1.
        -11    1    3    3    0    0  0.58880291624E+01 -0.28101387449E+01  0.54183805876E+01  0.84808381447E+01  0.51100000000E-03 0.  1.
         12    1    3    3    0    0  0.19170066292E+01  0.24107455178E+01 -0.96975478194E+00  0.32290916223E+01  0.00000000000E+00 0. -1.
</event>
<event>
 7    1  0.2942034E-011  0.5052885E+02  0.7816164E-02  0.1300439E+00
        -11   -1    0    0    0    0  0.00000000000E+00  0.00000000000E+00  0.45593999997E+02  0.45594000000E+02  0.51100000000E-03 0.  1.
         11   -1    0    0    0    0 -0.00000000000E+00 -0.00000000000E+00 -0.45593999997E+02  0.45594000000E+02  0.51100000000E-03 0. -1.
    9900012    2    1    2    0    0 -0.17517861583E+02  0.37360583875E+01  0.36501138775E+02  0.50528846805E+02  0.29999960347E+02 0.  0.
         12    1    1    2    0    0  0.17517861583E+02 -0.37360583875E+01 -0.36501138775E+02  0.40659153195E+02  0.00000000000E+00 0. -1.
         11    1    3    3    0    0 -0.18365078001E+02  0.81119388291E+01  0.26186965363E+02  0.32997527130E+02  0.51100000000E-03 0.  1.
        -11    1    3    3    0    0 -0.28887475883E+01 -0.64307513943E+01  0.11144830918E+02  0.13187368296E+02  0.51100000000E-03 0. -1.
         12    1    3    3    0    0  0.37359640063E+01  0.20548709526E+01 -0.83065750551E+00  0.43439513786E+01  0.00000000000E+00 0. -1.
</event>
<event>
 7    1  0.2942034E-011  0.5052887E+02  0.7816164E-02  0.1300439E+00
        -11   -1    0    0    0    0  0.00000000000E+00  0.00000000000E+00  0.45593999997E+02  0.45594000000E+02  0.51100000000E-03 0.  1.
         11   -1    0    0    0    0 -0.00000000000E+00 -0.00000000000E+00 -0.45593999997E+02  0.45594000000E+02  0.51100000000E-03 0. -1.
    9900012    2    1    2    0    0 -0.33345158563E+01 -0.95070317814E+00  0.40511010510E+02  0.50528870581E+02  0.30000032619E+02 0.  0.
         12    1    1    2    0    0  0.33345158563E+01  0.95070317814E+00 -0.40511010510E+02  0.40659129419E+02  0.00000000000E+00 0. -1.
         11    1    3    3    0    0  0.14224511597E+01  0.96058000395E+01  0.14533593532E+02  0.17479133357E+02  0.51100000000E-03 0. -1.
        -11    1    3    3    0    0 -0.11931043108E+01 -0.98168415286E+01  0.27409078702E+02  0.29138487796E+02  0.51100000000E-03 0.  1.
        -12    1    3    3    0    0 -0.35638627051E+01 -0.73966168902E+00 -0.14316617241E+01  0.39112494280E+01  0.00000000000E+00 0.  1.
</event>
<event>
 7    1  0.2942034E-011  0.5052885E+02  0.7816164E-02  0.1300439E+00
        -11   -1    0    0    0    0  0.00000000000E+00  0.00000000000E+00  0.45593999997E+02  0.45594000000E+02  0.51100000000E-03 0.  1.
         11   -1    0    0    0    0 -0.00000000000E+00 -0.00000000000E+00 -0.45593999997E+02  0.45594000000E+02  0.51100000000E-03 0. -1.
    9900012    2    1    2    0    0 -0.45330771503E+01 -0.27662574385E+01  0.40310862227E+02  0.50528848728E+02  0.29999966194E+02 0.  0.
         12    1    1    2    0    0  0.45330771503E+01  0.27662574385E+01 -0.40310862227E+02  0.40659151272E+02  0.00000000000E+00 0. -1.
         11    1    3    3    0    0 -0.46805427444E+01 -0.46980785223E+01 -0.20757919877E+01  0.69489808477E+01  0.51100000000E-03 0. -1.
        -11    1    3    3    0    0  0.47338323488E+01 -0.76851800332E+00  0.19129898856E+02  0.19721886804E+02  0.51100000000E-03 0.  1.
         12    1    3    3    0    0 -0.45863667547E+01  0.27003390871E+01  0.23256755359E+02  0.23857981076E+02  0.00000000000E+00 0. -1.
</event>
<event>
 7    1  0.2942034E-011  0.5052886E+02  0.7816164E-02  0.1300439E+00
        -11   -1    0    0    0    0  0.00000000000E+00  0.00000000000E+00  0.45593999997E+02  0.45594000000E+02  0.51100000000E-03 0. -1.
         11   -1    0    0    0    0 -0.00000000000E+00 -0.00000000000E+00 -0.45593999997E+02  0.45594000000E+02  0.51100000000E-03 0.  1.
    9900012    2    1    2    0    0  0.23319903316E+02  0.18635929128E+02 -0.27605249042E+02  0.50528861792E+02  0.30000005904E+02 0.  0.
         12    1    1    2    0    0 -0.23319903316E+02 -0.18635929128E+02  0.27605249042E+02  0.40659138208E+02  0.00000000000E+00 0. -1.
         11    1    3    3    0    0 -0.25181274759E+01  0.35065452114E+01 -0.10092902201E+01  0.44334515126E+01  0.51100000000E-03 0. -1.
        -11    1    3    3    0    0  0.11677250181E+02  0.53994828209E+01 -0.25877447277E+02  0.28899046081E+02  0.51100000000E-03 0.  1.
        -12    1    3    3    0    0  0.14160780610E+02  0.97299010961E+01 -0.71851154457E+00  0.17196364199E+02  0.00000000000E+00 0.  1.
</event>
<event>
 7    1  0.2942034E-011  0.5052885E+02  0.7816164E-02  0.1300439E+00
        -11   -1    0    0    0    0  0.00000000000E+00  0.00000000000E+00  0.45593999997E+02  0.45594000000E+02  0.51100000000E-03 0.  1.
         11   -1    0    0    0    0 -0.00000000000E+00 -0.00000000000E+00 -0.45593999997E+02  0.45594000000E+02  0.51100000000E-03 0. -1.
    9900012    2    1    2    0    0  0.19210843815E+02  0.30732163852E+02  0.18429427463E+02  0.50528853283E+02  0.29999980039E+02 0.  0.
         12    1    1    2    0    0 -0.19210843815E+02 -0.30732163852E+02 -0.18429427463E+02  0.40659146717E+02  0.00000000000E+00 0. -1.
         11    1    3    3    0    0  0.42641552572E+01 -0.25185721174E+01 -0.51084417372E+01  0.71149422212E+01  0.51100000000E-03 0. -1.
        -11    1    3    3    0    0  0.65787289264E+01  0.15177981670E+02  0.99502897496E+01  0.19304379509E+02  0.51100000000E-03 0.  1.
         12    1    3    3    0    0  0.83679596312E+01  0.18072754300E+02  0.13587579451E+02  0.24109531553E+02  0.00000000000E+00 0. -1.
</event>
<event>
 7    1  0.2942034E-011  0.5052885E+02  0.7816164E-02  0.1300439E+00
        -11   -1    0    0    0    0  0.00000000000E+00  0.00000000000E+00  0.45593999997E+02  0.45594000000E+02  0.51100000000E-03 0.  1.
         11   -1    0    0    0    0 -0.00000000000E+00 -0.00000000000E+00 -0.45593999997E+02  0.45594000000E+02  0.51100000000E-03 0. -1.
    9900012    2    1    2    0    0  0.34252155713E+02 -0.21762941715E+02  0.25161440296E+01  0.50528846247E+02  0.29999958653E+02 0.  0.
         12    1    1    2    0    0 -0.34252155713E+02  0.21762941715E+02 -0.25161440296E+01  0.40659153753E+02  0.00000000000E+00 0. -1.
         11    1    3    3    0    0 -0.79394574455E+00 -0.10949223406E+02  0.74103536669E+01  0.13244968281E+02  0.51100000000E-03 0. -1.
        -11    1    3    3    0    0  0.32961825725E+02 -0.90897489589E+01 -0.39529699567E+01  0.34419928283E+02  0.51100000000E-03 0.  1.
         12    1    3    3    0    0  0.20842757334E+01 -0.17239693500E+01 -0.94123968069E+00  0.28639496834E+01  0.00000000000E+00 0. -1.
</event>
<event>
 7    1  0.2942034E-011  0.5052885E+02  0.7816164E-02  0.1300439E+00
        -11   -1    0    0    0    0  0.00000000000E+00  0.00000000000E+00  0.45593999997E+02  0.45594000000E+02  0.51100000000E-03 0. -1.
         11   -1    0    0    0    0 -0.00000000000E+00 -0.00000000000E+00 -0.45593999997E+02  0.45594000000E+02  0.51100000000E-03 0.  1.
    9900012    2    1    2    0    0  0.32548994931E+02 -0.23873831887E+02 -0.48754203800E+01  0.50528847969E+02  0.29999963887E+02 0.  0.
         12    1    1    2    0    0 -0.32548994931E+02  0.23873831887E+02  0.48754203800E+01  0.40659152031E+02  0.00000000000E+00 0. -1.
         11    1    3    3    0    0 -0.99614489734E+00 -0.39652886176E+01 -0.36965775361E+01  0.55118512515E+01  0.51100000000E-03 0. -1.
        -11    1    3    3    0    0  0.25549668225E+02 -0.52068436603E+01  0.60816499535E+01  0.26774675231E+02  0.51100000000E-03 0.  1.
        -12    1    3    3    0    0  0.79954716030E+01 -0.14701699610E+02 -0.72604927975E+01  0.18242321487E+02  0.00000000000E+00 0.  1.
</event>
<event>
 7    1  0.2942034E-011  0.5052886E+02  0.7816164E-02  0.1300439E+00
        -11   -1    0    0    0    0  0.00000000000E+00  0.00000000000E+00  0.45593999997E+02  0.45594000000E+02  0.51100000000E-03 0. -1.
         11   -1    0    0    0    0 -0.00000000000E+00 -0.00000000000E+00 -0.45593999997E+02  0.45594000000E+02  0.51100000000E-03 0.  1.
    9900012    2    1    2    0    0 -0.40030984803E+02 -0.55556901368E+01  0.44519567855E+01  0.50528863802E+02  0.30000012012E+02 0.  0.
         12    1    1    2    0    0  0.40030984803E+02  0.55556901368E+01 -0.44519567855E+01  0.40659136198E+02  0.00000000000E+00 0. -1.
         11    1    3    3    0    0 -0.66135286229E+01 -0.13110427044E+02 -0.37853511521E+01  0.15164133399E+02  0.51100000000E-03 0. -1.
        -11    1    3    3    0    0 -0.10237809698E+02  0.22906131044E+01  0.39579303171E+01  0.11212710130E+02  0.51100000000E-03 0.  1.
         12    1    3    3    0    0 -0.23179646482E+02  0.52641238031E+01  0.42793776204E+01  0.24152020272E+02  0.00000000000E+00 0. -1.
</event>
<event>
 7    1  0.2942034E-011  0.5052886E+02  0.7816164E-02  0.1300439E+00
        -11   -1    0    0    0    0  0.00000000000E+00  0.00000000000E+00  0.45593999997E+02  0.45594000000E+02  0.51100000000E-03 0.  1.
         11   -1    0    0    0    0 -0.00000000000E+00 -0.00000000000E+00 -0.45593999997E+02  0.45594000000E+02  0.51100000000E-03 0. -1.
    9900012    2    1    2    0    0  0.48718907110E+01  0.32026539987E+02  0.24570935493E+02  0.50528862605E+02  0.30000008376E+02 0.  0.
         12    1    1    2    0    0 -0.48718907110E+01 -0.32026539987E+02 -0.24570935493E+02  0.40659137395E+02  0.00000000000E+00 0. -1.
         11    1    3    3    0    0  0.95391087177E+01 -0.97528195213E+00  0.98226343225E+01  0.13726977647E+02  0.51100000000E-03 0. -1.
        -11    1    3    3    0    0  0.67974123233E+00  0.11738925841E+02  0.59403413155E+01  0.13173916777E+02  0.51100000000E-03 0.  1.
         12    1    3    3    0    0 -0.53469592390E+01  0.21262896098E+02  0.88079598554E+01  0.23627968182E+02  0.00000000000E+00 0. -1.
</event>
<event>
 7    1  0.2942034E-011  0.5052889E+02  0.7816164E-02  0.1300439E+00
        -11   -1    0    0    0    0  0.00000000000E+00  0.00000000000E+00  0.45593999997E+02  0.45594000000E+02  0.51100000000E-03 0. -1.
         11   -1    0    0    0    0 -0.00000000000E+00 -0.00000000000E+00 -0.45593999997E+02  0.45594000000E+02  0.51100000000E-03 0.  1.
    9900012    2    1    2    0    0 -0.24831892675E+02 -0.21445625593E+02 -0.24013019574E+02  0.50528894501E+02  0.30000105326E+02 0.  0.
         12    1    1    2    0    0  0.24831892675E+02  0.21445625593E+02  0.24013019574E+02  0.40659105499E+02  0.00000000000E+00 0. -1.
         11    1    3    3    0    0 -0.16729152778E+02  0.10100104375E+01 -0.46205632454E+01  0.17384886503E+02  0.51100000000E-03 0. -1.
        -11    1    3    3    0    0 -0.13890434494E+01 -0.12941254025E+02 -0.35660156148E+01  0.13495257132E+02  0.51100000000E-03 0.  1.
         12    1    3    3    0    0 -0.67136964474E+01 -0.95143820053E+01 -0.15826440714E+02  0.19648750866E+02  0.00000000000E+00 0. -1.
</event>
<event>
 7    1  0.2942034E-011  0.5052887E+02  0.7816164E-02  0.1300439E+00
        -11   -1    0    0    0    0  0.00000000000E+00  0.00000000000E+00  0.45593999997E+02  0.45594000000E+02  0.51100000000E-03 0.  1.
         11   -1    0    0    0    0 -0.00000000000E+00 -0.00000000000E+00 -0.45593999997E+02  0.45594000000E+02  0.51100000000E-03 0. -1.
    9900012    2    1    2    0    0 -0.20005738516E+02 -0.25394856558E+02  0.24658402788E+02  0.50528866448E+02  0.30000020054E+02 0.  0.
         12    1    1    2    0    0  0.20005738516E+02  0.25394856558E+02 -0.24658402788E+02  0.40659133552E+02  0.00000000000E+00 0. -1.
         11    1    3    3    0    0 -0.35509013514E+01  0.45392125905E+01  0.71918675305E+01  0.92160897449E+01  0.51100000000E-03 0. -1.
        -11    1    3    3    0    0 -0.10160289896E+02 -0.24441289395E+02  0.19302010319E+02  0.32759360810E+02  0.51100000000E-03 0.  1.
         12    1    3    3    0    0 -0.62945472684E+01 -0.54927797539E+01 -0.18354750615E+01  0.85534158931E+01  0.00000000000E+00 0. -1.
</event>
<event>
 7    1  0.2942034E-011  0.5052878E+02  0.7816164E-02  0.1300439E+00
        -11   -1    0    0    0    0  0.00000000000E+00  0.00000000000E+00  0.45593999997E+02  0.45594000000E+02  0.51100000000E-03 0.  1.
         11   -1    0    0    0    0 -0.00000000000E+00 -0.00000000000E+00 -0.45593999997E+02  0.45594000000E+02  0.51100000000E-03 0. -1.
    9900012    2    1    2    0    0  0.87473731289E+00  0.32183726525E+02  0.24831723598E+02  0.50528783145E+02  0.29999766847E+02 0.  0.
         12    1    1    2    0    0 -0.87473731289E+00 -0.32183726525E+02 -0.24831723598E+02  0.40659216855E+02  0.00000000000E+00 0. -1.
         11    1    3    3    0    0 -0.93016405287E+00  0.16959466159E+00  0.22941828050E+00  0.97293397671E+00  0.51100000000E-03 0. -1.
        -11    1    3    3    0    0  0.14317211864E+01 -0.34036539310E+01 -0.29139740438E+01  0.47038208540E+01  0.51100000000E-03 0.  1.
        -12    1    3    3    0    0  0.37318017933E+00  0.35417785795E+02  0.27516279361E+02  0.44852028314E+02  0.00000000000E+00 0.  1.
</event>
<event>
 7    1  0.2942034E-011  0.5052886E+02  0.7816164E-02  0.1300439E+00
        -11   -1    0    0    0    0  0.00000000000E+00  0.00000000000E+00  0.45593999997E+02  0.45594000000E+02  0.51100000000E-03 0. -1.
         11   -1    0    0    0    0 -0.00000000000E+00 -0.00000000000E+00 -0.45593999997E+02  0.45594000000E+02  0.51100000000E-03 0.  1.
    9900012    2    1    2    0    0 -0.25588632996E+02  0.30854905310E+02 -0.68089940327E+01  0.50528859330E+02  0.29999998420E+02 0.  0.
         12    1    1    2    0    0  0.25588632996E+02 -0.30854905310E+02  0.68089940327E+01  0.40659140670E+02  0.00000000000E+00 0. -1.
         11    1    3    3    0    0 -0.73850834528E+01  0.27112637955E+02  0.41876296060E+01  0.28410752128E+02  0.51100000000E-03 0. -1.
        -11    1    3    3    0    0 -0.95006430675E+01  0.12604080785E+01 -0.82909182567E+01  0.12672417805E+02  0.51100000000E-03 0.  1.
         12    1    3    3    0    0 -0.87029064755E+01  0.24818592762E+01 -0.27057053820E+01  0.94456893979E+01  0.00000000000E+00 0. -1.
</event>
<event>
 7    1  0.2942034E-011  0.5052885E+02  0.7816164E-02  0.1300439E+00
        -11   -1    0    0    0    0  0.00000000000E+00  0.00000000000E+00  0.45593999997E+02  0.45594000000E+02  0.51100000000E-03 0.  1.
         11   -1    0    0    0    0 -0.00000000000E+00 -0.00000000000E+00 -0.45593999997E+02  0.45594000000E+02  0.51100000000E-03 0. -1.
    9900012    2    1    2    0    0 -0.38915117225E+02  0.37129749262E+01 -0.11180081464E+02  0.50528846627E+02  0.29999959807E+02 0.  0.
         12    1    1    2    0    0  0.38915117225E+02 -0.37129749262E+01  0.11180081464E+02  0.40659153373E+02  0.00000000000E+00 0. -1.
         11    1    3    3    0    0 -0.53525059304E+01  0.36398487627E+01 -0.76441153975E+01  0.10016502345E+02  0.51100000000E-03 0. -1.
        -11    1    3    3    0    0 -0.31222111842E+02 -0.72870647473E+01 -0.10547243607E+00  0.32061389633E+02  0.51100000000E-03 0.  1.
        -12    1    3    3    0    0 -0.23404994529E+01  0.73601909108E+01 -0.34304936308E+01  0.84509546493E+01  0.00000000000E+00 0.  1.
</event>
<event>
 7    1  0.2942034E-011  0.5052886E+02  0.7816164E-02  0.1300439E+00
        -11   -1    0    0    0    0  0.00000000000E+00  0.00000000000E+00  0.45593999997E+02  0.45594000000E+02  0.51100000000E-03 0.  1.
         11   -1    0    0    0    0 -0.00000000000E+00 -0.00000000000E+00 -0.45593999997E+02  0.45594000000E+02  0.51100000000E-03 0. -1.
    9900012    2    1    2    0    0  0.26001410791E+01  0.16158932994E+02  0.37219530074E+02  0.50528864888E+02  0.30000015315E+02 0.  0.
         12    1    1    2    0    0 -0.26001410791E+01 -0.16158932994E+02 -0.37219530074E+02  0.40659135112E+02  0.00000000000E+00 0. -1.
         11    1    3    3    0    0 -0.61072066643E+01 -0.13933894685E+01  0.10099468274E+01  0.63450374551E+01  0.51100000000E-03 0. -1.
        -11    1    3    3    0    0  0.10408044364E+02  0.14334374847E+02  0.16725696843E+02  0.24362894428E+02  0.51100000000E-03 0.  1.
        -12    1    3    3    0    0 -0.17006966209E+01  0.32179476148E+01  0.19483886403E+02  0.19820933005E+02  0.00000000000E+00 0.  1.
</event>
<event>
 7    1  0.2942034E-011  0.5052886E+02  0.7816164E-02  0.1300439E+00
        -11   -1    0    0    0    0  0.00000000000E+00  0.00000000000E+00  0.45593999997E+02  0.45594000000E+02  0.51100000000E-03 0.  1.
         11   -1    0    0    0    0 -0.00000000000E+00 -0.00000000000E+00 -0.45593999997E+02  0.45594000000E+02  0.51100000000E-03 0. -1.
    9900012    2    1    2    0    0 -0.15705945548E+01 -0.17114551085E+01  0.40592729845E+02  0.50528861272E+02  0.30000004322E+02 0.  0.
         12    1    1    2    0    0  0.15705945548E+01  0.17114551085E+01 -0.40592729845E+02  0.40659138728E+02  0.00000000000E+00 0. -1.
         11    1    3    3    0    0  0.96469723978E+01  0.56612856909E+01  0.17837186348E+02  0.21054202649E+02  0.51100000000E-03 0.  1.
        -11    1    3    3    0    0 -0.11545152221E+02 -0.10458940919E+02  0.19749524037E+02  0.25153999382E+02  0.51100000000E-03 0. -1.
         12    1    3    3    0    0  0.32758526801E+00  0.30862001194E+01  0.30060194595E+01  0.43206592409E+01  0.00000000000E+00 0. -1.
</event>
<event>
 7    1  0.2942034E-011  0.5052873E+02  0.7816164E-02  0.1300439E+00
        -11   -1    0    0    0    0  0.00000000000E+00  0.00000000000E+00  0.45593999997E+02  0.45594000000E+02  0.51100000000E-03 0.  1.
         11   -1    0    0    0    0 -0.00000000000E+00 -0.00000000000E+00 -0.45593999997E+02  0.45594000000E+02  0.51100000000E-03 0. -1.
    9900012    2    1    2    0    0 -0.97290373864E+01  0.32767155675E+02  0.22018982441E+02  0.50528729874E+02  0.29999604921E+02 0.  0.
         12    1    1    2    0    0  0.97290373864E+01 -0.32767155675E+02 -0.22018982441E+02  0.40659270126E+02  0.00000000000E+00 0. -1.
         11    1    3    3    0    0  0.27183452197E+01  0.29437835591E+02  0.10128493407E+02  0.31249991103E+02  0.51100000000E-03 0. -1.
        -11    1    3    3    0    0 -0.59754915542E+01  0.32654145812E+01  0.10722443929E+02  0.12701977632E+02  0.51100000000E-03 0.  1.
         12    1    3    3    0    0 -0.64718910518E+01  0.63905502868E-01  0.11680451047E+01  0.65767611380E+01  0.00000000000E+00 0. -1.
</event>
<event>
 7    1  0.2942034E-011  0.5052886E+02  0.7816164E-02  0.1300439E+00
        -11   -1    0    0    0    0  0.00000000000E+00  0.00000000000E+00  0.45593999997E+02  0.45594000000E+02  0.51100000000E-03 0.  1.
         11   -1    0    0    0    0 -0.00000000000E+00 -0.00000000000E+00 -0.45593999997E+02  0.45594000000E+02  0.51100000000E-03 0. -1.
    9900012    2    1    2    0    0 -0.33305271340E+02 -0.99281454623E+01  0.21103476635E+02  0.50528857148E+02  0.29999991787E+02 0.  0.
         12    1    1    2    0    0  0.33305271340E+02  0.99281454623E+01 -0.21103476635E+02  0.40659142852E+02  0.00000000000E+00 0. -1.
         11    1    3    3    0    0 -0.46349637467E+01 -0.21844174323E+01 -0.70932977044E+00  0.51727862352E+01  0.51100000000E-03 0. -1.
        -11    1    3    3    0    0 -0.18467025231E+01  0.36309084666E+01  0.14851878111E+02  0.15400392534E+02  0.51100000000E-03 0.  1.
        -12    1    3    3    0    0 -0.26823605071E+02 -0.11374636497E+02  0.69609282938E+01  0.29955678379E+02  0.00000000000E+00 0.  1.
</event>
<event>
 7    1  0.2942034E-011  0.5052884E+02  0.7816164E-02  0.1300439E+00
        -11   -1    0    0    0    0  0.00000000000E+00  0.00000000000E+00  0.45593999997E+02  0.45594000000E+02  0.51100000000E-03 0.  1.
         11   -1    0    0    0    0 -0.00000000000E+00 -0.00000000000E+00 -0.45593999997E+02  0.45594000000E+02  0.51100000000E-03 0. -1.
    9900012    2    1    2    0    0  0.43699897306E+01  0.20462185524E+02  0.34862143748E+02  0.50528844655E+02  0.29999953814E+02 0.  0.
         12    1    1    2    0    0 -0.43699897306E+01 -0.20462185524E+02 -0.34862143748E+02  0.40659155345E+02  0.00000000000E+00 0. -1.
         11    1    3    3    0    0 -0.41159746729E+01  0.49819694306E+01  0.12051788919E+02  0.13675046008E+02  0.51100000000E-03 0. -1.
        -11    1    3    3    0    0  0.12982514837E+02  0.47341209775E+01  0.20891033879E+02  0.25047812075E+02  0.51100000000E-03 0.  1.
        -12    1    3    3    0    0 -0.44965504336E+01  0.10746095116E+02  0.19193209498E+01  0.11805986572E+02  0.00000000000E+00 0.  1.
</event>
<event>
 7    1  0.2942034E-011  0.5052886E+02  0.7816164E-02  0.1300439E+00
        -11   -1    0    0    0    0  0.00000000000E+00  0.00000000000E+00  0.45593999997E+02  0.45594000000E+02  0.51100000000E-03 0.  1.
         11   -1    0    0    0    0 -0.00000000000E+00 -0.00000000000E+00 -0.45593999997E+02  0.45594000000E+02  0.51100000000E-03 0. -1.
    9900012    2    1    2    0    0  0.16041293831E+02  0.20390695023E+02  0.31305942027E+02  0.50528861329E+02  0.30000004496E+02 0.  0.
         12    1    1    2    0    0 -0.16041293831E+02 -0.20390695023E+02 -0.31305942027E+02  0.40659138671E+02  0.00000000000E+00 0. -1.
         11    1    3    3    0    0  0.26656176454E+01  0.18372268309E+01 -0.34511124445E+01  0.47319232058E+01  0.51100000000E-03 0. -1.
        -11    1    3    3    0    0  0.10087602691E+02  0.11918939775E+02  0.35066412706E+02  0.38385858773E+02  0.51100000000E-03 0.  1.
        -12    1    3    3    0    0  0.32880734946E+01  0.66345284168E+01 -0.30935823438E+00  0.74110793503E+01  0.00000000000E+00 0.  1.
</event>
<event>
 7    1  0.2942034E-011  0.5052885E+02  0.7816164E-02  0.1300439E+00
        -11   -1    0    0    0    0  0.00000000000E+00  0.00000000000E+00  0.45593999997E+02  0.45594000000E+02  0.51100000000E-03 0. -1.
         11   -1    0    0    0    0 -0.00000000000E+00 -0.00000000000E+00 -0.45593999997E+02  0.45594000000E+02  0.51100000000E-03 0.  1.
    9900012    2    1    2    0    0 -0.21553803902E+02  0.32217150411E+02 -0.12274153525E+02  0.50528854805E+02  0.29999984665E+02 0.  0.
         12    1    1    2    0    0  0.21553803902E+02 -0.32217150411E+02  0.12274153525E+02  0.40659145195E+02  0.00000000000E+00 0. -1.
         11    1    3    3    0    0  0.27533195304E+01  0.12267836445E+02 -0.13132297429E+02  0.18180698983E+02  0.51100000000E-03 0. -1.
        -11    1    3    3    0    0 -0.81298872759E+01  0.67015587014E+01 -0.32768313449E+01  0.11033747327E+02  0.51100000000E-03 0.  1.
         12    1    3    3    0    0 -0.16177236156E+02  0.13247755264E+02  0.41349752483E+01  0.21314408495E+02  0.00000000000E+00 0. -1.
</event>
<event>
 7    1  0.2942034E-011  0.5052886E+02  0.7816164E-02  0.1300439E+00
        -11   -1    0    0    0    0  0.00000000000E+00  0.00000000000E+00  0.45593999997E+02  0.45594000000E+02  0.51100000000E-03 0.  1.
         11   -1    0    0    0    0 -0.00000000000E+00 -0.00000000000E+00 -0.45593999997E+02  0.45594000000E+02  0.51100000000E-03 0. -1.
    9900012    2    1    2    0    0 -0.29819002630E+02  0.26813510603E+02 -0.67103298545E+01  0.50528858403E+02  0.29999995600E+02 0.  0.
         12    1    1    2    0    0  0.29819002630E+02 -0.26813510603E+02  0.67103298545E+01  0.40659141597E+02  0.00000000000E+00 0. -1.
         11    1    3    3    0    0 -0.43242449809E+01  0.82048068111E+01 -0.11287944251E+02  0.14609436510E+02  0.51100000000E-03 0. -1.
        -11    1    3    3    0    0 -0.26178519424E+02  0.14627149994E+02  0.23563246647E+00  0.29988729868E+02  0.51100000000E-03 0.  1.
         12    1    3    3    0    0  0.68376177528E+00  0.39815537976E+01  0.43419819299E+01  0.59306920243E+01  0.00000000000E+00 0. -1.
</event>
<event>
 7    1  0.2942034E-011  0.5052887E+02  0.7816164E-02  0.1300439E+00
        -11   -1    0    0    0    0  0.00000000000E+00  0.00000000000E+00  0.45593999997E+02  0.45594000000E+02  0.51100000000E-03 0.  1.
         11   -1    0    0    0    0 -0.00000000000E+00 -0.00000000000E+00 -0.45593999997E+02  0.45594000000E+02  0.51100000000E-03 0. -1.
    9900012    2    1    2    0    0 -0.14851563521E+00  0.39998483210E+02  0.72982544240E+01  0.50528865311E+02  0.30000016599E+02 0.  0.
         12    1    1    2    0    0  0.14851563521E+00 -0.39998483210E+02 -0.72982544240E+01  0.40659134689E+02  0.00000000000E+00 0. -1.
         11    1    3    3    0    0 -0.71431861461E+00  0.59284236723E+01  0.13529757484E+02  0.14788874067E+02  0.51100000000E-03 0. -1.
        -11    1    3    3    0    0  0.24298098715E+01  0.16577995019E+02 -0.69378638718E+01  0.18134713955E+02  0.51100000000E-03 0.  1.
        -12    1    3    3    0    0 -0.18640068921E+01  0.17492064519E+02  0.70636081151E+00  0.17605277289E+02  0.00000000000E+00 0.  1.
</event>
<event>
 7    1  0.2942034E-011  0.5052888E+02  0.7816164E-02  0.1300439E+00
        -11   -1    0    0    0    0  0.00000000000E+00  0.00000000000E+00  0.45593999997E+02  0.45594000000E+02  0.51100000000E-03 0.  1.
         11   -1    0    0    0    0 -0.00000000000E+00 -0.00000000000E+00 -0.45593999997E+02  0.45594000000E+02  0.51100000000E-03 0. -1.
    9900012    2    1    2    0    0 -0.49832512042E+01 -0.39095224465E+02  0.99947295557E+01  0.50528880636E+02  0.30000063183E+02 0.  0.
         12    1    1    2    0    0  0.49832512042E+01  0.39095224465E+02 -0.99947295557E+01  0.40659119364E+02  0.00000000000E+00 0. -1.
         11    1    3    3    0    0 -0.75165505871E+00  0.73286141841E+00 -0.20202746850E+01  0.22767479549E+01  0.51100000000E-03 0. -1.
        -11    1    3    3    0    0  0.76547956746E+01 -0.19958111948E+02  0.13104041674E+02  0.25072655181E+02  0.51100000000E-03 0.  1.
        -12    1    3    3    0    0 -0.11886391820E+02 -0.19869973935E+02 -0.10890374333E+01  0.23179477501E+02  0.00000000000E+00 0.  1.
</event>
<event>
 7    1  0.2942034E-011  0.5052885E+02  0.7816164E-02  0.1300439E+00
        -11   -1    0    0    0    0  0.00000000000E+00  0.00000000000E+00  0.45593999997E+02  0.45594000000E+02  0.51100000000E-03 0.  1.
         11   -1    0    0    0    0 -0.00000000000E+00 -0.00000000000E+00 -0.45593999997E+02  0.45594000000E+02  0.51100000000E-03 0. -1.
    9900012    2    1    2    0    0 -0.32951635711E+02  0.63358127705E+01  0.22961127076E+02  0.50528853722E+02  0.29999981374E+02 0.  0.
         12    1    1    2    0    0  0.32951635711E+02 -0.63358127705E+01 -0.22961127076E+02  0.40659146278E+02  0.00000000000E+00 0. -1.
         11    1    3    3    0    0 -0.25901572083E+02  0.46471653362E+01  0.12453434342E+01  0.26344609744E+02  0.51100000000E-03 0. -1.
        -11    1    3    3    0    0  0.69500712775E+00  0.27408290735E+01  0.56588353081E+01  0.63259462709E+01  0.51100000000E-03 0.  1.
         12    1    3    3    0    0 -0.77450707550E+01 -0.10521816393E+01  0.16056948333E+02  0.17858297707E+02  0.00000000000E+00 0. -1.
</event>
<event>
 7    1  0.2942034E-011  0.5052887E+02  0.7816164E-02  0.1300439E+00
        -11   -1    0    0    0    0  0.00000000000E+00  0.00000000000E+00  0.45593999997E+02  0.45594000000E+02  0.51100000000E-03 0.  1.
         11   -1    0    0    0    0 -0.00000000000E+00 -0.00000000000E+00 -0.45593999997E+02  0.45594000000E+02  0.51100000000E-03 0. -1.
    9900012    2    1    2    0    0 -0.33080959917E+02 -0.22399302346E+02 -0.75555403765E+01  0.50528870091E+02  0.30000031127E+02 0.  0.
         12    1    1    2    0    0  0.33080959917E+02  0.22399302346E+02  0.75555403765E+01  0.40659129909E+02  0.00000000000E+00 0. -1.
         11    1    3    3    0    0 -0.29825534966E+02 -0.25847580182E+02 -0.13260161749E+02  0.41635223395E+02  0.51100000000E-03 0. -1.
        -11    1    3    3    0    0 -0.28340818471E+01 -0.46497349903E+00  0.27018361830E+01  0.39431128937E+01  0.51100000000E-03 0.  1.
         12    1    3    3    0    0 -0.42134310390E+00  0.39132513355E+01  0.30027851898E+01  0.49505338017E+01  0.00000000000E+00 0. -1.
</event>
<event>
 7    1  0.2942034E-011  0.5052886E+02  0.7816164E-02  0.1300439E+00
        -11   -1    0    0    0    0  0.00000000000E+00  0.00000000000E+00  0.45593999997E+02  0.45594000000E+02  0.51100000000E-03 0. -1.
         11   -1    0    0    0    0 -0.00000000000E+00 -0.00000000000E+00 -0.45593999997E+02  0.45594000000E+02  0.51100000000E-03 0.  1.
    9900012    2    1    2    0    0 -0.99070815112E+01  0.14956315733E+02 -0.36487312128E+02  0.50528860920E+02  0.30000003253E+02 0.  0.
         12    1    1    2    0    0  0.99070815112E+01 -0.14956315733E+02  0.36487312128E+02  0.40659139080E+02  0.00000000000E+00 0. -1.
         11    1    3    3    0    0  0.40086302061E+00  0.17846048799E+02 -0.21985205195E+02  0.28319452619E+02  0.51100000000E-03 0. -1.
        -11    1    3    3    0    0 -0.86654686601E+01 -0.69154578862E+01 -0.13961559478E+02  0.17828041064E+02  0.51100000000E-03 0.  1.
        -12    1    3    3    0    0 -0.16424758717E+01  0.40257248200E+01 -0.54054745578E+00  0.43813672372E+01  0.00000000000E+00 0.  1.
</event>
<event>
 7    1  0.2942034E-011  0.5052888E+02  0.7816164E-02  0.1300439E+00
        -11   -1    0    0    0    0  0.00000000000E+00  0.00000000000E+00  0.45593999997E+02  0.45594000000E+02  0.51100000000E-03 0.  1.
         11   -1    0    0    0    0 -0.00000000000E+00 -0.00000000000E+00 -0.45593999997E+02  0.45594000000E+02  0.51100000000E-03 0. -1.
    9900012    2    1    2    0    0  0.21227157648E+02 -0.32428089518E+02  0.12287827854E+02  0.50528881404E+02  0.30000065517E+02 0.  0.
         12    1    1    2    0    0 -0.21227157648E+02  0.32428089518E+02 -0.12287827854E+02  0.40659118596E+02  0.00000000000E+00 0. -1.
         11    1    3    3    0    0 -0.34586186242E+01 -0.45447120923E+01  0.70788145859E+01  0.90953871271E+01  0.51100000000E-03 0. -1.
        -11    1    3    3    0    0  0.10331972818E+02 -0.17684340964E+02 -0.49957989564E+01  0.21081830687E+02  0.51100000000E-03 0.  1.
        -12    1    3    3    0    0  0.14353803454E+02 -0.10199036461E+02  0.10204812225E+02  0.20351663590E+02  0.00000000000E+00 0.  1.
</event>
<event>
 7    1  0.2942034E-011  0.5052882E+02  0.7816164E-02  0.1300439E+00
        -11   -1    0    0    0    0  0.00000000000E+00  0.00000000000E+00  0.45593999997E+02  0.45594000000E+02  0.51100000000E-03 0. -1.
         11   -1    0    0    0    0 -0.00000000000E+00 -0.00000000000E+00 -0.45593999997E+02  0.45594000000E+02  0.51100000000E-03 0.  1.
    9900012    2    1    2    0    0 -0.27516651079E+02  0.13988323828E+02 -0.26463739559E+02  0.50528821435E+02  0.29999883234E+02 0.  0.
         12    1    1    2    0    0  0.27516651079E+02 -0.13988323828E+02  0.26463739559E+02  0.40659178565E+02  0.00000000000E+00 0. -1.
         11    1    3    3    0    0 -0.67557105628E+01 -0.50899019081E+01  0.73418324382E+00  0.84903328521E+01  0.51100000000E-03 0. -1.
        -11    1    3    3    0    0 -0.12918248629E+02  0.13794338100E+02 -0.77747461200E+01  0.20435547185E+02  0.51100000000E-03 0.  1.
        -12    1    3    3    0    0 -0.78426918866E+01  0.52838876358E+01 -0.19423176683E+02  0.21602941398E+02  0.00000000000E+00 0.  1.
</event>
<event>
 7    1  0.2942034E-011  0.5052885E+02  0.7816164E-02  0.1300439E+00
        -11   -1    0    0    0    0  0.00000000000E+00  0.00000000000E+00  0.45593999997E+02  0.45594000000E+02  0.51100000000E-03 0.  1.
         11   -1    0    0    0    0 -0.00000000000E+00 -0.00000000000E+00 -0.45593999997E+02  0.45594000000E+02  0.51100000000E-03 0. -1.
    9900012    2    1    2    0    0  0.28266908788E+02  0.62073248314E+01  0.28559012471E+02  0.50528853338E+02  0.29999980205E+02 0.  0.
         12    1    1    2    0    0 -0.28266908788E+02 -0.62073248314E+01 -0.28559012471E+02  0.40659146662E+02  0.00000000000E+00 0. -1.
         11    1    3    3    0    0  0.97879472929E+00  0.81003612619E+01  0.79581811385E+01  0.11397654978E+02  0.51100000000E-03 0. -1.
        -11    1    3    3    0    0  0.12071181902E+02 -0.77645240347E+01  0.21635637868E+01  0.14514898364E+02  0.51100000000E-03 0.  1.
        -12    1    3    3    0    0  0.15216932157E+02  0.58714876042E+01  0.18437267546E+02  0.24616299996E+02  0.00000000000E+00 0.  1.
</event>
<event>
 7    1  0.2942034E-011  0.5052884E+02  0.7816164E-02  0.1300439E+00
        -11   -1    0    0    0    0  0.00000000000E+00  0.00000000000E+00  0.45593999997E+02  0.45594000000E+02  0.51100000000E-03 0.  1.
         11   -1    0    0    0    0 -0.00000000000E+00 -0.00000000000E+00 -0.45593999997E+02  0.45594000000E+02  0.51100000000E-03 0. -1.
    9900012    2    1    2    0    0 -0.17568724890E+02  0.13461074248E+01  0.36642800866E+02  0.50528844145E+02  0.29999952265E+02 0.  0.
         12    1    1    2    0    0  0.17568724890E+02 -0.13461074248E+01 -0.36642800866E+02  0.40659155855E+02  0.00000000000E+00 0. -1.
         11    1    3    3    0    0 -0.12834325518E+02  0.19279302718E+01  0.15127515051E+02  0.19931847343E+02  0.51100000000E-03 0. -1.
        -11    1    3    3    0    0  0.48198206788E+01  0.66980239130E+01  0.14508631625E+02  0.16691152974E+02  0.51100000000E-03 0.  1.
        -12    1    3    3    0    0 -0.95542200509E+01 -0.72798467600E+01  0.70066541907E+01  0.13905843828E+02  0.00000000000E+00 0.  1.
</event>
<event>
 7    1  0.2942034E-011  0.5052886E+02  0.7816164E-02  0.1300439E+00
        -11   -1    0    0    0    0  0.00000000000E+00  0.00000000000E+00  0.45593999997E+02  0.45594000000E+02  0.51100000000E-03 0. -1.
         11   -1    0    0    0    0 -0.00000000000E+00 -0.00000000000E+00 -0.45593999997E+02  0.45594000000E+02  0.51100000000E-03 0.  1.
    9900012    2    1    2    0    0  0.84030711968E+01 -0.25542778944E+02 -0.30497870984E+02  0.50528864540E+02  0.30000014257E+02 0.  0.
         12    1    1    2    0    0 -0.84030711968E+01  0.25542778944E+02  0.30497870984E+02  0.40659135460E+02  0.00000000000E+00 0. -1.
         11    1    3    3    0    0 -0.65003225341E+01 -0.59222774172E+01  0.12550003084E+01  0.88827129239E+01  0.51100000000E-03 0. -1.
        -11    1    3    3    0    0  0.14871660704E+02 -0.20873874155E+02 -0.29593657848E+02  0.39149323103E+02  0.51100000000E-03 0.  1.
        -12    1    3    3    0    0  0.31733027280E-01  0.12533726273E+01 -0.21592134447E+01  0.24968285138E+01  0.00000000000E+00 0.  1.
</event>
<event>
 7    1  0.2942034E-011  0.5052887E+02  0.7816164E-02  0.1300439E+00
        -11   -1    0    0    0    0  0.00000000000E+00  0.00000000000E+00  0.45593999997E+02  0.45594000000E+02  0.51100000000E-03 0.  1.
         11   -1    0    0    0    0 -0.00000000000E+00 -0.00000000000E+00 -0.45593999997E+02  0.45594000000E+02  0.51100000000E-03 0. -1.
    9900012    2    1    2    0    0 -0.10858767047E+02  0.39087706373E+02  0.27209281213E+01  0.50528867433E+02  0.30000023050E+02 0.  0.
         12    1    1    2    0    0  0.10858767047E+02 -0.39087706373E+02 -0.27209281213E+01  0.40659132567E+02  0.00000000000E+00 0. -1.
         11    1    3    3    0    0 -0.15843971507E+02  0.27701823064E+02 -0.73200222513E+01  0.32741489890E+02  0.51100000000E-03 0. -1.
        -11    1    3    3    0    0  0.40375228631E+01  0.44278415563E+01  0.60154374431E+00  0.60223937811E+01  0.51100000000E-03 0.  1.
         12    1    3    3    0    0  0.94768159627E+00  0.69580417518E+01  0.94394066283E+01  0.11764983762E+02  0.00000000000E+00 0. -1.
</event>
<event>
 7    1  0.2942034E-011  0.5052885E+02  0.7816164E-02  0.1300439E+00
        -11   -1    0    0    0    0  0.00000000000E+00  0.00000000000E+00  0.45593999997E+02  0.45594000000E+02  0.51100000000E-03 0.  1.
         11   -1    0    0    0    0 -0.00000000000E+00 -0.00000000000E+00 -0.45593999997E+02  0.45594000000E+02  0.51100000000E-03 0. -1.
    9900012    2    1    2    0    0 -0.35253178745E+02 -0.17853862547E+02  0.95717908974E+01  0.50528853422E+02  0.29999980462E+02 0.  0.
         12    1    1    2    0    0  0.35253178745E+02  0.17853862547E+02 -0.95717908974E+01  0.40659146578E+02  0.00000000000E+00 0. -1.
         11    1    3    3    0    0 -0.95226128423E+01 -0.10354667576E+02  0.94088892403E+01  0.16924139356E+02  0.51100000000E-03 0. -1.
        -11    1    3    3    0    0 -0.68409262001E+01  0.26604432810E+01 -0.78141495860E+01  0.10720875139E+02  0.51100000000E-03 0.  1.
        -12    1    3    3    0    0 -0.18889639702E+02 -0.10159638253E+02  0.79770512431E+01  0.22883838927E+02  0.00000000000E+00 0.  1.
</event>
<event>
 7    1  0.2942034E-011  0.5052892E+02  0.7816164E-02  0.1300439E+00
        -11   -1    0    0    0    0  0.00000000000E+00  0.00000000000E+00  0.45593999997E+02  0.45594000000E+02  0.51100000000E-03 0. -1.
         11   -1    0    0    0    0 -0.00000000000E+00 -0.00000000000E+00 -0.45593999997E+02  0.45594000000E+02  0.51100000000E-03 0.  1.
    9900012    2    1    2    0    0 -0.30103136755E+02 -0.24978448874E+02  0.11092311523E+02  0.50528915830E+02  0.30000170156E+02 0.  0.
         12    1    1    2    0    0  0.30103136755E+02  0.24978448874E+02 -0.11092311523E+02  0.40659084170E+02  0.00000000000E+00 0. -1.
         11    1    3    3    0    0 -0.15856741975E+02 -0.22693672147E+02  0.13696343822E+01  0.27718494190E+02  0.51100000000E-03 0. -1.
        -11    1    3    3    0    0 -0.46759683204E+01  0.53186246781E+01 -0.17264210749E+00  0.70839433763E+01  0.51100000000E-03 0.  1.
        -12    1    3    3    0    0 -0.95704264601E+01 -0.76034014043E+01  0.98953192483E+01  0.15726478263E+02  0.00000000000E+00 0.  1.
</event>
<event>
 7    1  0.2942034E-011  0.5052886E+02  0.7816164E-02  0.1300439E+00
        -11   -1    0    0    0    0  0.00000000000E+00  0.00000000000E+00  0.45593999997E+02  0.45594000000E+02  0.51100000000E-03 0. -1.
         11   -1    0    0    0    0 -0.00000000000E+00 -0.00000000000E+00 -0.45593999997E+02  0.45594000000E+02  0.51100000000E-03 0.  1.
    9900012    2    1    2    0    0  0.74786682404E+01  0.96748419521E+01 -0.38776697325E+02  0.50528864484E+02  0.30000014087E+02 0.  0.
         12    1    1    2    0    0 -0.74786682404E+01 -0.96748419521E+01  0.38776697325E+02  0.40659135516E+02  0.00000000000E+00 0. -1.
         11    1    3    3    0    0  0.13194474617E+01  0.94682547210E+01 -0.34832851660E+01  0.10174579346E+02  0.51100000000E-03 0. -1.
        -11    1    3    3    0    0  0.80176255736E+01 -0.17237093632E+01 -0.36504119446E+02  0.37413957697E+02  0.51100000000E-03 0.  1.
        -12    1    3    3    0    0 -0.18584047950E+01  0.19302965942E+01  0.12107072870E+01  0.29403274407E+01  0.00000000000E+00 0.  1.
</event>
<event>
 7    1  0.2942034E-011  0.5052886E+02  0.7816164E-02  0.1300439E+00
        -11   -1    0    0    0    0  0.00000000000E+00  0.00000000000E+00  0.45593999997E+02  0.45594000000E+02  0.51100000000E-03 0.  1.
         11   -1    0    0    0    0 -0.00000000000E+00 -0.00000000000E+00 -0.45593999997E+02  0.45594000000E+02  0.51100000000E-03 0. -1.
    9900012    2    1    2    0    0 -0.69566940401E+01  0.39897866166E+02 -0.35958873269E+01  0.50528859303E+02  0.29999998336E+02 0.  0.
         12    1    1    2    0    0  0.69566940401E+01 -0.39897866166E+02  0.35958873269E+01  0.40659140697E+02  0.00000000000E+00 0. -1.
         11    1    3    3    0    0  0.35228324826E+01  0.17226650413E+02 -0.10671076341E+02  0.20567929008E+02  0.51100000000E-03 0. -1.
        -11    1    3    3    0    0 -0.99996529232E+01  0.15440383047E+02 -0.18223758461E+01  0.18485657716E+02  0.51100000000E-03 0.  1.
         12    1    3    3    0    0 -0.47987359959E+00  0.72308327066E+01  0.88975648604E+01  0.11475272578E+02  0.00000000000E+00 0. -1.
</event>
<event>
 7    1  0.2942034E-011  0.5052879E+02  0.7816164E-02  0.1300439E+00
        -11   -1    0    0    0    0  0.00000000000E+00  0.00000000000E+00  0.45593999997E+02  0.45594000000E+02  0.51100000000E-03 0.  1.
         11   -1    0    0    0    0 -0.00000000000E+00 -0.00000000000E+00 -0.45593999997E+02  0.45594000000E+02  0.51100000000E-03 0. -1.
    9900012    2    1    2    0    0  0.18893862252E+02  0.96456999172E+00  0.35989762350E+02  0.50528789235E+02  0.29999785357E+02 0.  0.
         12    1    1    2    0    0 -0.18893862252E+02 -0.96456999172E+00 -0.35989762350E+02  0.40659210765E+02  0.00000000000E+00 0. -1.
         11    1    3    3    0    0  0.37278591189E+01 -0.37804692702E+01  0.32343377145E+02  0.32776255535E+02  0.51100000000E-03 0. -1.
        -11    1    3    3    0    0  0.27443945333E+01 -0.80077101882E+00  0.29848390030E+01  0.41330617845E+01  0.51100000000E-03 0.  1.
         12    1    3    3    0    0  0.12421608600E+02  0.55458102808E+01  0.66154620191E+00  0.13619471915E+02  0.00000000000E+00 0. -1.
</event>
<event>
 7    1  0.2942034E-011  0.5052882E+02  0.7816164E-02  0.1300439E+00
        -11   -1    0    0    0    0  0.00000000000E+00  0.00000000000E+00  0.45593999997E+02  0.45594000000E+02  0.51100000000E-03 0.  1.
         11   -1    0    0    0    0 -0.00000000000E+00 -0.00000000000E+00 -0.45593999997E+02  0.45594000000E+02  0.51100000000E-03 0. -1.
    9900012    2    1    2    0    0 -0.28893067981E+02  0.38975758593E+00  0.28604322199E+02  0.50528824691E+02  0.29999893131E+02 0.  0.
         12    1    1    2    0    0  0.28893067981E+02 -0.38975758593E+00 -0.28604322199E+02  0.40659175309E+02  0.00000000000E+00 0. -1.
         11    1    3    3    0    0 -0.61852773383E+01 -0.27332278011E+01 -0.35621360664E+01  0.76431016990E+01  0.51100000000E-03 0. -1.
        -11    1    3    3    0    0 -0.21890353327E+02  0.74273197147E+01  0.30330867502E+02  0.38135471291E+02  0.51100000000E-03 0.  1.
        -12    1    3    3    0    0 -0.81743731573E+00 -0.43043343277E+01  0.18355907634E+01  0.47502517007E+01  0.00000000000E+00 0.  1.
</event>
<event>
 7    1  0.2942034E-011  0.5052886E+02  0.7816164E-02  0.1300439E+00
        -11   -1    0    0    0    0  0.00000000000E+00  0.00000000000E+00  0.45593999997E+02  0.45594000000E+02  0.51100000000E-03 0.  1.
         11   -1    0    0    0    0 -0.00000000000E+00 -0.00000000000E+00 -0.45593999997E+02  0.45594000000E+02  0.51100000000E-03 0. -1.
    9900012    2    1    2    0    0 -0.19057428834E+02 -0.20737545178E+02  0.29324640699E+02  0.50528856798E+02  0.29999990724E+02 0.  0.
         12    1    1    2    0    0  0.19057428834E+02  0.20737545178E+02 -0.29324640699E+02  0.40659143202E+02  0.00000000000E+00 0. -1.
         11    1    3    3    0    0  0.67684894787E+01 -0.59929473086E+01  0.20793172166E+01  0.92763908722E+01  0.51100000000E-03 0. -1.
        -11    1    3    3    0    0 -0.11985045213E+02 -0.54667843480E+01  0.66367465534E+01  0.14750371010E+02  0.51100000000E-03 0.  1.
         12    1    3    3    0    0 -0.13840873099E+02 -0.92778135219E+01  0.20608576929E+02  0.26502094916E+02  0.00000000000E+00 0. -1.
</event>
<event>
 7    1  0.2942034E-011  0.5052887E+02  0.7816164E-02  0.1300439E+00
        -11   -1    0    0    0    0  0.00000000000E+00  0.00000000000E+00  0.45593999997E+02  0.45594000000E+02  0.51100000000E-03 0.  1.
         11   -1    0    0    0    0 -0.00000000000E+00 -0.00000000000E+00 -0.45593999997E+02  0.45594000000E+02  0.51100000000E-03 0. -1.
    9900012    2    1    2    0    0 -0.84085779419E+01 -0.65207024967E+01  0.39242080547E+02  0.50528872738E+02  0.30000039174E+02 0.  0.
         12    1    1    2    0    0  0.84085779419E+01  0.65207024967E+01 -0.39242080547E+02  0.40659127262E+02  0.00000000000E+00 0. -1.
         11    1    3    3    0    0 -0.50328787046E+01  0.69449567142E+01  0.33563194566E+01  0.92101667940E+01  0.51100000000E-03 0. -1.
        -11    1    3    3    0    0 -0.18740863955E+01 -0.11475240671E+02  0.10066858457E+02  0.15379694006E+02  0.51100000000E-03 0.  1.
         12    1    3    3    0    0 -0.15016128419E+01 -0.19904185403E+01  0.25818902634E+02  0.25939011938E+02  0.00000000000E+00 0. -1.
</event>
<event>
 7    1  0.2942034E-011  0.5052886E+02  0.7816164E-02  0.1300439E+00
        -11   -1    0    0    0    0  0.00000000000E+00  0.00000000000E+00  0.45593999997E+02  0.45594000000E+02  0.51100000000E-03 0. -1.
         11   -1    0    0    0    0 -0.00000000000E+00 -0.00000000000E+00 -0.45593999997E+02  0.45594000000E+02  0.51100000000E-03 0.  1.
    9900012    2    1    2    0    0  0.13761209255E+02  0.19114175818E+02 -0.33142762695E+02  0.50528864293E+02  0.30000013506E+02 0.  0.
         12    1    1    2    0    0 -0.13761209255E+02 -0.19114175818E+02  0.33142762695E+02  0.40659135707E+02  0.00000000000E+00 0. -1.
         11    1    3    3    0    0 -0.48187414070E+01  0.13439174051E+02 -0.18214195872E+02  0.23142787201E+02  0.51100000000E-03 0. -1.
        -11    1    3    3    0    0  0.88487123044E+01  0.41239479824E+01 -0.14553859416E+02  0.17524881756E+02  0.51100000000E-03 0.  1.
         12    1    3    3    0    0  0.97312383575E+01  0.15510537846E+01 -0.37470740683E+00  0.98611953359E+01  0.00000000000E+00 0. -1.
</event>
<event>
 7    1  0.2942034E-011  0.5052886E+02  0.7816164E-02  0.1300439E+00
        -11   -1    0    0    0    0  0.00000000000E+00  0.00000000000E+00  0.45593999997E+02  0.45594000000E+02  0.51100000000E-03 0.  1.
         11   -1    0    0    0    0 -0.00000000000E+00 -0.00000000000E+00 -0.45593999997E+02  0.45594000000E+02  0.51100000000E-03 0. -1.
    9900012    2    1    2    0    0  0.33531656125E+02 -0.22082151528E+02  0.64165943879E+01  0.50528855123E+02  0.29999985632E+02 0.  0.
         12    1    1    2    0    0 -0.33531656125E+02  0.22082151528E+02 -0.64165943879E+01  0.40659144877E+02  0.00000000000E+00 0. -1.
         11    1    3    3    0    0  0.25973669710E+01 -0.51996561539E+01 -0.42885263591E+01  0.72231709031E+01  0.51100000000E-03 0. -1.
        -11    1    3    3    0    0  0.30054900723E+02 -0.55438251628E+01  0.84898925730E+01  0.31719226520E+02  0.51100000000E-03 0.  1.
        -12    1    3    3    0    0  0.87938843136E+00 -0.11338670211E+02  0.22152281740E+01  0.11586457700E+02  0.00000000000E+00 0.  1.
</event>
<event>
 7    1  0.2942034E-011  0.5052876E+02  0.7816164E-02  0.1300439E+00
        -11   -1    0    0    0    0  0.00000000000E+00  0.00000000000E+00  0.45593999997E+02  0.45594000000E+02  0.51100000000E-03 0.  1.
         11   -1    0    0    0    0 -0.00000000000E+00 -0.00000000000E+00 -0.45593999997E+02  0.45594000000E+02  0.51100000000E-03 0. -1.
    9900012    2    1    2    0    0  0.15927205141E+02  0.28625643149E+02  0.24084654003E+02  0.50528759134E+02  0.29999693863E+02 0.  0.
         12    1    1    2    0    0 -0.15927205141E+02 -0.28625643149E+02 -0.24084654003E+02  0.40659240866E+02  0.00000000000E+00 0. -1.
         11    1    3    3    0    0  0.70679767595E+01  0.13838881117E+02  0.18831767933E+02  0.24415290492E+02  0.51100000000E-03 0. -1.
        -11    1    3    3    0    0  0.14502717142E+02  0.75749658507E+01  0.42249998113E+01  0.16898506911E+02  0.51100000000E-03 0.  1.
        -12    1    3    3    0    0 -0.56434887606E+01  0.72117961818E+01  0.10278862584E+01  0.92149617319E+01  0.00000000000E+00 0.  1.
</event>
<event>
 7    1  0.2942034E-011  0.5052886E+02  0.7816164E-02  0.1300439E+00
        -11   -1    0    0    0    0  0.00000000000E+00  0.00000000000E+00  0.45593999997E+02  0.45594000000E+02  0.51100000000E-03 0. -1.
         11   -1    0    0    0    0 -0.00000000000E+00 -0.00000000000E+00 -0.45593999997E+02  0.45594000000E+02  0.51100000000E-03 0.  1.
    9900012    2    1    2    0    0 -0.89569988511E+01 -0.39042720997E+02 -0.69716343610E+01  0.50528861090E+02  0.30000003769E+02 0.  0.
         12    1    1    2    0    0  0.89569988511E+01  0.39042720997E+02  0.69716343610E+01  0.40659138910E+02  0.00000000000E+00 0. -1.
         11    1    3    3    0    0 -0.14703461663E+02 -0.27130126374E+02 -0.12389325687E+02  0.33252532733E+02  0.51100000000E-03 0.  1.
        -11    1    3    3    0    0  0.16527119591E+01 -0.32113881332E+01  0.66639789179E+01  0.75797813848E+01  0.51100000000E-03 0. -1.
        -12    1    3    3    0    0  0.40937508528E+01 -0.87012064897E+01 -0.12462875921E+01  0.96965469722E+01  0.00000000000E+00 0.  1.
</event>
<event>
 7    1  0.2942034E-011  0.5052885E+02  0.7816164E-02  0.1300439E+00
        -11   -1    0    0    0    0  0.00000000000E+00  0.00000000000E+00  0.45593999997E+02  0.45594000000E+02  0.51100000000E-03 0.  1.
         11   -1    0    0    0    0 -0.00000000000E+00 -0.00000000000E+00 -0.45593999997E+02  0.45594000000E+02  0.51100000000E-03 0. -1.
    9900012    2    1    2    0    0  0.23521846658E+02 -0.29107758238E+02  0.15894268850E+02  0.50528847991E+02  0.29999963953E+02 0.  0.
         12    1    1    2    0    0 -0.23521846658E+02  0.29107758238E+02 -0.15894268850E+02  0.40659152009E+02  0.00000000000E+00 0. -1.
         11    1    3    3    0    0  0.84678015603E+00  0.99753436110E+00  0.57671312295E+01  0.59137056330E+01  0.51100000000E-03 0. -1.
        -11    1    3    3    0    0  0.26579372259E+02 -0.23007328121E+02  0.65470655581E+01  0.35758415018E+02  0.51100000000E-03 0.  1.
        -12    1    3    3    0    0 -0.39043057578E+01 -0.70979644787E+01  0.35800720625E+01  0.88567273393E+01  0.00000000000E+00 0.  1.
</event>
<event>
 7    1  0.2942034E-011  0.5052886E+02  0.7816164E-02  0.1300439E+00
        -11   -1    0    0    0    0  0.00000000000E+00  0.00000000000E+00  0.45593999997E+02  0.45594000000E+02  0.51100000000E-03 0.  1.
         11   -1    0    0    0    0 -0.00000000000E+00 -0.00000000000E+00 -0.45593999997E+02  0.45594000000E+02  0.51100000000E-03 0. -1.
    9900012    2    1    2    0    0 -0.24820934298E+02  0.28813230583E+02  0.14383487971E+02  0.50528858810E+02  0.29999996840E+02 0.  0.
         12    1    1    2    0    0  0.24820934298E+02 -0.28813230583E+02 -0.14383487971E+02  0.40659141190E+02  0.00000000000E+00 0. -1.
         11    1    3    3    0    0 -0.24266870798E+02  0.17691720305E+02  0.70383445115E+01  0.30845036544E+02  0.51100000000E-03 0. -1.
        -11    1    3    3    0    0 -0.89822517288E+00  0.14659113689E+02  0.55336461202E+01  0.15694510577E+02  0.51100000000E-03 0.  1.
        -12    1    3    3    0    0  0.34416167285E+00 -0.35376034103E+01  0.18114973397E+01  0.39893116897E+01  0.00000000000E+00 0.  1.
</event>
<event>
 7    1  0.2942034E-011  0.5052887E+02  0.7816164E-02  0.1300439E+00
        -11   -1    0    0    0    0  0.00000000000E+00  0.00000000000E+00  0.45593999997E+02  0.45594000000E+02  0.51100000000E-03 0. -1.
         11   -1    0    0    0    0 -0.00000000000E+00 -0.00000000000E+00 -0.45593999997E+02  0.45594000000E+02  0.51100000000E-03 0.  1.
    9900012    2    1    2    0    0 -0.23434537261E+02  0.33222179965E+02  0.52339671674E+00  0.50528871598E+02  0.30000035711E+02 0.  0.
         12    1    1    2    0    0  0.23434537261E+02 -0.33222179965E+02 -0.52339671674E+00  0.40659128402E+02  0.00000000000E+00 0. -1.
         11    1    3    3    0    0 -0.10298535826E+02  0.19664527547E+02 -0.56043325793E+00  0.22205124848E+02  0.51100000000E-03 0. -1.
        -11    1    3    3    0    0 -0.18026508295E+02  0.57663284718E+01  0.22148226358E+01  0.19055471260E+02  0.51100000000E-03 0.  1.
        -12    1    3    3    0    0  0.48905068599E+01  0.77913239459E+01 -0.11309926611E+01  0.92682754910E+01  0.00000000000E+00 0.  1.
</event>
<event>
 7    1  0.2942034E-011  0.5052883E+02  0.7816164E-02  0.1300439E+00
        -11   -1    0    0    0    0  0.00000000000E+00  0.00000000000E+00  0.45593999997E+02  0.45594000000E+02  0.51100000000E-03 0. -1.
         11   -1    0    0    0    0 -0.00000000000E+00 -0.00000000000E+00 -0.45593999997E+02  0.45594000000E+02  0.51100000000E-03 0.  1.
    9900012    2    1    2    0    0 -0.40509604340E+02  0.17264642084E+01  0.30264115603E+01  0.50528832652E+02  0.29999917330E+02 0.  0.
         12    1    1    2    0    0  0.40509604340E+02 -0.17264642084E+01 -0.30264115603E+01  0.40659167348E+02  0.00000000000E+00 0. -1.
         11    1    3    3    0    0 -0.10474401783E+02  0.11295348360E+02  0.16643366947E+01  0.15494128055E+02  0.51100000000E-03 0. -1.
        -11    1    3    3    0    0 -0.23395510438E+02 -0.13024152698E+01 -0.28935443594E+01  0.23609718199E+02  0.51100000000E-03 0.  1.
         12    1    3    3    0    0 -0.66396921191E+01 -0.82664688821E+01  0.42556192250E+01  0.11424986398E+02  0.00000000000E+00 0. -1.
</event>
<event>
 7    1  0.2942034E-011  0.5052886E+02  0.7816164E-02  0.1300439E+00
        -11   -1    0    0    0    0  0.00000000000E+00  0.00000000000E+00  0.45593999997E+02  0.45594000000E+02  0.51100000000E-03 0. -1.
         11   -1    0    0    0    0 -0.00000000000E+00 -0.00000000000E+00 -0.45593999997E+02  0.45594000000E+02  0.51100000000E-03 0.  1.
    9900012    2    1    2    0    0  0.33117583270E+02  0.30565219207E+01 -0.23389076963E+02  0.50528861186E+02  0.30000004061E+02 0.  0.
         12    1    1    2    0    0 -0.33117583270E+02 -0.30565219207E+01  0.23389076963E+02  0.40659138814E+02  0.00000000000E+00 0. -1.
         11    1    3    3    0    0  0.30364766210E+02  0.88254607354E+01 -0.15415342080E+02  0.35178694630E+02  0.51100000000E-03 0. -1.
        -11    1    3    3    0    0  0.23996559707E+01 -0.78034538222E+01 -0.11792273370E+01  0.82488070474E+01  0.51100000000E-03 0.  1.
         12    1    3    3    0    0  0.35316108968E+00  0.20345150075E+01 -0.67945075463E+01  0.71013595085E+01  0.00000000000E+00 0. -1.
</event>
<event>
 7    1  0.2942034E-011  0.5052887E+02  0.7816164E-02  0.1300439E+00
        -11   -1    0    0    0    0  0.00000000000E+00  0.00000000000E+00  0.45593999997E+02  0.45594000000E+02  0.51100000000E-03 0.  1.
         11   -1    0    0    0    0 -0.00000000000E+00 -0.00000000000E+00 -0.45593999997E+02  0.45594000000E+02  0.51100000000E-03 0. -1.
    9900012    2    1    2    0    0  0.31767197532E+02  0.80328441254E+01  0.24072462139E+02  0.50528869941E+02  0.30000030672E+02 0.  0.
         12    1    1    2    0    0 -0.31767197532E+02 -0.80328441254E+01 -0.24072462139E+02  0.40659130059E+02  0.00000000000E+00 0. -1.
         11    1    3    3    0    0  0.73156436318E+01 -0.17816320283E+01 -0.65927463326E+01  0.10007854860E+02  0.51100000000E-03 0. -1.
        -11    1    3    3    0    0  0.15563147810E+02  0.59960823497E+01  0.21340584413E+02  0.27084776474E+02  0.51100000000E-03 0.  1.
         12    1    3    3    0    0  0.88884060900E+01  0.38183938040E+01  0.93246240582E+01  0.13436238606E+02  0.00000000000E+00 0. -1.
</event>
<event>
 7    1  0.2942034E-011  0.5052886E+02  0.7816164E-02  0.1300439E+00
        -11   -1    0    0    0    0  0.00000000000E+00  0.00000000000E+00  0.45593999997E+02  0.45594000000E+02  0.51100000000E-03 0.  1.
         11   -1    0    0    0    0 -0.00000000000E+00 -0.00000000000E+00 -0.45593999997E+02  0.45594000000E+02  0.51100000000E-03 0. -1.
    9900012    2    1    2    0    0  0.29850882892E+02  0.25431589754E+02  0.10738919938E+02  0.50528863656E+02  0.30000011568E+02 0.  0.
         12    1    1    2    0    0 -0.29850882892E+02 -0.25431589754E+02 -0.10738919938E+02  0.40659136344E+02  0.00000000000E+00 0. -1.
         11    1    3    3    0    0  0.23002526666E+02  0.28193065783E+02 -0.16755222211E+00  0.36386718253E+02  0.51100000000E-03 0. -1.
        -11    1    3    3    0    0  0.69534844085E+01 -0.11637594987E+01  0.10182238224E+02  0.12384799437E+02  0.51100000000E-03 0.  1.
         12    1    3    3    0    0 -0.10512818221E+00 -0.15977165306E+01  0.72423393557E+00  0.17573459649E+01  0.00000000000E+00 0. -1.
</event>
<event>
 7    1  0.2942034E-011  0.5052886E+02  0.7816164E-02  0.1300439E+00
        -11   -1    0    0    0    0  0.00000000000E+00  0.00000000000E+00  0.45593999997E+02  0.45594000000E+02  0.51100000000E-03 0.  1.
         11   -1    0    0    0    0 -0.00000000000E+00 -0.00000000000E+00 -0.45593999997E+02  0.45594000000E+02  0.51100000000E-03 0. -1.
    9900012    2    1    2    0    0 -0.40260009284E+02  0.46296699974E+01  0.32959873474E+01  0.50528859276E+02  0.29999998256E+02 0.  0.
         12    1    1    2    0    0  0.40260009284E+02 -0.46296699974E+01 -0.32959873474E+01  0.40659140724E+02  0.00000000000E+00 0. -1.
         11    1    3    3    0    0 -0.47141483475E+01 -0.45868030184E+01  0.27561257482E+01  0.71314925488E+01  0.51100000000E-03 0. -1.
        -11    1    3    3    0    0 -0.14271900698E+02  0.15608762008E+02  0.10762460293E+01  0.21177320575E+02  0.51100000000E-03 0.  1.
        -12    1    3    3    0    0 -0.21273960237E+02 -0.63922889923E+01 -0.53638443006E+00  0.22220046152E+02  0.00000000000E+00 0.  1.
</event>
<event>
 7    1  0.2942034E-011  0.5052886E+02  0.7816164E-02  0.1300439E+00
        -11   -1    0    0    0    0  0.00000000000E+00  0.00000000000E+00  0.45593999997E+02  0.45594000000E+02  0.51100000000E-03 0.  1.
         11   -1    0    0    0    0 -0.00000000000E+00 -0.00000000000E+00 -0.45593999997E+02  0.45594000000E+02  0.51100000000E-03 0. -1.
    9900012    2    1    2    0    0 -0.40108493132E+02  0.59790979511E+01  0.29538376010E+01  0.50528856008E+02  0.29999988321E+02 0.  0.
         12    1    1    2    0    0  0.40108493132E+02 -0.59790979511E+01 -0.29538376010E+01  0.40659143992E+02  0.00000000000E+00 0. -1.
         11    1    3    3    0    0 -0.24359503564E+02 -0.26011102625E+01 -0.90551037666E+01  0.26117926659E+02  0.51100000000E-03 0. -1.
        -11    1    3    3    0    0 -0.13016220148E+02  0.11110739701E+02  0.11577015656E+02  0.20661505642E+02  0.51100000000E-03 0.  1.
        -12    1    3    3    0    0 -0.27327694204E+01 -0.25305314875E+01  0.43192571165E+00  0.37494237070E+01  0.00000000000E+00 0.  1.
</event>
<event>
 7    1  0.2942034E-011  0.5052885E+02  0.7816164E-02  0.1300439E+00
        -11   -1    0    0    0    0  0.00000000000E+00  0.00000000000E+00  0.45593999997E+02  0.45594000000E+02  0.51100000000E-03 0.  1.
         11   -1    0    0    0    0 -0.00000000000E+00 -0.00000000000E+00 -0.45593999997E+02  0.45594000000E+02  0.51100000000E-03 0. -1.
    9900012    2    1    2    0    0 -0.19480761075E+02  0.28467997560E+02  0.21522992691E+02  0.50528854024E+02  0.29999982291E+02 0.  0.
         12    1    1    2    0    0  0.19480761075E+02 -0.28467997560E+02 -0.21522992691E+02  0.40659145976E+02  0.00000000000E+00 0. -1.
         11    1    3    3    0    0 -0.10807802675E+02  0.16262190183E+01  0.11511379877E+02  0.15873407129E+02  0.51100000000E-03 0. -1.
        -11    1    3    3    0    0 -0.18007470133E+01  0.21568280631E+02  0.30478720499E+00  0.21645468687E+02  0.51100000000E-03 0.  1.
        -12    1    3    3    0    0 -0.68722113867E+01  0.52734979105E+01  0.97068256092E+01  0.13009978208E+02  0.00000000000E+00 0.  1.
</event>
<event>
 7    1  0.2942034E-011  0.5052886E+02  0.7816164E-02  0.1300439E+00
        -11   -1    0    0    0    0  0.00000000000E+00  0.00000000000E+00  0.45593999997E+02  0.45594000000E+02  0.51100000000E-03 0. -1.
         11   -1    0    0    0    0 -0.00000000000E+00 -0.00000000000E+00 -0.45593999997E+02  0.45594000000E+02  0.51100000000E-03 0.  1.
    9900012    2    1    2    0    0 -0.26320334606E+02 -0.10584390020E+02 -0.29126896790E+02  0.50528862743E+02  0.30000008793E+02 0.  0.
         12    1    1    2    0    0  0.26320334606E+02  0.10584390020E+02  0.29126896790E+02  0.40659137257E+02  0.00000000000E+00 0. -1.
         11    1    3    3    0    0 -0.26649586683E+01 -0.12598961804E+02 -0.35993254586E+01  0.13371274706E+02  0.51100000000E-03 0. -1.
        -11    1    3    3    0    0 -0.24980554876E+02  0.52083426034E+00 -0.23271136511E+02  0.34144475176E+02  0.51100000000E-03 0.  1.
         12    1    3    3    0    0  0.13251789389E+01  0.14937375242E+01 -0.22564348206E+01  0.30131128607E+01  0.00000000000E+00 0. -1.
</event>
<event>
 7    1  0.2942034E-011  0.5052886E+02  0.7816164E-02  0.1300439E+00
        -11   -1    0    0    0    0  0.00000000000E+00  0.00000000000E+00  0.45593999997E+02  0.45594000000E+02  0.51100000000E-03 0.  1.
         11   -1    0    0    0    0 -0.00000000000E+00 -0.00000000000E+00 -0.45593999997E+02  0.45594000000E+02  0.51100000000E-03 0. -1.
    9900012    2    1    2    0    0  0.14274363664E+02 -0.34364087091E+02  0.16386503438E+02  0.50528862841E+02  0.30000009092E+02 0.  0.
         12    1    1    2    0    0 -0.14274363664E+02  0.34364087091E+02 -0.16386503438E+02  0.40659137159E+02  0.00000000000E+00 0. -1.
         11    1    3    3    0    0  0.19183032597E+02 -0.10794632158E+02  0.47248762372E+01  0.22513046856E+02  0.51100000000E-03 0. -1.
        -11    1    3    3    0    0 -0.54817655398E+01 -0.70537174709E+01  0.45425483055E+01  0.10021947364E+02  0.51100000000E-03 0.  1.
        -12    1    3    3    0    0  0.57309660646E+00 -0.16515737462E+02  0.71190788954E+01  0.17993868621E+02  0.00000000000E+00 0.  1.
</event>
<event>
 7    1  0.2942034E-011  0.5052883E+02  0.7816164E-02  0.1300439E+00
        -11   -1    0    0    0    0  0.00000000000E+00  0.00000000000E+00  0.45593999997E+02  0.45594000000E+02  0.51100000000E-03 0. -1.
         11   -1    0    0    0    0 -0.00000000000E+00 -0.00000000000E+00 -0.45593999997E+02  0.45594000000E+02  0.51100000000E-03 0.  1.
    9900012    2    1    2    0    0 -0.29336366010E+02  0.55420760470E+01 -0.27601291230E+02  0.50528828155E+02  0.29999903659E+02 0.  0.
         12    1    1    2    0    0  0.29336366010E+02 -0.55420760470E+01  0.27601291230E+02  0.40659171845E+02  0.00000000000E+00 0. -1.
         11    1    3    3    0    0 -0.23322173450E+01 -0.11016944126E+01 -0.10508522419E+01  0.27851856344E+01  0.51100000000E-03 0. -1.
        -11    1    3    3    0    0 -0.27218476783E+02 -0.15572804859E+01 -0.28363788665E+02  0.39341773073E+02  0.51100000000E-03 0.  1.
        -12    1    3    3    0    0  0.21432811804E+00  0.82010509456E+01  0.18133496765E+01  0.84018694469E+01  0.00000000000E+00 0.  1.
</event>
<event>
 7    1  0.2942034E-011  0.5052885E+02  0.7816164E-02  0.1300439E+00
        -11   -1    0    0    0    0  0.00000000000E+00  0.00000000000E+00  0.45593999997E+02  0.45594000000E+02  0.51100000000E-03 0.  1.
         11   -1    0    0    0    0 -0.00000000000E+00 -0.00000000000E+00 -0.45593999997E+02  0.45594000000E+02  0.51100000000E-03 0. -1.
    9900012    2    1    2    0    0  0.18382054527E+02  0.36230570561E+02 -0.16162261542E+01  0.50528851475E+02  0.29999974542E+02 0.  0.
         12    1    1    2    0    0 -0.18382054527E+02 -0.36230570561E+02  0.16162261542E+01  0.40659148525E+02  0.00000000000E+00 0. -1.
         11    1    3    3    0    0 -0.44058159332E+01  0.14488899690E+02  0.83949937074E+01  0.17315176808E+02  0.51100000000E-03 0. -1.
        -11    1    3    3    0    0  0.22744109328E+02  0.21844157857E+02 -0.10046580843E+02  0.33096760091E+02  0.51100000000E-03 0.  1.
         12    1    3    3    0    0  0.43761131795E-01 -0.10248698655E+00  0.35360981041E-01  0.11691457586E+00  0.00000000000E+00 0. -1.
</event>
<event>
 7    1  0.2942034E-011  0.5052888E+02  0.7816164E-02  0.1300439E+00
        -11   -1    0    0    0    0  0.00000000000E+00  0.00000000000E+00  0.45593999997E+02  0.45594000000E+02  0.51100000000E-03 0.  1.
         11   -1    0    0    0    0 -0.00000000000E+00 -0.00000000000E+00 -0.45593999997E+02  0.45594000000E+02  0.51100000000E-03 0. -1.
    9900012    2    1    2    0    0 -0.95212080267E+01  0.36461486601E+02  0.15266654839E+02  0.50528878546E+02  0.30000056829E+02 0.  0.
         12    1    1    2    0    0  0.95212080267E+01 -0.36461486601E+02 -0.15266654839E+02  0.40659121454E+02  0.00000000000E+00 0. -1.
         11    1    3    3    0    0 -0.28675287084E+01 -0.10842641771E+01  0.34858100892E+01  0.46421139514E+01  0.51100000000E-03 0. -1.
        -11    1    3    3    0    0 -0.12644514195E+02  0.21920836964E+02 -0.19818538882E+00  0.25307036772E+02  0.51100000000E-03 0.  1.
        -12    1    3    3    0    0  0.59908348771E+01  0.15624913813E+02  0.11979030139E+02  0.20579727823E+02  0.00000000000E+00 0.  1.
</event>
<event>
 7    1  0.2942034E-011  0.5052884E+02  0.7816164E-02  0.1300439E+00
        -11   -1    0    0    0    0  0.00000000000E+00  0.00000000000E+00  0.45593999997E+02  0.45594000000E+02  0.51100000000E-03 0.  1.
         11   -1    0    0    0    0 -0.00000000000E+00 -0.00000000000E+00 -0.45593999997E+02  0.45594000000E+02  0.51100000000E-03 0. -1.
    9900012    2    1    2    0    0 -0.39639312165E+02  0.72216242234E+01  0.54534528420E+01  0.50528842689E+02  0.29999947838E+02 0.  0.
         12    1    1    2    0    0  0.39639312165E+02 -0.72216242234E+01 -0.54534528420E+01  0.40659157311E+02  0.00000000000E+00 0. -1.
         11    1    3    3    0    0 -0.47491417841E+01  0.77009302347E+01  0.10736963637E+02  0.14040693094E+02  0.51100000000E-03 0. -1.
        -11    1    3    3    0    0 -0.49812548855E+01 -0.27948574476E+01 -0.28714564489E+01  0.63929172359E+01  0.51100000000E-03 0.  1.
         12    1    3    3    0    0 -0.29908915495E+02  0.23155514363E+01 -0.24120543460E+01  0.30095232359E+02  0.00000000000E+00 0. -1.
</event>
<event>
 7    1  0.2942034E-011  0.5052886E+02  0.7816164E-02  0.1300439E+00
        -11   -1    0    0    0    0  0.00000000000E+00  0.00000000000E+00  0.45593999997E+02  0.45594000000E+02  0.51100000000E-03 0. -1.
         11   -1    0    0    0    0 -0.00000000000E+00 -0.00000000000E+00 -0.45593999997E+02  0.45594000000E+02  0.51100000000E-03 0.  1.
    9900012    2    1    2    0    0  0.33015962255E+02  0.19351932326E+02 -0.13733702288E+02  0.50528860475E+02  0.30000001900E+02 0.  0.
         12    1    1    2    0    0 -0.33015962255E+02 -0.19351932326E+02  0.13733702288E+02  0.40659139525E+02  0.00000000000E+00 0. -1.
         11    1    3    3    0    0  0.29441732699E+02  0.34252369859E+01 -0.91702390061E+01  0.31026458973E+02  0.51100000000E-03 0. -1.
        -11    1    3    3    0    0  0.19767940962E+01  0.16451108068E+02 -0.56434026451E+01  0.17504132805E+02  0.51100000000E-03 0.  1.
         12    1    3    3    0    0  0.15974354596E+01 -0.52441272866E+00  0.10799393628E+01  0.19982686969E+01  0.00000000000E+00 0. -1.
</event>
<event>
 7    1  0.2942034E-011  0.5052886E+02  0.7816164E-02  0.1300439E+00
        -11   -1    0    0    0    0  0.00000000000E+00  0.00000000000E+00  0.45593999997E+02  0.45594000000E+02  0.51100000000E-03 0.  1.
         11   -1    0    0    0    0 -0.00000000000E+00 -0.00000000000E+00 -0.45593999997E+02  0.45594000000E+02  0.51100000000E-03 0. -1.
    9900012    2    1    2    0    0  0.57564913581E+01  0.39670598836E+02  0.68023504437E+01  0.50528861097E+02  0.30000003790E+02 0.  0.
         12    1    1    2    0    0 -0.57564913581E+01 -0.39670598836E+02 -0.68023504437E+01  0.40659138903E+02  0.00000000000E+00 0. -1.
         11    1    3    3    0    0 -0.12177363272E+01  0.16635758261E+02 -0.49250173957E+01  0.17392157178E+02  0.51100000000E-03 0. -1.
        -11    1    3    3    0    0 -0.34456845164E+01  0.59088939167E+01  0.11150871775E+02  0.13081655503E+02  0.51100000000E-03 0.  1.
         12    1    3    3    0    0  0.10419912202E+02  0.17125946658E+02  0.57649606447E+00  0.20055048416E+02  0.00000000000E+00 0. -1.
</event>
<event>
 7    1  0.2942034E-011  0.5052886E+02  0.7816164E-02  0.1300439E+00
        -11   -1    0    0    0    0  0.00000000000E+00  0.00000000000E+00  0.45593999997E+02  0.45594000000E+02  0.51100000000E-03 0.  1.
         11   -1    0    0    0    0 -0.00000000000E+00 -0.00000000000E+00 -0.45593999997E+02  0.45594000000E+02  0.51100000000E-03 0. -1.
    9900012    2    1    2    0    0  0.48365964074E+01 -0.12299109363E+02  0.38451332419E+02  0.50528859321E+02  0.29999998392E+02 0.  0.
         12    1    1    2    0    0 -0.48365964074E+01  0.12299109363E+02 -0.38451332419E+02  0.40659140679E+02  0.00000000000E+00 0. -1.
         11    1    3    3    0    0  0.45846254570E+00 -0.11557056898E+02  0.38676661600E+02  0.40369046370E+02  0.51100000000E-03 0. -1.
        -11    1    3    3    0    0  0.58859571316E+01  0.26113080257E+01  0.29743946312E+00  0.64460756631E+01  0.51100000000E-03 0.  1.
         12    1    3    3    0    0 -0.15078232699E+01 -0.33533604903E+01 -0.52276864345E+00  0.37137372882E+01  0.00000000000E+00 0. -1.
</event>
<event>
 7    1  0.2942034E-011  0.5052884E+02  0.7816164E-02  0.1300439E+00
        -11   -1    0    0    0    0  0.00000000000E+00  0.00000000000E+00  0.45593999997E+02  0.45594000000E+02  0.51100000000E-03 0.  1.
         11   -1    0    0    0    0 -0.00000000000E+00 -0.00000000000E+00 -0.45593999997E+02  0.45594000000E+02  0.51100000000E-03 0. -1.
    9900012    2    1    2    0    0  0.13794912847E+01 -0.12263510826E+02  0.38741073013E+02  0.50528838275E+02  0.29999934421E+02 0.  0.
         12    1    1    2    0    0 -0.13794912847E+01  0.12263510826E+02 -0.38741073013E+02  0.40659161725E+02  0.00000000000E+00 0. -1.
         11    1    3    3    0    0  0.63306434068E+00  0.89415141501E+01  0.88612564900E+01  0.12604495730E+02  0.51100000000E-03 0. -1.
        -11    1    3    3    0    0  0.44192325428E+01 -0.17312104415E+02  0.21176366081E+02  0.27706985693E+02  0.51100000000E-03 0.  1.
         12    1    3    3    0    0 -0.36728055988E+01 -0.38929205616E+01  0.87034504413E+01  0.10217356852E+02  0.00000000000E+00 0. -1.
</event>
<event>
 7    1  0.2942034E-011  0.5052885E+02  0.7816164E-02  0.1300439E+00
        -11   -1    0    0    0    0  0.00000000000E+00  0.00000000000E+00  0.45593999997E+02  0.45594000000E+02  0.51100000000E-03 0.  1.
         11   -1    0    0    0    0 -0.00000000000E+00 -0.00000000000E+00 -0.45593999997E+02  0.45594000000E+02  0.51100000000E-03 0. -1.
    9900012    2    1    2    0    0  0.15236743570E+02  0.92402173628E+01  0.36546219215E+02  0.50528854528E+02  0.29999983824E+02 0.  0.
         12    1    1    2    0    0 -0.15236743570E+02 -0.92402173628E+01 -0.36546219215E+02  0.40659145472E+02  0.00000000000E+00 0. -1.
         11    1    3    3    0    0  0.10903813609E+02  0.77720155924E+01  0.34907239449E+02  0.37387334003E+02  0.51100000000E-03 0.  1.
        -11    1    3    3    0    0  0.47838302790E+01 -0.36438661463E+01  0.42691606172E+01  0.73748576439E+01  0.51100000000E-03 0. -1.
         12    1    3    3    0    0 -0.45090031758E+00  0.51120679167E+01 -0.26301808513E+01  0.57666628818E+01  0.00000000000E+00 0. -1.
</event>
<event>
 7    1  0.2942034E-011  0.5052886E+02  0.7816164E-02  0.1300439E+00
        -11   -1    0    0    0    0  0.00000000000E+00  0.00000000000E+00  0.45593999997E+02  0.45594000000E+02  0.51100000000E-03 0.  1.
         11   -1    0    0    0    0 -0.00000000000E+00 -0.00000000000E+00 -0.45593999997E+02  0.45594000000E+02  0.51100000000E-03 0. -1.
    9900012    2    1    2    0    0 -0.89426282061E+01  0.35117458507E+01  0.39507755332E+02  0.50528859705E+02  0.29999999558E+02 0.  0.
         12    1    1    2    0    0  0.89426282061E+01 -0.35117458507E+01 -0.39507755332E+02  0.40659140295E+02  0.00000000000E+00 0. -1.
         11    1    3    3    0    0 -0.53453467505E+01 -0.31109417613E+01  0.76068971281E+01  0.98038550940E+01  0.51100000000E-03 0. -1.
        -11    1    3    3    0    0 -0.28298782934E+01  0.15174612752E+02  0.26230152374E+02  0.30435143784E+02  0.51100000000E-03 0.  1.
        -12    1    3    3    0    0 -0.76740316220E+00 -0.85519251401E+01  0.56707058301E+01  0.10289860826E+02  0.00000000000E+00 0.  1.
</event>
<event>
 7    1  0.2942034E-011  0.5052886E+02  0.7816164E-02  0.1300439E+00
        -11   -1    0    0    0    0  0.00000000000E+00  0.00000000000E+00  0.45593999997E+02  0.45594000000E+02  0.51100000000E-03 0.  1.
         11   -1    0    0    0    0 -0.00000000000E+00 -0.00000000000E+00 -0.45593999997E+02  0.45594000000E+02  0.51100000000E-03 0. -1.
    9900012    2    1    2    0    0 -0.25301303315E+02  0.27965952944E+02 -0.15195894705E+02  0.50528859707E+02  0.29999999564E+02 0.  0.
         12    1    1    2    0    0  0.25301303315E+02 -0.27965952944E+02  0.15195894705E+02  0.40659140293E+02  0.00000000000E+00 0. -1.
         11    1    3    3    0    0  0.36720792415E+01  0.92735667687E+01 -0.13980453403E+01  0.10071630335E+02  0.51100000000E-03 0. -1.
        -11    1    3    3    0    0 -0.28992538899E+02  0.17258977499E+02 -0.82603715252E+01  0.34737204178E+02  0.51100000000E-03 0.  1.
        -12    1    3    3    0    0  0.19156341908E-01  0.14334086764E+01 -0.55374778392E+01  0.57200251939E+01  0.00000000000E+00 0.  1.
</event>
<event>
 7    1  0.2942034E-011  0.5052888E+02  0.7816164E-02  0.1300439E+00
        -11   -1    0    0    0    0  0.00000000000E+00  0.00000000000E+00  0.45593999997E+02  0.45594000000E+02  0.51100000000E-03 0.  1.
         11   -1    0    0    0    0 -0.00000000000E+00 -0.00000000000E+00 -0.45593999997E+02  0.45594000000E+02  0.51100000000E-03 0. -1.
    9900012    2    1    2    0    0  0.34607446420E+02 -0.67534750154E+01  0.20245481421E+02  0.50528876910E+02  0.30000051855E+02 0.  0.
         12    1    1    2    0    0 -0.34607446420E+02  0.67534750154E+01 -0.20245481421E+02  0.40659123090E+02  0.00000000000E+00 0. -1.
         11    1    3    3    0    0  0.34787906954E+01 -0.30075613604E+00 -0.42072662383E+01  0.54674974547E+01  0.51100000000E-03 0. -1.
        -11    1    3    3    0    0  0.29860450488E+02 -0.77290797873E+01  0.27629907838E+02  0.41410107282E+02  0.51100000000E-03 0.  1.
        -12    1    3    3    0    0  0.12682052361E+01  0.12763609079E+01 -0.31771601777E+01  0.36512721732E+01  0.00000000000E+00 0.  1.
</event>
<event>
 7    1  0.2942034E-011  0.5052885E+02  0.7816164E-02  0.1300439E+00
        -11   -1    0    0    0    0  0.00000000000E+00  0.00000000000E+00  0.45593999997E+02  0.45594000000E+02  0.51100000000E-03 0. -1.
         11   -1    0    0    0    0 -0.00000000000E+00 -0.00000000000E+00 -0.45593999997E+02  0.45594000000E+02  0.51100000000E-03 0.  1.
    9900012    2    1    2    0    0 -0.24135524083E+02 -0.32074570417E+02 -0.64703102597E+01  0.50528849676E+02  0.29999969076E+02 0.  0.
         12    1    1    2    0    0  0.24135524083E+02  0.32074570417E+02  0.64703102597E+01  0.40659150324E+02  0.00000000000E+00 0. -1.
         11    1    3    3    0    0 -0.15708451188E+02 -0.99981334832E+01 -0.12739701922E+02  0.22561429857E+02  0.51100000000E-03 0. -1.
        -11    1    3    3    0    0 -0.45979899821E+01 -0.20250073879E+02  0.45580423894E+00  0.20770526275E+02  0.51100000000E-03 0.  1.
         12    1    3    3    0    0 -0.38290829131E+01 -0.18263630548E+01  0.58135874230E+01  0.71968935443E+01  0.00000000000E+00 0. -1.
</event>
<event>
 7    1  0.2942034E-011  0.5052886E+02  0.7816164E-02  0.1300439E+00
        -11   -1    0    0    0    0  0.00000000000E+00  0.00000000000E+00  0.45593999997E+02  0.45594000000E+02  0.51100000000E-03 0.  1.
         11   -1    0    0    0    0 -0.00000000000E+00 -0.00000000000E+00 -0.45593999997E+02  0.45594000000E+02  0.51100000000E-03 0. -1.
    9900012    2    1    2    0    0  0.10431109239E+02  0.16133668154E+02  0.35833818000E+02  0.50528858340E+02  0.29999995411E+02 0.  0.
         12    1    1    2    0    0 -0.10431109239E+02 -0.16133668154E+02 -0.35833818000E+02  0.40659141660E+02  0.00000000000E+00 0. -1.
         11    1    3    3    0    0  0.38165357641E+01 -0.36282486798E+00 -0.37970489222E+01  0.53958472831E+01  0.51100000000E-03 0. -1.
        -11    1    3    3    0    0 -0.16581125686E+01  0.12112920192E+02  0.21844641985E+02  0.25033189101E+02  0.51100000000E-03 0.  1.
        -12    1    3    3    0    0  0.82726860430E+01  0.43835728292E+01  0.17786224938E+02  0.20099821956E+02  0.00000000000E+00 0.  1.
</event>
<event>
 7    1  0.2942034E-011  0.5052886E+02  0.7816164E-02  0.1300439E+00
        -11   -1    0    0    0    0  0.00000000000E+00  0.00000000000E+00  0.45593999997E+02  0.45594000000E+02  0.51100000000E-03 0.  1.
         11   -1    0    0    0    0 -0.00000000000E+00 -0.00000000000E+00 -0.45593999997E+02  0.45594000000E+02  0.51100000000E-03 0. -1.
    9900012    2    1    2    0    0 -0.48868949129E+01 -0.33391182041E+02  0.22678459082E+02  0.50528864663E+02  0.30000014631E+02 0.  0.
         12    1    1    2    0    0  0.48868949129E+01  0.33391182041E+02 -0.22678459082E+02  0.40659135337E+02  0.00000000000E+00 0. -1.
         11    1    3    3    0    0 -0.10034688266E+02 -0.16187019115E+02  0.19358978584E+01  0.19143203943E+02  0.51100000000E-03 0. -1.
        -11    1    3    3    0    0  0.14067743329E+01 -0.26809288362E+01  0.15038487592E+02  0.15340224991E+02  0.51100000000E-03 0.  1.
        -12    1    3    3    0    0  0.37410190206E+01 -0.14523234090E+02  0.57040736310E+01  0.16045435729E+02  0.00000000000E+00 0.  1.
</event>
<event>
 7    1  0.2942034E-011  0.5052885E+02  0.7816164E-02  0.1300439E+00
        -11   -1    0    0    0    0  0.00000000000E+00  0.00000000000E+00  0.45593999997E+02  0.45594000000E+02  0.51100000000E-03 0. -1.
         11   -1    0    0    0    0 -0.00000000000E+00 -0.00000000000E+00 -0.45593999997E+02  0.45594000000E+02  0.51100000000E-03 0.  1.
    9900012    2    1    2    0    0  0.21007494904E+02 -0.25015947935E+02 -0.24208557003E+02  0.50528846966E+02  0.29999960838E+02 0.  0.
         12    1    1    2    0    0 -0.21007494904E+02  0.25015947935E+02  0.24208557003E+02  0.40659153034E+02  0.00000000000E+00 0. -1.
         11    1    3    3    0    0  0.97643413974E+00 -0.13716496334E+02 -0.52433136748E+01  0.14716930178E+02  0.51100000000E-03 0. -1.
        -11    1    3    3    0    0  0.14880234618E+02 -0.64514469650E+01 -0.70994076781E+00  0.16234117357E+02  0.51100000000E-03 0.  1.
        -12    1    3    3    0    0  0.51508261470E+01 -0.48480046358E+01 -0.18255302561E+02  0.19577799430E+02  0.00000000000E+00 0.  1.
</event>
<event>
 7    1  0.2942034E-011  0.5052886E+02  0.7816164E-02  0.1300439E+00
        -11   -1    0    0    0    0  0.00000000000E+00  0.00000000000E+00  0.45593999997E+02  0.45594000000E+02  0.51100000000E-03 0.  1.
         11   -1    0    0    0    0 -0.00000000000E+00 -0.00000000000E+00 -0.45593999997E+02  0.45594000000E+02  0.51100000000E-03 0. -1.
    9900012    2    1    2    0    0  0.15781137575E+02 -0.37460483262E+02 -0.91306288612E+00  0.50528858430E+02  0.29999995684E+02 0.  0.
         12    1    1    2    0    0 -0.15781137575E+02  0.37460483262E+02  0.91306288612E+00  0.40659141570E+02  0.00000000000E+00 0. -1.
         11    1    3    3    0    0 -0.25798828083E+01 -0.26596103163E+02  0.27003546201E+01  0.26857036584E+02  0.51100000000E-03 0. -1.
        -11    1    3    3    0    0  0.43605756557E+01 -0.62362881435E+01 -0.46023750261E+01  0.88931302700E+01  0.51100000000E-03 0.  1.
         12    1    3    3    0    0  0.14000444728E+02 -0.46280919555E+01  0.98895751994E+00  0.14778691576E+02  0.00000000000E+00 0. -1.
</event>
<event>
 7    1  0.2942034E-011  0.5052886E+02  0.7816164E-02  0.1300439E+00
        -11   -1    0    0    0    0  0.00000000000E+00  0.00000000000E+00  0.45593999997E+02  0.45594000000E+02  0.51100000000E-03 0. -1.
         11   -1    0    0    0    0 -0.00000000000E+00 -0.00000000000E+00 -0.45593999997E+02  0.45594000000E+02  0.51100000000E-03 0.  1.
    9900012    2    1    2    0    0 -0.49112963988E+01  0.63039859661E+01 -0.39866080617E+02  0.50528862587E+02  0.30000008319E+02 0.  0.
         12    1    1    2    0    0  0.49112963988E+01 -0.63039859661E+01  0.39866080617E+02  0.40659137413E+02  0.00000000000E+00 0. -1.
         11    1    3    3    0    0 -0.90310008623E+01 -0.72427818962E+01 -0.94832801267E+01  0.14964941309E+02  0.51100000000E-03 0. -1.
        -11    1    3    3    0    0  0.22191552450E+01  0.87013965518E+01 -0.64109616210E+01  0.11033557048E+02  0.51100000000E-03 0.  1.
         12    1    3    3    0    0  0.19005492186E+01  0.48453713105E+01 -0.23971838870E+02  0.24530364230E+02  0.00000000000E+00 0. -1.
</event>
<event>
 7    1  0.2942034E-011  0.5052885E+02  0.7816164E-02  0.1300439E+00
        -11   -1    0    0    0    0  0.00000000000E+00  0.00000000000E+00  0.45593999997E+02  0.45594000000E+02  0.51100000000E-03 0.  1.
         11   -1    0    0    0    0 -0.00000000000E+00 -0.00000000000E+00 -0.45593999997E+02  0.45594000000E+02  0.51100000000E-03 0. -1.
    9900012    2    1    2    0    0  0.34615849928E+02 -0.18594957133E+02  0.10446853976E+02  0.50528852751E+02  0.29999978422E+02 0.  0.
         12    1    1    2    0    0 -0.34615849928E+02  0.18594957133E+02 -0.10446853976E+02  0.40659147249E+02  0.00000000000E+00 0. -1.
         11    1    3    3    0    0  0.84636314560E+01  0.30376221495E+01 -0.38188442466E+01  0.97695331202E+01  0.51100000000E-03 0. -1.
        -11    1    3    3    0    0  0.28317039111E+02 -0.21935351119E+02  0.12461333911E+02  0.37924914975E+02  0.51100000000E-03 0.  1.
        -12    1    3    3    0    0 -0.21648206394E+01  0.30277183649E+00  0.18043643116E+01  0.28344046561E+01  0.00000000000E+00 0.  1.
</event>
<event>
 7    1  0.3372383E-011  0.5052887E+02  0.7816164E-02  0.1300439E+00
        -11   -1    0    0    0    0  0.00000000000E+00  0.00000000000E+00  0.45593999997E+02  0.45594000000E+02  0.51100000000E-03 0.  1.
         11   -1    0    0    0    0 -0.00000000000E+00 -0.00000000000E+00 -0.45593999997E+02  0.45594000000E+02  0.51100000000E-03 0. -1.
    9900012    2    1    2    0    0  0.95714414184E+01  0.24432928548E+02  0.31057753960E+02  0.50528873481E+02  0.30000041432E+02 0.  0.
         12    1    1    2    0    0 -0.95714414184E+01 -0.24432928548E+02 -0.31057753960E+02  0.40659126519E+02  0.00000000000E+00 0. -1.
         11    1    3    3    0    0  0.58340184883E+01 -0.41778368245E+01  0.72193619709E+01  0.10178864366E+02  0.51100000000E-03 0. -1.
        -11    1    3    3    0    0  0.16743165438E+01  0.19130511386E+02  0.23885242727E+02  0.30647750686E+02  0.51100000000E-03 0.  1.
         12    1    3    3    0    0  0.20631063862E+01  0.94802539871E+01 -0.46850737567E-01  0.97022584285E+01  0.00000000000E+00 0. -1.
</event>
<event>
 7    1  0.2942034E-011  0.5052883E+02  0.7816164E-02  0.1300439E+00
        -11   -1    0    0    0    0  0.00000000000E+00  0.00000000000E+00  0.45593999997E+02  0.45594000000E+02  0.51100000000E-03 0.  1.
         11   -1    0    0    0    0 -0.00000000000E+00 -0.00000000000E+00 -0.45593999997E+02  0.45594000000E+02  0.51100000000E-03 0. -1.
    9900012    2    1    2    0    0  0.32991523095E+02 -0.39821978491E+00  0.23760655063E+02  0.50528832471E+02  0.29999916778E+02 0.  0.
         12    1    1    2    0    0 -0.32991523095E+02  0.39821978491E+00 -0.23760655063E+02  0.40659167529E+02  0.00000000000E+00 0. -1.
         11    1    3    3    0    0  0.15747412346E+01  0.40395180881E+01 -0.27774634332E+01  0.51489629756E+01  0.51100000000E-03 0. -1.
        -11    1    3    3    0    0  0.15480382065E+02  0.57966600334E+01  0.18488471874E+02  0.24800546141E+02  0.51100000000E-03 0.  1.
        -12    1    3    3    0    0  0.15936399796E+02 -0.10234397906E+02  0.80496466230E+01  0.20579323354E+02  0.00000000000E+00 0.  1.
</event>
<event>
 7    1  0.2942034E-011  0.5052892E+02  0.7816164E-02  0.1300439E+00
        -11   -1    0    0    0    0  0.00000000000E+00  0.00000000000E+00  0.45593999997E+02  0.45594000000E+02  0.51100000000E-03 0. -1.
         11   -1    0    0    0    0 -0.00000000000E+00 -0.00000000000E+00 -0.45593999997E+02  0.45594000000E+02  0.51100000000E-03 0.  1.
    9900012    2    1    2    0    0 -0.19612293417E+02 -0.32734881585E+02 -0.14033746631E+02  0.50528922662E+02  0.30000190924E+02 0.  0.
         12    1    1    2    0    0  0.19612293417E+02  0.32734881585E+02  0.14033746631E+02  0.40659077338E+02  0.00000000000E+00 0. -1.
         11    1    3    3    0    0 -0.22635859652E+01 -0.88302233154E+01  0.45765614289E+01  0.10200077450E+02  0.51100000000E-03 0. -1.
        -11    1    3    3    0    0 -0.17635661173E+01 -0.17048541964E+02 -0.15317752261E+02  0.22986876324E+02  0.51100000000E-03 0.  1.
        -12    1    3    3    0    0 -0.15585141335E+02 -0.68561163049E+01 -0.32925557985E+01  0.17341968888E+02  0.00000000000E+00 0.  1.
</event>
<event>
 7    1  0.2942034E-011  0.5052886E+02  0.7816164E-02  0.1300439E+00
        -11   -1    0    0    0    0  0.00000000000E+00  0.00000000000E+00  0.45593999997E+02  0.45594000000E+02  0.51100000000E-03 0.  1.
         11   -1    0    0    0    0 -0.00000000000E+00 -0.00000000000E+00 -0.45593999997E+02  0.45594000000E+02  0.51100000000E-03 0. -1.
    9900012    2    1    2    0    0  0.61662306801E+01 -0.32416174769E+02  0.23755736563E+02  0.50528858259E+02  0.29999995164E+02 0.  0.
         12    1    1    2    0    0 -0.61662306801E+01  0.32416174769E+02 -0.23755736563E+02  0.40659141741E+02  0.00000000000E+00 0. -1.
         11    1    3    3    0    0  0.18826851045E+01 -0.31987451400E+01 -0.49467056193E+01  0.61843649972E+01  0.51100000000E-03 0. -1.
        -11    1    3    3    0    0 -0.33455017897E+00 -0.41359826438E+01  0.14649684039E+02  0.15226014546E+02  0.51100000000E-03 0.  1.
        -12    1    3    3    0    0  0.46180957545E+01 -0.25081446986E+02  0.14052758143E+02  0.29118478716E+02  0.00000000000E+00 0.  1.
</event>
<event>
 7    1  0.2942034E-011  0.5052885E+02  0.7816164E-02  0.1300439E+00
        -11   -1    0    0    0    0  0.00000000000E+00  0.00000000000E+00  0.45593999997E+02  0.45594000000E+02  0.51100000000E-03 0.  1.
         11   -1    0    0    0    0 -0.00000000000E+00 -0.00000000000E+00 -0.45593999997E+02  0.45594000000E+02  0.51100000000E-03 0. -1.
    9900012    2    1    2    0    0  0.11217064126E+02 -0.11632678706E+01  0.39063934652E+02  0.50528847153E+02  0.29999961407E+02 0.  0.
         12    1    1    2    0    0 -0.11217064126E+02  0.11632678706E+01 -0.39063934652E+02  0.40659152847E+02  0.00000000000E+00 0. -1.
         11    1    3    3    0    0  0.76120739488E+01 -0.10476603294E+02  0.59176246392E+01  0.14238018402E+02  0.51100000000E-03 0. -1.
        -11    1    3    3    0    0  0.26075294928E+01  0.33158965739E+01  0.28027300189E+02  0.28342969786E+02  0.51100000000E-03 0.  1.
         12    1    3    3    0    0  0.99746068413E+00  0.59974388493E+01  0.51190098237E+01  0.79478589659E+01  0.00000000000E+00 0. -1.
</event>
<event>
 7    1  0.2942034E-011  0.5052886E+02  0.7816164E-02  0.1300439E+00
        -11   -1    0    0    0    0  0.00000000000E+00  0.00000000000E+00  0.45593999997E+02  0.45594000000E+02  0.51100000000E-03 0.  1.
         11   -1    0    0    0    0 -0.00000000000E+00 -0.00000000000E+00 -0.45593999997E+02  0.45594000000E+02  0.51100000000E-03 0. -1.
    9900012    2    1    2    0    0  0.25886068626E+02 -0.28443699945E+02  0.13192150600E+02  0.50528862615E+02  0.30000008404E+02 0.  0.
         12    1    1    2    0    0 -0.25886068626E+02  0.28443699945E+02 -0.13192150600E+02  0.40659137385E+02  0.00000000000E+00 0. -1.
         11    1    3    3    0    0  0.10802171447E+02 -0.59975590127E+01 -0.79954914059E+01  0.14716844267E+02  0.51100000000E-03 0. -1.
        -11    1    3    3    0    0  0.49088020564E+01 -0.14227127309E+01  0.63084355264E+01  0.81189166885E+01  0.51100000000E-03 0.  1.
         12    1    3    3    0    0  0.10175095122E+02 -0.21023428201E+02  0.14879206479E+02  0.27693101660E+02  0.00000000000E+00 0. -1.
</event>
<event>
 7    1  0.2942034E-011  0.5052886E+02  0.7816164E-02  0.1300439E+00
        -11   -1    0    0    0    0  0.00000000000E+00  0.00000000000E+00  0.45593999997E+02  0.45594000000E+02  0.51100000000E-03 0.  1.
         11   -1    0    0    0    0 -0.00000000000E+00 -0.00000000000E+00 -0.45593999997E+02  0.45594000000E+02  0.51100000000E-03 0. -1.
    9900012    2    1    2    0    0  0.37911870227E+02 -0.22196433888E+01  0.14523405227E+02  0.50528855638E+02  0.29999987197E+02 0.  0.
         12    1    1    2    0    0 -0.37911870227E+02  0.22196433888E+01 -0.14523405227E+02  0.40659144362E+02  0.00000000000E+00 0. -1.
         11    1    3    3    0    0  0.27778923525E+01 -0.54107489395E+01 -0.65422517801E+01  0.89327458614E+01  0.51100000000E-03 0. -1.
        -11    1    3    3    0    0  0.17985699375E+02  0.48496432918E+01  0.11460870299E+02  0.21871350446E+02  0.51100000000E-03 0.  1.
         12    1    3    3    0    0  0.17148278500E+02 -0.16585377411E+01  0.96047867084E+01  0.19724759331E+02  0.00000000000E+00 0. -1.
</event>
<event>
 7    1  0.2942034E-011  0.5052884E+02  0.7816164E-02  0.1300439E+00
        -11   -1    0    0    0    0  0.00000000000E+00  0.00000000000E+00  0.45593999997E+02  0.45594000000E+02  0.51100000000E-03 0.  1.
         11   -1    0    0    0    0 -0.00000000000E+00 -0.00000000000E+00 -0.45593999997E+02  0.45594000000E+02  0.51100000000E-03 0. -1.
    9900012    2    1    2    0    0 -0.24725867558E+02 -0.17267447204E+02  0.27269659539E+02  0.50528836324E+02  0.29999928490E+02 0.  0.
         12    1    1    2    0    0  0.24725867558E+02  0.17267447204E+02 -0.27269659539E+02  0.40659163676E+02  0.00000000000E+00 0. -1.
         11    1    3    3    0    0 -0.49379775223E+01 -0.14531167296E+02  0.16898508676E+02  0.22827571941E+02  0.51100000000E-03 0. -1.
        -11    1    3    3    0    0 -0.22476013601E+02 -0.37173370026E+01  0.97097586749E+01  0.24764272563E+02  0.51100000000E-03 0.  1.
         12    1    3    3    0    0  0.26881235649E+01  0.98105709503E+00  0.66139218856E+00  0.29369918200E+01  0.00000000000E+00 0. -1.
</event>
<event>
 7    1  0.2942034E-011  0.5052886E+02  0.7816164E-02  0.1300439E+00
        -11   -1    0    0    0    0  0.00000000000E+00  0.00000000000E+00  0.45593999997E+02  0.45594000000E+02  0.51100000000E-03 0. -1.
         11   -1    0    0    0    0 -0.00000000000E+00 -0.00000000000E+00 -0.45593999997E+02  0.45594000000E+02  0.51100000000E-03 0.  1.
    9900012    2    1    2    0    0 -0.85748037066E+01 -0.39403885190E+02  0.51934989763E+01  0.50528857630E+02  0.29999993252E+02 0.  0.
         12    1    1    2    0    0  0.85748037066E+01  0.39403885190E+02 -0.51934989763E+01  0.40659142370E+02  0.00000000000E+00 0. -1.
         11    1    3    3    0    0 -0.60608061955E+01 -0.83684798341E+01 -0.10045719028E+02  0.14411151846E+02  0.51100000000E-03 0. -1.
        -11    1    3    3    0    0 -0.25120890120E+01 -0.23730200853E+02  0.65096515851E+01  0.24734764760E+02  0.51100000000E-03 0.  1.
         12    1    3    3    0    0 -0.19084991246E-02 -0.73052045026E+01  0.87295664197E+01  0.11382941023E+02  0.00000000000E+00 0. -1.
</event>
<event>
 7    1  0.2942034E-011  0.5052887E+02  0.7816164E-02  0.1300439E+00
        -11   -1    0    0    0    0  0.00000000000E+00  0.00000000000E+00  0.45593999997E+02  0.45594000000E+02  0.51100000000E-03 0.  1.
         11   -1    0    0    0    0 -0.00000000000E+00 -0.00000000000E+00 -0.45593999997E+02  0.45594000000E+02  0.51100000000E-03 0. -1.
    9900012    2    1    2    0    0 -0.10088343965E+02 -0.19887379802E+02  0.33998274117E+02  0.50528865697E+02  0.30000017772E+02 0.  0.
         12    1    1    2    0    0  0.10088343965E+02  0.19887379802E+02 -0.33998274117E+02  0.40659134303E+02  0.00000000000E+00 0. -1.
         11    1    3    3    0    0  0.53624237326E+01 -0.12764465682E+01 -0.67756557303E+00  0.55537374350E+01  0.51100000000E-03 0. -1.
        -11    1    3    3    0    0 -0.13335794188E+02 -0.21114265145E+02  0.32710719263E+02  0.41153939717E+02  0.51100000000E-03 0.  1.
         12    1    3    3    0    0 -0.21149735093E+01  0.25033319113E+01  0.19651204272E+01  0.38211885450E+01  0.00000000000E+00 0. -1.
</event>
<event>
 7    1  0.2942034E-011  0.5052886E+02  0.7816164E-02  0.1300439E+00
        -11   -1    0    0    0    0  0.00000000000E+00  0.00000000000E+00  0.45593999997E+02  0.45594000000E+02  0.51100000000E-03 0. -1.
         11   -1    0    0    0    0 -0.00000000000E+00 -0.00000000000E+00 -0.45593999997E+02  0.45594000000E+02  0.51100000000E-03 0.  1.
    9900012    2    1    2    0    0 -0.10966924141E+02 -0.21290923475E+02 -0.32857094506E+02  0.50528861951E+02  0.30000006385E+02 0.  0.
         12    1    1    2    0    0  0.10966924141E+02  0.21290923475E+02  0.32857094506E+02  0.40659138049E+02  0.00000000000E+00 0. -1.
         11    1    3    3    0    0 -0.13170228795E+02 -0.10617910354E+02 -0.30058153687E+02  0.34491847590E+02  0.51100000000E-03 0.  1.
        -11    1    3    3    0    0  0.63926920639E+01 -0.40222506486E+01  0.37031237356E+00  0.75618875698E+01  0.51100000000E-03 0. -1.
        -12    1    3    3    0    0 -0.41893874095E+01 -0.66507624722E+01 -0.31692531926E+01  0.84751267912E+01  0.00000000000E+00 0.  1.
</event>
<event>
 7    1  0.2942034E-011  0.5052884E+02  0.7816164E-02  0.1300439E+00
        -11   -1    0    0    0    0  0.00000000000E+00  0.00000000000E+00  0.45593999997E+02  0.45594000000E+02  0.51100000000E-03 0. -1.
         11   -1    0    0    0    0 -0.00000000000E+00 -0.00000000000E+00 -0.45593999997E+02  0.45594000000E+02  0.51100000000E-03 0.  1.
    9900012    2    1    2    0    0  0.23912876690E+02 -0.12783762212E+02 -0.30297147373E+02  0.50528838833E+02  0.29999936116E+02 0.  0.
         12    1    1    2    0    0 -0.23912876690E+02  0.12783762212E+02  0.30297147373E+02  0.40659161167E+02  0.00000000000E+00 0. -1.
         11    1    3    3    0    0  0.16502606954E+01 -0.55887214862E+01  0.11775757063E+01  0.59450696395E+01  0.51100000000E-03 0. -1.
        -11    1    3    3    0    0  0.25295281454E+02 -0.63771262388E+01 -0.20527497406E+02  0.33194836239E+02  0.51100000000E-03 0.  1.
        -12    1    3    3    0    0 -0.30326654595E+01 -0.81791448733E+00 -0.10947225673E+02  0.11388932954E+02  0.00000000000E+00 0.  1.
</event>
<event>
 7    1  0.2942034E-011  0.5052887E+02  0.7816164E-02  0.1300439E+00
        -11   -1    0    0    0    0  0.00000000000E+00  0.00000000000E+00  0.45593999997E+02  0.45594000000E+02  0.51100000000E-03 0.  1.
         11   -1    0    0    0    0 -0.00000000000E+00 -0.00000000000E+00 -0.45593999997E+02  0.45594000000E+02  0.51100000000E-03 0. -1.
    9900012    2    1    2    0    0 -0.14311769248E+02  0.35152278121E+02  0.14582723342E+02  0.50528865526E+02  0.30000017253E+02 0.  0.
         12    1    1    2    0    0  0.14311769248E+02 -0.35152278121E+02 -0.14582723342E+02  0.40659134474E+02  0.00000000000E+00 0. -1.
         11    1    3    3    0    0  0.57264577568E+01  0.25373025554E+01  0.33673325099E+01  0.71111989982E+01  0.51100000000E-03 0. -1.
        -11    1    3    3    0    0 -0.15587751550E+02  0.23808955775E+02 -0.29407552049E-01  0.28457779930E+02  0.51100000000E-03 0.  1.
         12    1    3    3    0    0 -0.44504754549E+01  0.88060197909E+01  0.11244798384E+02  0.14959886598E+02  0.00000000000E+00 0. -1.
</event>
<event>
 7    1  0.2942034E-011  0.5052891E+02  0.7816164E-02  0.1300439E+00
        -11   -1    0    0    0    0  0.00000000000E+00  0.00000000000E+00  0.45593999997E+02  0.45594000000E+02  0.51100000000E-03 0.  1.
         11   -1    0    0    0    0 -0.00000000000E+00 -0.00000000000E+00 -0.45593999997E+02  0.45594000000E+02  0.51100000000E-03 0. -1.
    9900012    2    1    2    0    0  0.30160107886E+02  0.27216199568E+02  0.16756501189E+01  0.50528912087E+02  0.30000158778E+02 0.  0.
         12    1    1    2    0    0 -0.30160107886E+02 -0.27216199568E+02 -0.16756501189E+01  0.40659087913E+02  0.00000000000E+00 0. -1.
         11    1    3    3    0    0  0.26547342234E+02  0.24703799738E+02  0.12798284211E+02  0.38455626119E+02  0.51100000000E-03 0. -1.
        -11    1    3    3    0    0  0.14804063718E+01  0.19704868166E+01 -0.65649717044E+01  0.70123658675E+01  0.51100000000E-03 0.  1.
         12    1    3    3    0    0  0.21323592804E+01  0.54191301259E+00 -0.45576623879E+01  0.50609200998E+01  0.00000000000E+00 0. -1.
</event>
<event>
 7    1  0.2942034E-011  0.5052885E+02  0.7816164E-02  0.1300439E+00
        -11   -1    0    0    0    0  0.00000000000E+00  0.00000000000E+00  0.45593999997E+02  0.45594000000E+02  0.51100000000E-03 0.  1.
         11   -1    0    0    0    0 -0.00000000000E+00 -0.00000000000E+00 -0.45593999997E+02  0.45594000000E+02  0.51100000000E-03 0. -1.
    9900012    2    1    2    0    0  0.31750754975E+02  0.18584048621E+02  0.17311537648E+02  0.50528848012E+02  0.29999964017E+02 0.  0.
         12    1    1    2    0    0 -0.31750754975E+02 -0.18584048621E+02 -0.17311537648E+02  0.40659151988E+02  0.00000000000E+00 0. -1.
         11    1    3    3    0    0  0.86539730265E+01 -0.28505366497E+01 -0.21961552628E+01  0.93722946248E+01  0.51100000000E-03 0. -1.
        -11    1    3    3    0    0  0.20162982361E+02  0.18298955228E+02  0.22983512913E+02  0.35632000873E+02  0.51100000000E-03 0.  1.
         12    1    3    3    0    0  0.29337995875E+01  0.31356300431E+01 -0.34758200025E+01  0.55245525137E+01  0.00000000000E+00 0. -1.
</event>
<event>
 7    1  0.2942034E-011  0.5052888E+02  0.7816164E-02  0.1300439E+00
        -11   -1    0    0    0    0  0.00000000000E+00  0.00000000000E+00  0.45593999997E+02  0.45594000000E+02  0.51100000000E-03 0.  1.
         11   -1    0    0    0    0 -0.00000000000E+00 -0.00000000000E+00 -0.45593999997E+02  0.45594000000E+02  0.51100000000E-03 0. -1.
    9900012    2    1    2    0    0  0.33533943946E+02  0.15623067756E+02  0.16868850866E+02  0.50528883283E+02  0.30000071227E+02 0.  0.
         12    1    1    2    0    0 -0.33533943946E+02 -0.15623067756E+02 -0.16868850866E+02  0.40659116717E+02  0.00000000000E+00 0. -1.
         11    1    3    3    0    0  0.83369727768E+01  0.63766058219E+01 -0.78203992651E+01  0.13089112339E+02  0.51100000000E-03 0. -1.
        -11    1    3    3    0    0  0.18448721347E+02  0.29252412851E+01  0.14248529030E+02  0.23493252983E+02  0.51100000000E-03 0.  1.
         12    1    3    3    0    0  0.67482498217E+01  0.63212206488E+01  0.10440721101E+02  0.13946517961E+02  0.00000000000E+00 0. -1.
</event>
<event>
 7    1  0.2942034E-011  0.5052884E+02  0.7816164E-02  0.1300439E+00
        -11   -1    0    0    0    0  0.00000000000E+00  0.00000000000E+00  0.45593999997E+02  0.45594000000E+02  0.51100000000E-03 0. -1.
         11   -1    0    0    0    0 -0.00000000000E+00 -0.00000000000E+00 -0.45593999997E+02  0.45594000000E+02  0.51100000000E-03 0.  1.
    9900012    2    1    2    0    0  0.36052129377E+02  0.16589810631E+02 -0.88424813126E+01  0.50528839591E+02  0.29999938420E+02 0.  0.
         12    1    1    2    0    0 -0.36052129377E+02 -0.16589810631E+02  0.88424813126E+01  0.40659160409E+02  0.00000000000E+00 0. -1.
         11    1    3    3    0    0 -0.14065554858E+01  0.37014908274E+01  0.20539758897E+01  0.44607454418E+01  0.51100000000E-03 0. -1.
        -11    1    3    3    0    0  0.15591403193E+02 -0.23768285432E+01 -0.11291330024E+02  0.19396785852E+02  0.51100000000E-03 0.  1.
        -12    1    3    3    0    0  0.21867281670E+02  0.15265148347E+02  0.39487282127E+00  0.26671308297E+02  0.00000000000E+00 0.  1.
</event>
<event>
 7    1  0.2942034E-011  0.5052887E+02  0.7816164E-02  0.1300439E+00
        -11   -1    0    0    0    0  0.00000000000E+00  0.00000000000E+00  0.45593999997E+02  0.45594000000E+02  0.51100000000E-03 0.  1.
         11   -1    0    0    0    0 -0.00000000000E+00 -0.00000000000E+00 -0.45593999997E+02  0.45594000000E+02  0.51100000000E-03 0. -1.
    9900012    2    1    2    0    0  0.12012526334E+02 -0.10261794476E+02  0.37464109029E+02  0.50528872118E+02  0.30000037290E+02 0.  0.
         12    1    1    2    0    0 -0.12012526334E+02  0.10261794476E+02 -0.37464109029E+02  0.40659127882E+02  0.00000000000E+00 0. -1.
         11    1    3    3    0    0  0.17669116790E+02 -0.12938732686E+02  0.23252131903E+02  0.31941667614E+02  0.51100000000E-03 0.  1.
        -11    1    3    3    0    0  0.57118808249E+00  0.30537799241E+01  0.44847846780E-01  0.31070627996E+01  0.51100000000E-03 0. -1.
         12    1    3    3    0    0 -0.62277785377E+01 -0.37684171334E+00  0.14167129279E+02  0.15480141704E+02  0.00000000000E+00 0. -1.
</event>
<event>
 7    1  0.2942034E-011  0.5052889E+02  0.7816164E-02  0.1300439E+00
        -11   -1    0    0    0    0  0.00000000000E+00  0.00000000000E+00  0.45593999997E+02  0.45594000000E+02  0.51100000000E-03 0. -1.
         11   -1    0    0    0    0 -0.00000000000E+00 -0.00000000000E+00 -0.45593999997E+02  0.45594000000E+02  0.51100000000E-03 0.  1.
    9900012    2    1    2    0    0 -0.30922679764E+02 -0.20658338713E+02  0.16437275111E+02  0.50528891607E+02  0.30000096530E+02 0.  0.
         12    1    1    2    0    0  0.30922679764E+02  0.20658338713E+02 -0.16437275111E+02  0.40659108393E+02  0.00000000000E+00 0. -1.
         11    1    3    3    0    0 -0.22694311638E+02 -0.10934097017E+02  0.19812783833E+02  0.32048910462E+02  0.51100000000E-03 0.  1.
        -11    1    3    3    0    0 -0.92244950816E+01 -0.23566564355E+01 -0.51670887154E+01  0.10832541028E+02  0.51100000000E-03 0. -1.
         12    1    3    3    0    0  0.99612695517E+00 -0.73675852609E+01  0.17915799932E+01  0.76474401180E+01  0.00000000000E+00 0. -1.
</event>
<event>
 7    1  0.2942034E-011  0.5052886E+02  0.7816164E-02  0.1300439E+00
        -11   -1    0    0    0    0  0.00000000000E+00  0.00000000000E+00  0.45593999997E+02  0.45594000000E+02  0.51100000000E-03 0. -1.
         11   -1    0    0    0    0 -0.00000000000E+00 -0.00000000000E+00 -0.45593999997E+02  0.45594000000E+02  0.51100000000E-03 0.  1.
    9900012    2    1    2    0    0  0.94621066912E+01 -0.36247564654E+02 -0.15803431828E+02  0.50528857561E+02  0.29999993042E+02 0.  0.
         12    1    1    2    0    0 -0.94621066912E+01  0.36247564654E+02  0.15803431828E+02  0.40659142439E+02  0.00000000000E+00 0. -1.
         11    1    3    3    0    0  0.13801420206E+02 -0.30196150395E+02 -0.10131942003E+02  0.34712288132E+02  0.51100000000E-03 0. -1.
        -11    1    3    3    0    0 -0.30577989520E+01 -0.51181936038E+01 -0.97569357029E+01  0.11434327036E+02  0.51100000000E-03 0.  1.
         12    1    3    3    0    0 -0.12815145624E+01 -0.93322065523E+00  0.40854458782E+01  0.43822423927E+01  0.00000000000E+00 0. -1.
</event>
<event>
 7    1  0.2942034E-011  0.5052886E+02  0.7816164E-02  0.1300439E+00
        -11   -1    0    0    0    0  0.00000000000E+00  0.00000000000E+00  0.45593999997E+02  0.45594000000E+02  0.51100000000E-03 0.  1.
         11   -1    0    0    0    0 -0.00000000000E+00 -0.00000000000E+00 -0.45593999997E+02  0.45594000000E+02  0.51100000000E-03 0. -1.
    9900012    2    1    2    0    0 -0.45348525774E+01  0.13819136052E+02  0.37968832936E+02  0.50528859778E+02  0.29999999780E+02 0.  0.
         12    1    1    2    0    0  0.45348525774E+01 -0.13819136052E+02 -0.37968832936E+02  0.40659140222E+02  0.00000000000E+00 0. -1.
         11    1    3    3    0    0  0.79193046833E+01  0.17577830040E+01  0.25726451641E+02  0.26975090399E+02  0.51100000000E-03 0. -1.
        -11    1    3    3    0    0 -0.15224717863E+01  0.81829568022E+01  0.67669164699E+01  0.10727062093E+02  0.51100000000E-03 0.  1.
         12    1    3    3    0    0 -0.10931685474E+02  0.38783962455E+01  0.54754648252E+01  0.12826707286E+02  0.00000000000E+00 0. -1.
</event>
<event>
 7    1  0.2942034E-011  0.5052887E+02  0.7816164E-02  0.1300439E+00
        -11   -1    0    0    0    0  0.00000000000E+00  0.00000000000E+00  0.45593999997E+02  0.45594000000E+02  0.51100000000E-03 0.  1.
         11   -1    0    0    0    0 -0.00000000000E+00 -0.00000000000E+00 -0.45593999997E+02  0.45594000000E+02  0.51100000000E-03 0. -1.
    9900012    2    1    2    0    0  0.25258820401E+02  0.17538956202E+02  0.26599659630E+02  0.50528869596E+02  0.30000029625E+02 0.  0.
         12    1    1    2    0    0 -0.25258820401E+02 -0.17538956202E+02 -0.26599659630E+02  0.40659130404E+02  0.00000000000E+00 0. -1.
         11    1    3    3    0    0  0.23872272847E+01  0.76974821216E+01 -0.32400261314E+01  0.86860724562E+01  0.51100000000E-03 0. -1.
        -11    1    3    3    0    0  0.24449852392E+02  0.10941883371E+02  0.29572151697E+02  0.39900278821E+02  0.51100000000E-03 0.  1.
        -12    1    3    3    0    0 -0.15782592751E+01 -0.11004092905E+01  0.26753406433E+00  0.19425183195E+01  0.00000000000E+00 0.  1.
</event>
<event>
 7    1  0.2942034E-011  0.5052885E+02  0.7816164E-02  0.1300439E+00
        -11   -1    0    0    0    0  0.00000000000E+00  0.00000000000E+00  0.45593999997E+02  0.45594000000E+02  0.51100000000E-03 0. -1.
         11   -1    0    0    0    0 -0.00000000000E+00 -0.00000000000E+00 -0.45593999997E+02  0.45594000000E+02  0.51100000000E-03 0.  1.
    9900012    2    1    2    0    0  0.38537890622E+02 -0.84893617695E+01 -0.97943052495E+01  0.50528847375E+02  0.29999962081E+02 0.  0.
         12    1    1    2    0    0 -0.38537890622E+02  0.84893617695E+01  0.97943052495E+01  0.40659152625E+02  0.00000000000E+00 0. -1.
         11    1    3    3    0    0  0.20899423669E+02 -0.50617066007E+00 -0.18741270360E+01  0.20989389483E+02  0.51100000000E-03 0. -1.
        -11    1    3    3    0    0 -0.80929583516E+00 -0.98763421516E+01 -0.29878869049E+01  0.10350099635E+02  0.51100000000E-03 0.  1.
        -12    1    3    3    0    0  0.18447762788E+02  0.18931510421E+01 -0.49322913087E+01  0.19189358257E+02  0.00000000000E+00 0.  1.
</event>
<event>
 7    1  0.2942034E-011  0.5052886E+02  0.7816164E-02  0.1300439E+00
        -11   -1    0    0    0    0  0.00000000000E+00  0.00000000000E+00  0.45593999997E+02  0.45594000000E+02  0.51100000000E-03 0. -1.
         11   -1    0    0    0    0 -0.00000000000E+00 -0.00000000000E+00 -0.45593999997E+02  0.45594000000E+02  0.51100000000E-03 0.  1.
    9900012    2    1    2    0    0  0.27494452616E+02 -0.28807541041E+02  0.82064853870E+01  0.50528858987E+02  0.29999997378E+02 0.  0.
         12    1    1    2    0    0 -0.27494452616E+02  0.28807541041E+02 -0.82064853870E+01  0.40659141013E+02  0.00000000000E+00 0. -1.
         11    1    3    3    0    0  0.12726825525E+01  0.12634456302E+01 -0.57792184172E+01  0.60510644944E+01  0.51100000000E-03 0.  1.
        -11    1    3    3    0    0  0.10845162334E+02 -0.20460158694E+02  0.12420112090E+02  0.26277268206E+02  0.51100000000E-03 0. -1.
         12    1    3    3    0    0  0.15376607730E+02 -0.96108279780E+01  0.15655917146E+01  0.18200526287E+02  0.00000000000E+00 0. -1.
</event>
<event>
 7    1  0.2942034E-011  0.5052886E+02  0.7816164E-02  0.1300439E+00
        -11   -1    0    0    0    0  0.00000000000E+00  0.00000000000E+00  0.45593999997E+02  0.45594000000E+02  0.51100000000E-03 0.  1.
         11   -1    0    0    0    0 -0.00000000000E+00 -0.00000000000E+00 -0.45593999997E+02  0.45594000000E+02  0.51100000000E-03 0. -1.
    9900012    2    1    2    0    0  0.59323589971E+01  0.11008523916E+02  0.38688308778E+02  0.50528859353E+02  0.29999998488E+02 0.  0.
         12    1    1    2    0    0 -0.59323589971E+01 -0.11008523916E+02 -0.38688308778E+02  0.40659140647E+02  0.00000000000E+00 0. -1.
         11    1    3    3    0    0  0.87734524262E+00 -0.26705738616E+00 -0.24606492274E+01  0.26259948979E+01  0.51100000000E-03 0. -1.
        -11    1    3    3    0    0 -0.88191081281E-01  0.30530223154E+01  0.37369108996E+02  0.37493719879E+02  0.51100000000E-03 0.  1.
        -12    1    3    3    0    0  0.51432048357E+01  0.82225589865E+01  0.37798490094E+01  0.10409144576E+02  0.00000000000E+00 0.  1.
</event>
<event>
 7    1  0.2942034E-011  0.5052887E+02  0.7816164E-02  0.1300439E+00
        -11   -1    0    0    0    0  0.00000000000E+00  0.00000000000E+00  0.45593999997E+02  0.45594000000E+02  0.51100000000E-03 0.  1.
         11   -1    0    0    0    0 -0.00000000000E+00 -0.00000000000E+00 -0.45593999997E+02  0.45594000000E+02  0.51100000000E-03 0. -1.
    9900012    2    1    2    0    0  0.13555006792E+02  0.21241305698E+02  0.31909776371E+02  0.50528866894E+02  0.30000021411E+02 0.  0.
         12    1    1    2    0    0 -0.13555006792E+02 -0.21241305698E+02 -0.31909776371E+02  0.40659133106E+02  0.00000000000E+00 0. -1.
         11    1    3    3    0    0 -0.12320630233E+01  0.52263998917E+01  0.18879047346E+02  0.19627828817E+02  0.51100000000E-03 0. -1.
        -11    1    3    3    0    0  0.12800757927E+02  0.18395929409E+02  0.15232615839E+02  0.27098011143E+02  0.51100000000E-03 0.  1.
         12    1    3    3    0    0  0.19863118886E+01 -0.23810236027E+01 -0.22018868143E+01  0.38030269338E+01  0.00000000000E+00 0. -1.
</event>
<event>
 7    1  0.2942034E-011  0.5052886E+02  0.7816164E-02  0.1300439E+00
        -11   -1    0    0    0    0  0.00000000000E+00  0.00000000000E+00  0.45593999997E+02  0.45594000000E+02  0.51100000000E-03 0.  1.
         11   -1    0    0    0    0 -0.00000000000E+00 -0.00000000000E+00 -0.45593999997E+02  0.45594000000E+02  0.51100000000E-03 0. -1.
    9900012    2    1    2    0    0  0.89838011567E+01  0.32569884042E+02  0.22619899741E+02  0.50528857190E+02  0.29999991916E+02 0.  0.
         12    1    1    2    0    0 -0.89838011567E+01 -0.32569884042E+02 -0.22619899741E+02  0.40659142810E+02  0.00000000000E+00 0. -1.
         11    1    3    3    0    0  0.77938998393E+01  0.15205421707E+02 -0.86759837705E+00  0.17108549068E+02  0.51100000000E-03 0. -1.
        -11    1    3    3    0    0  0.24938062878E+01  0.12984040559E+02  0.25265893130E+02  0.28516131136E+02  0.51100000000E-03 0.  1.
        -12    1    3    3    0    0 -0.13039049704E+01  0.43804217754E+01 -0.17783950118E+01  0.49041769870E+01  0.00000000000E+00 0.  1.
</event>
<event>
 7    1  0.2942034E-011  0.5052888E+02  0.7816164E-02  0.1300439E+00
        -11   -1    0    0    0    0  0.00000000000E+00  0.00000000000E+00  0.45593999997E+02  0.45594000000E+02  0.51100000000E-03 0.  1.
         11   -1    0    0    0    0 -0.00000000000E+00 -0.00000000000E+00 -0.45593999997E+02  0.45594000000E+02  0.51100000000E-03 0. -1.
    9900012    2    1    2    0    0  0.20608173288E+02  0.32140601895E+02  0.13980304635E+02  0.50528880308E+02  0.30000062184E+02 0.  0.
         12    1    1    2    0    0 -0.20608173288E+02 -0.32140601895E+02 -0.13980304635E+02  0.40659119692E+02  0.00000000000E+00 0. -1.
         11    1    3    3    0    0  0.71728554186E-01 -0.29859790673E+01  0.12669387778E+01  0.32444337107E+01  0.51100000000E-03 0. -1.
        -11    1    3    3    0    0  0.20813243835E+02  0.22339082639E+02  0.19963100537E+01  0.30597565037E+02  0.51100000000E-03 0.  1.
        -12    1    3    3    0    0 -0.27679910148E+00  0.12787498322E+02  0.10717055804E+02  0.16686881560E+02  0.00000000000E+00 0.  1.
</event>
<event>
 7    1  0.2942034E-011  0.5052887E+02  0.7816164E-02  0.1300439E+00
        -11   -1    0    0    0    0  0.00000000000E+00  0.00000000000E+00  0.45593999997E+02  0.45594000000E+02  0.51100000000E-03 0.  1.
         11   -1    0    0    0    0 -0.00000000000E+00 -0.00000000000E+00 -0.45593999997E+02  0.45594000000E+02  0.51100000000E-03 0. -1.
    9900012    2    1    2    0    0 -0.11029518798E+02  0.86134087914E+01  0.38174913061E+02  0.50528867162E+02  0.30000022225E+02 0.  0.
         12    1    1    2    0    0  0.11029518798E+02 -0.86134087914E+01 -0.38174913061E+02  0.40659132838E+02  0.00000000000E+00 0. -1.
         11    1    3    3    0    0  0.61757116293E+01  0.84112874829E+01  0.10120261253E+02  0.14536466536E+02  0.51100000000E-03 0. -1.
        -11    1    3    3    0    0 -0.15598300294E+02  0.38700228189E+00  0.11560465825E+02  0.19419091461E+02  0.51100000000E-03 0.  1.
        -12    1    3    3    0    0 -0.16069301329E+01 -0.18488097338E+00  0.16494185983E+02  0.16573309165E+02  0.00000000000E+00 0.  1.
</event>
<event>
 7    1  0.2942034E-011  0.5052886E+02  0.7816164E-02  0.1300439E+00
        -11   -1    0    0    0    0  0.00000000000E+00  0.00000000000E+00  0.45593999997E+02  0.45594000000E+02  0.51100000000E-03 0. -1.
         11   -1    0    0    0    0 -0.00000000000E+00 -0.00000000000E+00 -0.45593999997E+02  0.45594000000E+02  0.51100000000E-03 0.  1.
    9900012    2    1    2    0    0 -0.24385462530E+02  0.29833435824E+02 -0.12980029128E+02  0.50528857953E+02  0.29999994234E+02 0.  0.
         12    1    1    2    0    0  0.24385462530E+02 -0.29833435824E+02  0.12980029128E+02  0.40659142047E+02  0.00000000000E+00 0. -1.
         11    1    3    3    0    0 -0.98199275759E+01 -0.25621179990E+01 -0.61664841981E+01  0.11875224371E+02  0.51100000000E-03 0. -1.
        -11    1    3    3    0    0  0.73066598702E+00  0.14288788879E+02 -0.34030966351E+01  0.14706611689E+02  0.51100000000E-03 0.  1.
         12    1    3    3    0    0 -0.15296200941E+02  0.18106764944E+02 -0.34104482943E+01  0.23947021893E+02  0.00000000000E+00 0. -1.
</event>
<event>
 7    1  0.2942034E-011  0.5052888E+02  0.7816164E-02  0.1300439E+00
        -11   -1    0    0    0    0  0.00000000000E+00  0.00000000000E+00  0.45593999997E+02  0.45594000000E+02  0.51100000000E-03 0. -1.
         11   -1    0    0    0    0 -0.00000000000E+00 -0.00000000000E+00 -0.45593999997E+02  0.45594000000E+02  0.51100000000E-03 0.  1.
    9900012    2    1    2    0    0 -0.24354222561E+02  0.32009111062E+02 -0.59542406053E+01  0.50528876439E+02  0.30000050424E+02 0.  0.
         12    1    1    2    0    0  0.24354222561E+02 -0.32009111062E+02  0.59542406053E+01  0.40659123561E+02  0.00000000000E+00 0. -1.
         11    1    3    3    0    0 -0.11289965501E+02 -0.28089980886E+01 -0.31669193681E+01  0.12057494342E+02  0.51100000000E-03 0. -1.
        -11    1    3    3    0    0 -0.12168863851E+02  0.31319022790E+02 -0.53763650691E+01  0.34027455644E+02  0.51100000000E-03 0.  1.
         12    1    3    3    0    0 -0.89539320983E+00  0.34990863606E+01  0.25890438318E+01  0.44439264533E+01  0.00000000000E+00 0. -1.
</event>
<event>
 7    1  0.2942034E-011  0.5052886E+02  0.7816164E-02  0.1300439E+00
        -11   -1    0    0    0    0  0.00000000000E+00  0.00000000000E+00  0.45593999997E+02  0.45594000000E+02  0.51100000000E-03 0. -1.
         11   -1    0    0    0    0 -0.00000000000E+00 -0.00000000000E+00 -0.45593999997E+02  0.45594000000E+02  0.51100000000E-03 0.  1.
    9900012    2    1    2    0    0 -0.21447084001E+02  0.20116233934E+02 -0.28080698291E+02  0.50528857162E+02  0.29999991829E+02 0.  0.
         12    1    1    2    0    0  0.21447084001E+02 -0.20116233934E+02  0.28080698291E+02  0.40659142838E+02  0.00000000000E+00 0. -1.
         11    1    3    3    0    0 -0.12496994654E+02  0.25229851628E+02 -0.12049643075E+02  0.30625384684E+02  0.51100000000E-03 0. -1.
        -11    1    3    3    0    0 -0.39854406531E+01  0.74442265628E+00 -0.65444452753E+01  0.76985496369E+01  0.51100000000E-03 0.  1.
         12    1    3    3    0    0 -0.49646486936E+01 -0.58580403501E+01 -0.94866099401E+01  0.12204922841E+02  0.00000000000E+00 0. -1.
</event>
<event>
 7    1  0.2942034E-011  0.5052886E+02  0.7816164E-02  0.1300439E+00
        -11   -1    0    0    0    0  0.00000000000E+00  0.00000000000E+00  0.45593999997E+02  0.45594000000E+02  0.51100000000E-03 0.  1.
         11   -1    0    0    0    0 -0.00000000000E+00 -0.00000000000E+00 -0.45593999997E+02  0.45594000000E+02  0.51100000000E-03 0. -1.
    9900012    2    1    2    0    0  0.89876119377E+01  0.38623251370E+02  0.89795859140E+01  0.50528859848E+02  0.29999999995E+02 0.  0.
         12    1    1    2    0    0 -0.89876119377E+01 -0.38623251370E+02 -0.89795859140E+01  0.40659140152E+02  0.00000000000E+00 0. -1.
         11    1    3    3    0    0  0.89081857449E+01  0.15126476049E+02 -0.73177491233E+01  0.19018819717E+02  0.51100000000E-03 0. -1.
        -11    1    3    3    0    0 -0.44374075255E+01  0.15331580825E+02  0.47275430673E+01  0.16646249423E+02  0.51100000000E-03 0.  1.
         12    1    3    3    0    0  0.45168337184E+01  0.81651944952E+01  0.11569791970E+02  0.14863790708E+02  0.00000000000E+00 0. -1.
</event>
<event>
 7    1  0.2942034E-011  0.5052885E+02  0.7816164E-02  0.1300439E+00
        -11   -1    0    0    0    0  0.00000000000E+00  0.00000000000E+00  0.45593999997E+02  0.45594000000E+02  0.51100000000E-03 0.  1.
         11   -1    0    0    0    0 -0.00000000000E+00 -0.00000000000E+00 -0.45593999997E+02  0.45594000000E+02  0.51100000000E-03 0. -1.
    9900012    2    1    2    0    0 -0.14531505346E+02 -0.34677845480E+02  0.15474133754E+02  0.50528850597E+02  0.29999971874E+02 0.  0.
         12    1    1    2    0    0  0.14531505346E+02  0.34677845480E+02 -0.15474133754E+02  0.40659149403E+02  0.00000000000E+00 0. -1.
         11    1    3    3    0    0 -0.97076881088E+01  0.11088940223E+00  0.21581729528E+01  0.99453112386E+01  0.51100000000E-03 0. -1.
        -11    1    3    3    0    0 -0.78646710249E+01 -0.31289474759E+02  0.15093178214E+02  0.35618651153E+02  0.51100000000E-03 0.  1.
         12    1    3    3    0    0  0.30408537875E+01 -0.34992601226E+01 -0.17772174131E+01  0.49648882058E+01  0.00000000000E+00 0. -1.
</event>
<event>
 7    1  0.2942034E-011  0.5052886E+02  0.7816164E-02  0.1300439E+00
        -11   -1    0    0    0    0  0.00000000000E+00  0.00000000000E+00  0.45593999997E+02  0.45594000000E+02  0.51100000000E-03 0. -1.
         11   -1    0    0    0    0 -0.00000000000E+00 -0.00000000000E+00 -0.45593999997E+02  0.45594000000E+02  0.51100000000E-03 0.  1.
    9900012    2    1    2    0    0 -0.21342028894E+02  0.66475360441E+00 -0.34601177939E+02  0.50528860690E+02  0.30000002554E+02 0.  0.
         12    1    1    2    0    0  0.21342028894E+02 -0.66475360441E+00  0.34601177939E+02  0.40659139310E+02  0.00000000000E+00 0. -1.
         11    1    3    3    0    0  0.70796148791E+01 -0.10284409338E+01 -0.11701003801E+02  0.13714668345E+02  0.51100000000E-03 0.  1.
        -11    1    3    3    0    0 -0.17380348288E+02  0.26352467566E+01 -0.12104073138E+02  0.21343139855E+02  0.51100000000E-03 0. -1.
        -12    1    3    3    0    0 -0.11041295485E+02 -0.94205221843E+00 -0.10796100999E+02  0.15471052491E+02  0.00000000000E+00 0.  1.
</event>
<event>
 7    1  0.2942034E-011  0.5052887E+02  0.7816164E-02  0.1300439E+00
        -11   -1    0    0    0    0  0.00000000000E+00  0.00000000000E+00  0.45593999997E+02  0.45594000000E+02  0.51100000000E-03 0.  1.
         11   -1    0    0    0    0 -0.00000000000E+00 -0.00000000000E+00 -0.45593999997E+02  0.45594000000E+02  0.51100000000E-03 0. -1.
    9900012    2    1    2    0    0 -0.14243919562E+02  0.12941049055E+02  0.35816263432E+02  0.50528871611E+02  0.30000035750E+02 0.  0.
         12    1    1    2    0    0  0.14243919562E+02 -0.12941049055E+02 -0.35816263432E+02  0.40659128389E+02  0.00000000000E+00 0. -1.
         11    1    3    3    0    0 -0.26691291530E+01 -0.20369486745E+01  0.38874874731E+00  0.33800201460E+01  0.51100000000E-03 0. -1.
        -11    1    3    3    0    0 -0.11921869964E+02  0.16328648090E+02  0.38660537810E+02  0.43627891490E+02  0.51100000000E-03 0.  1.
        -12    1    3    3    0    0  0.34707955552E+00 -0.13506503613E+01 -0.32330231254E+01  0.35209599750E+01  0.00000000000E+00 0.  1.
</event>
<event>
 7    1  0.2942034E-011  0.5052885E+02  0.7816164E-02  0.1300439E+00
        -11   -1    0    0    0    0  0.00000000000E+00  0.00000000000E+00  0.45593999997E+02  0.45594000000E+02  0.51100000000E-03 0.  1.
         11   -1    0    0    0    0 -0.00000000000E+00 -0.00000000000E+00 -0.45593999997E+02  0.45594000000E+02  0.51100000000E-03 0. -1.
    9900012    2    1    2    0    0 -0.37589275035E+02 -0.85796863755E+01  0.12907422473E+02  0.50528853786E+02  0.29999981569E+02 0.  0.
         12    1    1    2    0    0  0.37589275035E+02  0.85796863755E+01 -0.12907422473E+02  0.40659146214E+02  0.00000000000E+00 0. -1.
         11    1    3    3    0    0 -0.16868680613E+02  0.46822162220E+01 -0.13360162214E+01  0.17557348148E+02  0.51100000000E-03 0. -1.
        -11    1    3    3    0    0 -0.19154613606E+01 -0.45039516254E+01  0.10914430443E+02  0.11961578685E+02  0.51100000000E-03 0.  1.
         12    1    3    3    0    0 -0.18805133061E+02 -0.87579509722E+01  0.33290082516E+01  0.21009926954E+02  0.00000000000E+00 0. -1.
</event>
<event>
 7    1  0.2942034E-011  0.5052887E+02  0.7816164E-02  0.1300439E+00
        -11   -1    0    0    0    0  0.00000000000E+00  0.00000000000E+00  0.45593999997E+02  0.45594000000E+02  0.51100000000E-03 0. -1.
         11   -1    0    0    0    0 -0.00000000000E+00 -0.00000000000E+00 -0.45593999997E+02  0.45594000000E+02  0.51100000000E-03 0.  1.
    9900012    2    1    2    0    0  0.36291655112E+02 -0.15455686129E+02  0.98591154870E+01  0.50528872824E+02  0.30000039436E+02 0.  0.
         12    1    1    2    0    0 -0.36291655112E+02  0.15455686129E+02 -0.98591154870E+01  0.40659127176E+02  0.00000000000E+00 0. -1.
         11    1    3    3    0    0  0.18890014003E+02 -0.11201359593E+02  0.99915996562E+00  0.21984117145E+02  0.51100000000E-03 0.  1.
        -11    1    3    3    0    0 -0.84837510935E+00  0.30014009829E+00  0.96755832053E+01  0.97173419734E+01  0.51100000000E-03 0. -1.
         12    1    3    3    0    0  0.18250016219E+02 -0.45544666343E+01 -0.81562768384E+00  0.18827413705E+02  0.00000000000E+00 0. -1.
</event>
<event>
 7    1  0.2942034E-011  0.5052885E+02  0.7816164E-02  0.1300439E+00
        -11   -1    0    0    0    0  0.00000000000E+00  0.00000000000E+00  0.45593999997E+02  0.45594000000E+02  0.51100000000E-03 0. -1.
         11   -1    0    0    0    0 -0.00000000000E+00 -0.00000000000E+00 -0.45593999997E+02  0.45594000000E+02  0.51100000000E-03 0.  1.
    9900012    2    1    2    0    0 -0.37996375229E+02 -0.11278832250E+02 -0.90680779140E+01  0.50528848207E+02  0.29999964610E+02 0.  0.
         12    1    1    2    0    0  0.37996375229E+02  0.11278832250E+02  0.90680779140E+01  0.40659151793E+02  0.00000000000E+00 0. -1.
         11    1    3    3    0    0 -0.66281589636E+01  0.16363744820E+01  0.23463510321E+01  0.72191118650E+01  0.51100000000E-03 0. -1.
        -11    1    3    3    0    0 -0.26259458528E+02 -0.17880170996E+02 -0.24554196029E+01  0.31863596199E+02  0.51100000000E-03 0.  1.
        -12    1    3    3    0    0 -0.51087577374E+01  0.49649642642E+01 -0.89590093432E+01  0.11446140143E+02  0.00000000000E+00 0.  1.
</event>
<event>
 7    1  0.2942034E-011  0.5052886E+02  0.7816164E-02  0.1300439E+00
        -11   -1    0    0    0    0  0.00000000000E+00  0.00000000000E+00  0.45593999997E+02  0.45594000000E+02  0.51100000000E-03 0.  1.
         11   -1    0    0    0    0 -0.00000000000E+00 -0.00000000000E+00 -0.45593999997E+02  0.45594000000E+02  0.51100000000E-03 0. -1.
    9900012    2    1    2    0    0 -0.19628385456E+02 -0.35566870989E+02 -0.17000382344E+01  0.50528856410E+02  0.29999989542E+02 0.  0.
         12    1    1    2    0    0  0.19628385456E+02  0.35566870989E+02  0.17000382344E+01  0.40659143590E+02  0.00000000000E+00 0. -1.
         11    1    3    3    0    0  0.11698605442E+01 -0.63636576775E+01 -0.95558688907E+00  0.65404785217E+01  0.51100000000E-03 0. -1.
        -11    1    3    3    0    0 -0.69274874004E+01  0.12678979549E+01  0.66674896328E+01  0.96980959560E+01  0.51100000000E-03 0.  1.
        -12    1    3    3    0    0 -0.13870758599E+02 -0.30471111266E+02 -0.74119409781E+01  0.34290281932E+02  0.00000000000E+00 0.  1.
</event>
<event>
 7    1  0.2942034E-011  0.5052885E+02  0.7816164E-02  0.1300439E+00
        -11   -1    0    0    0    0  0.00000000000E+00  0.00000000000E+00  0.45593999997E+02  0.45594000000E+02  0.51100000000E-03 0.  1.
         11   -1    0    0    0    0 -0.00000000000E+00 -0.00000000000E+00 -0.45593999997E+02  0.45594000000E+02  0.51100000000E-03 0. -1.
    9900012    2    1    2    0    0 -0.20103416518E+02  0.33215364817E+02  0.12073051165E+02  0.50528851214E+02  0.29999973749E+02 0.  0.
         12    1    1    2    0    0  0.20103416518E+02 -0.33215364817E+02 -0.12073051165E+02  0.40659148786E+02  0.00000000000E+00 0. -1.
         11    1    3    3    0    0  0.19840358120E+01 -0.36888543110E-01 -0.31640467573E+01  0.37348294488E+01  0.51100000000E-03 0. -1.
        -11    1    3    3    0    0 -0.22603226583E+02  0.33143986844E+02  0.97550360918E+01  0.41286686054E+02  0.51100000000E-03 0.  1.
        -12    1    3    3    0    0  0.51577425269E+00  0.10826651542E+00  0.54820618306E+01  0.55073357109E+01  0.00000000000E+00 0.  1.
</event>
<event>
 7    1  0.2942034E-011  0.5052886E+02  0.7816164E-02  0.1300439E+00
        -11   -1    0    0    0    0  0.00000000000E+00  0.00000000000E+00  0.45593999997E+02  0.45594000000E+02  0.51100000000E-03 0.  1.
         11   -1    0    0    0    0 -0.00000000000E+00 -0.00000000000E+00 -0.45593999997E+02  0.45594000000E+02  0.51100000000E-03 0. -1.
    9900012    2    1    2    0    0 -0.23202748268E+02  0.67722140863E+01  0.32694575237E+02  0.50528860060E+02  0.30000000637E+02 0.  0.
         12    1    1    2    0    0  0.23202748268E+02 -0.67722140863E+01 -0.32694575237E+02  0.40659139940E+02  0.00000000000E+00 0. -1.
         11    1    3    3    0    0 -0.49790430511E+01  0.32951066334E+01 -0.27177323072E+01  0.65600812941E+01  0.51100000000E-03 0. -1.
        -11    1    3    3    0    0 -0.76902989029E+01  0.10916095257E+01  0.31560581247E+02  0.32502347568E+02  0.51100000000E-03 0.  1.
        -12    1    3    3    0    0 -0.10533406314E+02  0.23854979272E+01  0.38517262972E+01  0.11466431197E+02  0.00000000000E+00 0.  1.
</event>
<event>
 7    1  0.2942034E-011  0.5052887E+02  0.7816164E-02  0.1300439E+00
        -11   -1    0    0    0    0  0.00000000000E+00  0.00000000000E+00  0.45593999997E+02  0.45594000000E+02  0.51100000000E-03 0.  1.
         11   -1    0    0    0    0 -0.00000000000E+00 -0.00000000000E+00 -0.45593999997E+02  0.45594000000E+02  0.51100000000E-03 0. -1.
    9900012    2    1    2    0    0  0.24444761993E+02 -0.22961576431E+02  0.22986612358E+02  0.50528871520E+02  0.30000035471E+02 0.  0.
         12    1    1    2    0    0 -0.24444761993E+02  0.22961576431E+02 -0.22986612358E+02  0.40659128480E+02  0.00000000000E+00 0. -1.
         11    1    3    3    0    0  0.18559903410E+01  0.20478297051E+00 -0.24913997219E+01  0.31134721849E+01  0.51100000000E-03 0. -1.
        -11    1    3    3    0    0  0.54356889593E+01 -0.84977738803E+01  0.22489949801E+02  0.24648665637E+02  0.51100000000E-03 0.  1.
        -12    1    3    3    0    0  0.17153082693E+02 -0.14668585521E+02  0.29880622786E+01  0.22766733697E+02  0.00000000000E+00 0.  1.
</event>
<event>
 7    1  0.2942034E-011  0.5052886E+02  0.7816164E-02  0.1300439E+00
        -11   -1    0    0    0    0  0.00000000000E+00  0.00000000000E+00  0.45593999997E+02  0.45594000000E+02  0.51100000000E-03 0.  1.
         11   -1    0    0    0    0 -0.00000000000E+00 -0.00000000000E+00 -0.45593999997E+02  0.45594000000E+02  0.51100000000E-03 0. -1.
    9900012    2    1    2    0    0 -0.16436639612E+02  0.28407995115E+02  0.23999754946E+02  0.50528861475E+02  0.30000004938E+02 0.  0.
         12    1    1    2    0    0  0.16436639612E+02 -0.28407995115E+02 -0.23999754946E+02  0.40659138525E+02  0.00000000000E+00 0. -1.
         11    1    3    3    0    0 -0.17704860231E+02  0.27829426448E+01  0.66173866822E+01  0.19104885562E+02  0.51100000000E-03 0. -1.
        -11    1    3    3    0    0  0.12247870042E+01  0.99605709457E+01  0.39362340836E+01  0.10779935797E+02  0.51100000000E-03 0.  1.
         12    1    3    3    0    0  0.43433614764E-01  0.15664481524E+02  0.13446134180E+02  0.20644040115E+02  0.00000000000E+00 0. -1.
</event>
<event>
 7    1  0.2942034E-011  0.5052886E+02  0.7816164E-02  0.1300439E+00
        -11   -1    0    0    0    0  0.00000000000E+00  0.00000000000E+00  0.45593999997E+02  0.45594000000E+02  0.51100000000E-03 0.  1.
         11   -1    0    0    0    0 -0.00000000000E+00 -0.00000000000E+00 -0.45593999997E+02  0.45594000000E+02  0.51100000000E-03 0. -1.
    9900012    2    1    2    0    0 -0.33439837888E+02  0.11024261705E+02 -0.20332445307E+02  0.50528862819E+02  0.30000009026E+02 0.  0.
         12    1    1    2    0    0  0.33439837888E+02 -0.11024261705E+02  0.20332445307E+02  0.40659137181E+02  0.00000000000E+00 0. -1.
         11    1    3    3    0    0  0.30306163797E-01 -0.86865653866E+00 -0.45125354966E+01  0.45954825117E+01  0.51100000000E-03 0. -1.
        -11    1    3    3    0    0 -0.18752570481E+02  0.13496965250E+01  0.38594043406E+01  0.19193112892E+02  0.51100000000E-03 0.  1.
        -12    1    3    3    0    0 -0.14717573571E+02  0.10543221719E+02 -0.19679314151E+02  0.26740267416E+02  0.00000000000E+00 0.  1.
</event>
<event>
 7    1  0.2942034E-011  0.5052887E+02  0.7816164E-02  0.1300439E+00
        -11   -1    0    0    0    0  0.00000000000E+00  0.00000000000E+00  0.45593999997E+02  0.45594000000E+02  0.51100000000E-03 0.  1.
         11   -1    0    0    0    0 -0.00000000000E+00 -0.00000000000E+00 -0.45593999997E+02  0.45594000000E+02  0.51100000000E-03 0. -1.
    9900012    2    1    2    0    0  0.17347964499E+02  0.24905925380E+02  0.27053800850E+02  0.50528866565E+02  0.30000020410E+02 0.  0.
         12    1    1    2    0    0 -0.17347964499E+02 -0.24905925380E+02 -0.27053800850E+02  0.40659133435E+02  0.00000000000E+00 0. -1.
         11    1    3    3    0    0  0.23989174445E+02  0.19077240572E+02  0.15296851976E+02  0.34255149672E+02  0.51100000000E-03 0. -1.
        -11    1    3    3    0    0 -0.42076499084E+01 -0.10118817689E+00  0.74327627317E+01  0.85416929754E+01  0.51100000000E-03 0.  1.
         12    1    3    3    0    0 -0.24335600375E+01  0.59298729846E+01  0.43241861421E+01  0.77320239175E+01  0.00000000000E+00 0. -1.
</event>
<event>
 7    1  0.2942034E-011  0.5052886E+02  0.7816164E-02  0.1300439E+00
        -11   -1    0    0    0    0  0.00000000000E+00  0.00000000000E+00  0.45593999997E+02  0.45594000000E+02  0.51100000000E-03 0.  1.
         11   -1    0    0    0    0 -0.00000000000E+00 -0.00000000000E+00 -0.45593999997E+02  0.45594000000E+02  0.51100000000E-03 0. -1.
    9900012    2    1    2    0    0 -0.21318533194E+02 -0.31290058359E+02  0.14819511084E+02  0.50528861809E+02  0.30000005955E+02 0.  0.
         12    1    1    2    0    0  0.21318533194E+02  0.31290058359E+02 -0.14819511084E+02  0.40659138191E+02  0.00000000000E+00 0. -1.
         11    1    3    3    0    0 -0.14507424159E+02 -0.31027141168E+01 -0.57150662283E+00  0.14846508367E+02  0.51100000000E-03 0. -1.
        -11    1    3    3    0    0 -0.43362255028E+01 -0.22974162617E+02  0.51697836089E+01  0.23944553919E+02  0.51100000000E-03 0.  1.
        -12    1    3    3    0    0 -0.24748835329E+01 -0.52131816255E+01  0.10221234098E+02  0.11737799523E+02  0.00000000000E+00 0.  1.
</event>
<event>
 7    1  0.2942034E-011  0.5052886E+02  0.7816164E-02  0.1300439E+00
        -11   -1    0    0    0    0  0.00000000000E+00  0.00000000000E+00  0.45593999997E+02  0.45594000000E+02  0.51100000000E-03 0. -1.
         11   -1    0    0    0    0 -0.00000000000E+00 -0.00000000000E+00 -0.45593999997E+02  0.45594000000E+02  0.51100000000E-03 0.  1.
    9900012    2    1    2    0    0 -0.22656205599E+02 -0.33659979218E+02  0.26206983510E+01  0.50528856958E+02  0.29999991209E+02 0.  0.
         12    1    1    2    0    0  0.22656205599E+02  0.33659979218E+02 -0.26206983510E+01  0.40659143042E+02  0.00000000000E+00 0. -1.
         11    1    3    3    0    0 -0.89234098127E+01  0.12591901725E+01  0.20648264875E+01  0.92453399754E+01  0.51100000000E-03 0. -1.
        -11    1    3    3    0    0 -0.97889917024E+00 -0.18250114811E+02 -0.60958511138E+01  0.19266144795E+02  0.51100000000E-03 0.  1.
         12    1    3    3    0    0 -0.12753896616E+02 -0.16669054579E+02  0.66517229774E+01  0.22017372187E+02  0.00000000000E+00 0. -1.
</event>
<event>
 7    1  0.2942034E-011  0.5052886E+02  0.7816164E-02  0.1300439E+00
        -11   -1    0    0    0    0  0.00000000000E+00  0.00000000000E+00  0.45593999997E+02  0.45594000000E+02  0.51100000000E-03 0. -1.
         11   -1    0    0    0    0 -0.00000000000E+00 -0.00000000000E+00 -0.45593999997E+02  0.45594000000E+02  0.51100000000E-03 0.  1.
    9900012    2    1    2    0    0 -0.19707501459E+02 -0.20350441043E+02 -0.29165720684E+02  0.50528864158E+02  0.30000013096E+02 0.  0.
         12    1    1    2    0    0  0.19707501459E+02  0.20350441043E+02  0.29165720684E+02  0.40659135842E+02  0.00000000000E+00 0. -1.
         11    1    3    3    0    0 -0.95982094495E+01 -0.15865524042E+02  0.14342095457E+00  0.18543490707E+02  0.51100000000E-03 0. -1.
        -11    1    3    3    0    0 -0.97653569064E+01 -0.50752498159E+01 -0.21562979216E+02  0.24209139372E+02  0.51100000000E-03 0.  1.
         12    1    3    3    0    0 -0.34393510274E+00  0.59033281464E+00 -0.77461624227E+01  0.77762340799E+01  0.00000000000E+00 0. -1.
</event>
<event>
 7    1  0.2942034E-011  0.5052886E+02  0.7816164E-02  0.1300439E+00
        -11   -1    0    0    0    0  0.00000000000E+00  0.00000000000E+00  0.45593999997E+02  0.45594000000E+02  0.51100000000E-03 0. -1.
         11   -1    0    0    0    0 -0.00000000000E+00 -0.00000000000E+00 -0.45593999997E+02  0.45594000000E+02  0.51100000000E-03 0.  1.
    9900012    2    1    2    0    0  0.36405032912E+02  0.16908838921E+02 -0.64753512578E+01  0.50528862910E+02  0.30000009301E+02 0.  0.
         12    1    1    2    0    0 -0.36405032912E+02 -0.16908838921E+02  0.64753512578E+01  0.40659137090E+02  0.00000000000E+00 0. -1.
         11    1    3    3    0    0  0.22788262461E+01 -0.60452007967E+01  0.38928376044E+01  0.75426577947E+01  0.51100000000E-03 0. -1.
        -11    1    3    3    0    0  0.27010116571E+02  0.19362564454E+02 -0.56114926888E+01  0.33703770558E+02  0.51100000000E-03 0.  1.
         12    1    3    3    0    0  0.71160900956E+01  0.35914752640E+01 -0.47566961733E+01  0.92824345571E+01  0.00000000000E+00 0. -1.
</event>
<event>
 7    1  0.2942034E-011  0.5052886E+02  0.7816164E-02  0.1300439E+00
        -11   -1    0    0    0    0  0.00000000000E+00  0.00000000000E+00  0.45593999997E+02  0.45594000000E+02  0.51100000000E-03 0.  1.
         11   -1    0    0    0    0 -0.00000000000E+00 -0.00000000000E+00 -0.45593999997E+02  0.45594000000E+02  0.51100000000E-03 0. -1.
    9900012    2    1    2    0    0  0.45283011090E+01 -0.43959530444E+01  0.40166350810E+02  0.50528860173E+02  0.30000000982E+02 0.  0.
         12    1    1    2    0    0 -0.45283011090E+01  0.43959530444E+01 -0.40166350810E+02  0.40659139827E+02  0.00000000000E+00 0. -1.
         11    1    3    3    0    0  0.90140492314E+01  0.37751266984E+01  0.10227878763E+01  0.98260246507E+01  0.51100000000E-03 0. -1.
        -11    1    3    3    0    0 -0.32604694744E+01 -0.65581063105E+01  0.37134657794E+02  0.37849996424E+02  0.51100000000E-03 0.  1.
        -12    1    3    3    0    0 -0.12252786480E+01 -0.16129734324E+01  0.20089051394E+01  0.28528390978E+01  0.00000000000E+00 0.  1.
</event>
<event>
 7    1  0.2942034E-011  0.5052886E+02  0.7816164E-02  0.1300439E+00
        -11   -1    0    0    0    0  0.00000000000E+00  0.00000000000E+00  0.45593999997E+02  0.45594000000E+02  0.51100000000E-03 0. -1.
         11   -1    0    0    0    0 -0.00000000000E+00 -0.00000000000E+00 -0.45593999997E+02  0.45594000000E+02  0.51100000000E-03 0.  1.
    9900012    2    1    2    0    0 -0.33648852368E+01  0.40357657277E+02 -0.36197425144E+01  0.50528862166E+02  0.30000007039E+02 0.  0.
         12    1    1    2    0    0  0.33648852368E+01 -0.40357657277E+02  0.36197425144E+01  0.40659137834E+02  0.00000000000E+00 0. -1.
         11    1    3    3    0    0 -0.87114958024E+01  0.87174896704E-01 -0.12743640246E+01  0.88046443714E+01  0.51100000000E-03 0. -1.
        -11    1    3    3    0    0  0.17101767238E+01  0.77817832188E+00 -0.77881913609E+00  0.20339187385E+01  0.51100000000E-03 0.  1.
         12    1    3    3    0    0  0.36364338419E+01  0.39492304058E+02 -0.15665593537E+01  0.39690299056E+02  0.00000000000E+00 0. -1.
</event>
<event>
 7    1  0.2942034E-011  0.5052887E+02  0.7816164E-02  0.1300439E+00
        -11   -1    0    0    0    0  0.00000000000E+00  0.00000000000E+00  0.45593999997E+02  0.45594000000E+02  0.51100000000E-03 0.  1.
         11   -1    0    0    0    0 -0.00000000000E+00 -0.00000000000E+00 -0.45593999997E+02  0.45594000000E+02  0.51100000000E-03 0. -1.
    9900012    2    1    2    0    0  0.10546184208E+01  0.41695506434E+01  0.40431018989E+02  0.50528872254E+02  0.30000037703E+02 0.  0.
         12    1    1    2    0    0 -0.10546184208E+01 -0.41695506434E+01 -0.40431018989E+02  0.40659127746E+02  0.00000000000E+00 0. -1.
         11    1    3    3    0    0  0.80069904669E+01  0.18399070405E+01  0.35284532063E+01  0.89413162647E+01  0.51100000000E-03 0. -1.
        -11    1    3    3    0    0 -0.83978802413E+01  0.90138007662E+01  0.22859901530E+02  0.25968213165E+02  0.51100000000E-03 0.  1.
        -12    1    3    3    0    0  0.14455081952E+01 -0.66841571633E+01  0.14042664253E+02  0.15619342824E+02  0.00000000000E+00 0.  1.
</event>
<event>
 7    1  0.2942034E-011  0.5052886E+02  0.7816164E-02  0.1300439E+00
        -11   -1    0    0    0    0  0.00000000000E+00  0.00000000000E+00  0.45593999997E+02  0.45594000000E+02  0.51100000000E-03 0.  1.
         11   -1    0    0    0    0 -0.00000000000E+00 -0.00000000000E+00 -0.45593999997E+02  0.45594000000E+02  0.51100000000E-03 0. -1.
    9900012    2    1    2    0    0  0.18301140706E+02  0.13512770561E+00  0.36307238065E+02  0.50528861464E+02  0.30000004905E+02 0.  0.
         12    1    1    2    0    0 -0.18301140706E+02 -0.13512770561E+00 -0.36307238065E+02  0.40659138536E+02  0.00000000000E+00 0. -1.
         11    1    3    3    0    0 -0.43529816517E+01 -0.13507271935E+01 -0.18811617814E+01  0.49306878953E+01  0.51100000000E-03 0. -1.
        -11    1    3    3    0    0 -0.33076367200E-01  0.19908593101E+01  0.16481837133E+01  0.25847871581E+01  0.51100000000E-03 0.  1.
         12    1    3    3    0    0  0.22687198725E+02 -0.50500441096E+00  0.36540216133E+02  0.43013386410E+02  0.00000000000E+00 0. -1.
</event>
<event>
 7    1  0.2942034E-011  0.5052886E+02  0.7816164E-02  0.1300439E+00
        -11   -1    0    0    0    0  0.00000000000E+00  0.00000000000E+00  0.45593999997E+02  0.45594000000E+02  0.51100000000E-03 0. -1.
         11   -1    0    0    0    0 -0.00000000000E+00 -0.00000000000E+00 -0.45593999997E+02  0.45594000000E+02  0.51100000000E-03 0.  1.
    9900012    2    1    2    0    0 -0.10535626322E+02 -0.39167416158E+02  0.28424995232E+01  0.50528859403E+02  0.29999998643E+02 0.  0.
         12    1    1    2    0    0  0.10535626322E+02  0.39167416158E+02 -0.28424995232E+01  0.40659140597E+02  0.00000000000E+00 0. -1.
         11    1    3    3    0    0  0.75527415558E+01 -0.16710077665E+02 -0.42939263420E+01  0.18833703944E+02  0.51100000000E-03 0. -1.
        -11    1    3    3    0    0 -0.10253206211E+02 -0.11892269711E+02  0.94695588220E+01  0.18336489878E+02  0.51100000000E-03 0.  1.
         12    1    3    3    0    0 -0.78351616674E+01 -0.10565068782E+02 -0.23331329567E+01  0.13358665582E+02  0.00000000000E+00 0. -1.
</event>
<event>
 7    1  0.2942034E-011  0.5052885E+02  0.7816164E-02  0.1300439E+00
        -11   -1    0    0    0    0  0.00000000000E+00  0.00000000000E+00  0.45593999997E+02  0.45594000000E+02  0.51100000000E-03 0. -1.
         11   -1    0    0    0    0 -0.00000000000E+00 -0.00000000000E+00 -0.45593999997E+02  0.45594000000E+02  0.51100000000E-03 0.  1.
    9900012    2    1    2    0    0  0.16817323473E+02  0.23764684455E+02 -0.28382816507E+02  0.50528845202E+02  0.29999955475E+02 0.  0.
         12    1    1    2    0    0 -0.16817323473E+02 -0.23764684455E+02  0.28382816507E+02  0.40659154798E+02  0.00000000000E+00 0. -1.
         11    1    3    3    0    0  0.12005907193E+02  0.49909926843E+01 -0.12246797974E+02  0.17861575417E+02  0.51100000000E-03 0.  1.
        -11    1    3    3    0    0 -0.19399847745E+01  0.10682144673E+01  0.42760734344E+01  0.48155401931E+01  0.51100000000E-03 0. -1.
        -12    1    3    3    0    0  0.67514010541E+01  0.17705477303E+02 -0.20412091968E+02  0.27851729591E+02  0.00000000000E+00 0.  1.
</event>
<event>
 7    1  0.2942034E-011  0.5052887E+02  0.7816164E-02  0.1300439E+00
        -11   -1    0    0    0    0  0.00000000000E+00  0.00000000000E+00  0.45593999997E+02  0.45594000000E+02  0.51100000000E-03 0.  1.
         11   -1    0    0    0    0 -0.00000000000E+00 -0.00000000000E+00 -0.45593999997E+02  0.45594000000E+02  0.51100000000E-03 0. -1.
    9900012    2    1    2    0    0  0.23776263436E+02 -0.25965775689E+02  0.20337968846E+02  0.50528865886E+02  0.30000018346E+02 0.  0.
         12    1    1    2    0    0 -0.23776263436E+02  0.25965775689E+02 -0.20337968846E+02  0.40659134114E+02  0.00000000000E+00 0. -1.
         11    1    3    3    0    0  0.33552913956E+01 -0.18536448600E+02 -0.19744360018E+01  0.18940863360E+02  0.51100000000E-03 0. -1.
        -11    1    3    3    0    0  0.79156197867E+01 -0.55085566184E+01  0.84759571973E+01  0.12839123151E+02  0.51100000000E-03 0.  1.
         12    1    3    3    0    0  0.12505352254E+02 -0.19207704714E+01  0.13836447651E+02  0.18748879374E+02  0.00000000000E+00 0. -1.
</event>
<event>
 7    1  0.2942034E-011  0.5052885E+02  0.7816164E-02  0.1300439E+00
        -11   -1    0    0    0    0  0.00000000000E+00  0.00000000000E+00  0.45593999997E+02  0.45594000000E+02  0.51100000000E-03 0. -1.
         11   -1    0    0    0    0 -0.00000000000E+00 -0.00000000000E+00 -0.45593999997E+02  0.45594000000E+02  0.51100000000E-03 0.  1.
    9900012    2    1    2    0    0  0.31578058998E+02 -0.24338193300E+02 -0.79777882029E+01  0.50528848905E+02  0.29999966730E+02 0.  0.
         12    1    1    2    0    0 -0.31578058998E+02  0.24338193300E+02  0.79777882029E+01  0.40659151095E+02  0.00000000000E+00 0. -1.
         11    1    3    3    0    0  0.20809804340E+01  0.36632011171E+01 -0.28079469480E+01  0.50630117830E+01  0.51100000000E-03 0. -1.
        -11    1    3    3    0    0  0.49283487942E+01 -0.17889519410E+02 -0.11094380066E+01  0.18589093026E+02  0.51100000000E-03 0.  1.
        -12    1    3    3    0    0  0.24568729770E+02 -0.10111875006E+02 -0.40604032483E+01  0.26876744096E+02  0.00000000000E+00 0.  1.
</event>
<event>
 7    1  0.2942034E-011  0.5052885E+02  0.7816164E-02  0.1300439E+00
        -11   -1    0    0    0    0  0.00000000000E+00  0.00000000000E+00  0.45593999997E+02  0.45594000000E+02  0.51100000000E-03 0.  1.
         11   -1    0    0    0    0 -0.00000000000E+00 -0.00000000000E+00 -0.45593999997E+02  0.45594000000E+02  0.51100000000E-03 0. -1.
    9900012    2    1    2    0    0 -0.25570950797E+02 -0.27239668526E+02 -0.16040376891E+02  0.50528846580E+02  0.29999959663E+02 0.  0.
         12    1    1    2    0    0  0.25570950797E+02  0.27239668526E+02  0.16040376891E+02  0.40659153420E+02  0.00000000000E+00 0. -1.
         11    1    3    3    0    0 -0.11623401187E+02 -0.77554753980E+01  0.74567501070E+01  0.15838370378E+02  0.51100000000E-03 0. -1.
        -11    1    3    3    0    0 -0.10992219240E+02 -0.16076570194E+02 -0.13423900956E+02  0.23653458736E+02  0.51100000000E-03 0.  1.
         12    1    3    3    0    0 -0.29553303700E+01 -0.34076229338E+01 -0.10073226042E+02  0.11037017466E+02  0.00000000000E+00 0. -1.
</event>
<event>
 7    1  0.2942034E-011  0.5052888E+02  0.7816164E-02  0.1300439E+00
        -11   -1    0    0    0    0  0.00000000000E+00  0.00000000000E+00  0.45593999997E+02  0.45594000000E+02  0.51100000000E-03 0.  1.
         11   -1    0    0    0    0 -0.00000000000E+00 -0.00000000000E+00 -0.45593999997E+02  0.45594000000E+02  0.51100000000E-03 0. -1.
    9900012    2    1    2    0    0 -0.63662818229E+01 -0.38503752620E+02  0.11405926362E+02  0.50528884586E+02  0.30000075187E+02 0.  0.
         12    1    1    2    0    0  0.63662818229E+01  0.38503752620E+02 -0.11405926362E+02  0.40659115414E+02  0.00000000000E+00 0. -1.
         11    1    3    3    0    0  0.10171988921E+02 -0.27167153406E+02  0.55129767295E+01  0.29528232177E+02  0.51100000000E-03 0. -1.
        -11    1    3    3    0    0 -0.49056942491E+01 -0.28376318647E+01  0.25323225770E+01  0.62073060631E+01  0.51100000000E-03 0.  1.
         12    1    3    3    0    0 -0.11632576495E+02 -0.84989673495E+01  0.33606270554E+01  0.14793346346E+02  0.00000000000E+00 0. -1.
</event>
<event>
 7    1  0.2942034E-011  0.5052884E+02  0.7816164E-02  0.1300439E+00
        -11   -1    0    0    0    0  0.00000000000E+00  0.00000000000E+00  0.45593999997E+02  0.45594000000E+02  0.51100000000E-03 0.  1.
         11   -1    0    0    0    0 -0.00000000000E+00 -0.00000000000E+00 -0.45593999997E+02  0.45594000000E+02  0.51100000000E-03 0. -1.
    9900012    2    1    2    0    0  0.23757709776E+02  0.25296151074E+02 -0.21185911759E+02  0.50528844942E+02  0.29999954685E+02 0.  0.
         12    1    1    2    0    0 -0.23757709776E+02 -0.25296151074E+02  0.21185911759E+02  0.40659155058E+02  0.00000000000E+00 0. -1.
         11    1    3    3    0    0  0.12890336471E+02  0.73768650074E+00 -0.32537936820E+01  0.13315109060E+02  0.51100000000E-03 0. -1.
        -11    1    3    3    0    0 -0.50512667393E+01  0.87119233139E+01 -0.43889604055E+01  0.10985257266E+02  0.51100000000E-03 0.  1.
        -12    1    3    3    0    0  0.15918640045E+02  0.15846541259E+02 -0.13543157672E+02  0.26228478615E+02  0.00000000000E+00 0.  1.
</event>
<event>
 7    1  0.2942034E-011  0.5052886E+02  0.7816164E-02  0.1300439E+00
        -11   -1    0    0    0    0  0.00000000000E+00  0.00000000000E+00  0.45593999997E+02  0.45594000000E+02  0.51100000000E-03 0.  1.
         11   -1    0    0    0    0 -0.00000000000E+00 -0.00000000000E+00 -0.45593999997E+02  0.45594000000E+02  0.51100000000E-03 0. -1.
    9900012    2    1    2    0    0  0.25187741965E+02 -0.22986717241E+02  0.22143936664E+02  0.50528862703E+02  0.30000008671E+02 0.  0.
         12    1    1    2    0    0 -0.25187741965E+02  0.22986717241E+02 -0.22143936664E+02  0.40659137297E+02  0.00000000000E+00 0. -1.
         11    1    3    3    0    0 -0.47161069342E+01 -0.12493656942E+01 -0.16773191568E+01  0.51590676549E+01  0.51100000000E-03 0. -1.
        -11    1    3    3    0    0  0.17112336950E+02 -0.18681727705E+02  0.13911310059E+02  0.28902656863E+02  0.51100000000E-03 0.  1.
        -12    1    3    3    0    0  0.12791511949E+02 -0.30556238419E+01  0.99099457618E+01  0.16467138185E+02  0.00000000000E+00 0.  1.
</event>
<event>
 7    1  0.2942034E-011  0.5052886E+02  0.7816164E-02  0.1300439E+00
        -11   -1    0    0    0    0  0.00000000000E+00  0.00000000000E+00  0.45593999997E+02  0.45594000000E+02  0.51100000000E-03 0.  1.
         11   -1    0    0    0    0 -0.00000000000E+00 -0.00000000000E+00 -0.45593999997E+02  0.45594000000E+02  0.51100000000E-03 0. -1.
    9900012    2    1    2    0    0  0.13836185518E+02 -0.30138915650E+02  0.23523854110E+02  0.50528856153E+02  0.29999988761E+02 0.  0.
         12    1    1    2    0    0 -0.13836185518E+02  0.30138915650E+02 -0.23523854110E+02  0.40659143847E+02  0.00000000000E+00 0. -1.
         11    1    3    3    0    0  0.11184836938E+02 -0.35568307212E+01  0.32525671295E+01  0.12179113896E+02  0.51100000000E-03 0. -1.
        -11    1    3    3    0    0  0.24645143076E+01 -0.24286050874E+02  0.23827823865E+02  0.34112333374E+02  0.51100000000E-03 0.  1.
        -12    1    3    3    0    0  0.18683427256E+00 -0.22960340543E+01 -0.35565368846E+01  0.42374088823E+01  0.00000000000E+00 0.  1.
</event>
<event>
 7    1  0.2942034E-011  0.5052880E+02  0.7816164E-02  0.1300439E+00
        -11   -1    0    0    0    0  0.00000000000E+00  0.00000000000E+00  0.45593999997E+02  0.45594000000E+02  0.51100000000E-03 0. -1.
         11   -1    0    0    0    0 -0.00000000000E+00 -0.00000000000E+00 -0.45593999997E+02  0.45594000000E+02  0.51100000000E-03 0.  1.
    9900012    2    1    2    0    0  0.14847791303E+02 -0.37756842549E+02 -0.26710676346E+01  0.50528798481E+02  0.29999813462E+02 0.  0.
         12    1    1    2    0    0 -0.14847791303E+02  0.37756842549E+02  0.26710676346E+01  0.40659201519E+02  0.00000000000E+00 0. -1.
         11    1    3    3    0    0  0.62016301478E+01 -0.16113636093E+02 -0.98734762773E+01  0.19889570601E+02  0.51100000000E-03 0. -1.
        -11    1    3    3    0    0  0.90946480221E+01 -0.20940724035E+02  0.11984689106E+02  0.25784866084E+02  0.51100000000E-03 0.  1.
         12    1    3    3    0    0 -0.44848686690E+00 -0.70248242124E+00 -0.47822804629E+01  0.48543617962E+01  0.00000000000E+00 0. -1.
</event>
<event>
 7    1  0.2942034E-011  0.5052885E+02  0.7816164E-02  0.1300439E+00
        -11   -1    0    0    0    0  0.00000000000E+00  0.00000000000E+00  0.45593999997E+02  0.45594000000E+02  0.51100000000E-03 0.  1.
         11   -1    0    0    0    0 -0.00000000000E+00 -0.00000000000E+00 -0.45593999997E+02  0.45594000000E+02  0.51100000000E-03 0. -1.
    9900012    2    1    2    0    0 -0.23185926524E+02  0.29679223902E+02  0.15320670173E+02  0.50528850295E+02  0.29999970956E+02 0.  0.
         12    1    1    2    0    0  0.23185926524E+02 -0.29679223902E+02 -0.15320670173E+02  0.40659149705E+02  0.00000000000E+00 0. -1.
         11    1    3    3    0    0 -0.13524155970E+02  0.14163958801E+02 -0.54452422826E+01  0.20326612787E+02  0.51100000000E-03 0.  1.
        -11    1    3    3    0    0 -0.10949928870E+02  0.16209426928E+02  0.21023509572E+02  0.28716448572E+02  0.51100000000E-03 0. -1.
         12    1    3    3    0    0  0.12881583152E+01 -0.69416182746E+00 -0.25759711700E+00  0.14857889360E+01  0.00000000000E+00 0. -1.
</event>
<event>
 7    1  0.2942034E-011  0.5052885E+02  0.7816164E-02  0.1300439E+00
        -11   -1    0    0    0    0  0.00000000000E+00  0.00000000000E+00  0.45593999997E+02  0.45594000000E+02  0.51100000000E-03 0.  1.
         11   -1    0    0    0    0 -0.00000000000E+00 -0.00000000000E+00 -0.45593999997E+02  0.45594000000E+02  0.51100000000E-03 0. -1.
    9900012    2    1    2    0    0 -0.12156618061E+02  0.18708051912E+02  0.33991053995E+02  0.50528851943E+02  0.29999975966E+02 0.  0.
         12    1    1    2    0    0  0.12156618061E+02 -0.18708051912E+02 -0.33991053995E+02  0.40659148057E+02  0.00000000000E+00 0. -1.
         11    1    3    3    0    0  0.43274805370E+01  0.16683331272E+02  0.11213062330E+02  0.20561940502E+02  0.51100000000E-03 0. -1.
        -11    1    3    3    0    0 -0.16728959062E+02  0.37156567179E+01  0.17820060324E+02  0.24722838154E+02  0.51100000000E-03 0.  1.
        -12    1    3    3    0    0  0.24486046376E+00 -0.16909360780E+01  0.49579313406E+01  0.52440732875E+01  0.00000000000E+00 0.  1.
</event>
<event>
 7    1  0.2942034E-011  0.5052885E+02  0.7816164E-02  0.1300439E+00
        -11   -1    0    0    0    0  0.00000000000E+00  0.00000000000E+00  0.45593999997E+02  0.45594000000E+02  0.51100000000E-03 0.  1.
         11   -1    0    0    0    0 -0.00000000000E+00 -0.00000000000E+00 -0.45593999997E+02  0.45594000000E+02  0.51100000000E-03 0. -1.
    9900012    2    1    2    0    0 -0.40153539702E+02  0.63607439399E+01  0.63269694343E+00  0.50528854417E+02  0.29999983487E+02 0.  0.
         12    1    1    2    0    0  0.40153539702E+02 -0.63607439399E+01 -0.63269694343E+00  0.40659145583E+02  0.00000000000E+00 0. -1.
         11    1    3    3    0    0 -0.14903805456E+02  0.57888731185E+01 -0.30498473816E+01  0.16276855911E+02  0.51100000000E-03 0. -1.
        -11    1    3    3    0    0 -0.16222946321E+02 -0.10772360722E+02  0.93255540042E+00  0.19496086855E+02  0.51100000000E-03 0.  1.
        -12    1    3    3    0    0 -0.90267879259E+01  0.11344231543E+02  0.27499889246E+01  0.14755911651E+02  0.00000000000E+00 0.  1.
</event>
<event>
 7    1  0.2942034E-011  0.5052885E+02  0.7816164E-02  0.1300439E+00
        -11   -1    0    0    0    0  0.00000000000E+00  0.00000000000E+00  0.45593999997E+02  0.45594000000E+02  0.51100000000E-03 0.  1.
         11   -1    0    0    0    0 -0.00000000000E+00 -0.00000000000E+00 -0.45593999997E+02  0.45594000000E+02  0.51100000000E-03 0. -1.
    9900012    2    1    2    0    0 -0.18176080492E+02 -0.97919783602E+01  0.35027322730E+02  0.50528854904E+02  0.29999984967E+02 0.  0.
         12    1    1    2    0    0  0.18176080492E+02  0.97919783602E+01 -0.35027322730E+02  0.40659145096E+02  0.00000000000E+00 0. -1.
         11    1    3    3    0    0 -0.18492382971E+02 -0.81570850409E+01  0.95956638691E+01  0.22373712916E+02  0.51100000000E-03 0. -1.
        -11    1    3    3    0    0  0.13638709686E+01 -0.66599528315E+01  0.12260608474E+02  0.14019188142E+02  0.51100000000E-03 0.  1.
         12    1    3    3    0    0 -0.10475684892E+01  0.50250595121E+01  0.13171050387E+02  0.14135953846E+02  0.00000000000E+00 0. -1.
</event>
<event>
 7    1  0.2942034E-011  0.5052885E+02  0.7816164E-02  0.1300439E+00
        -11   -1    0    0    0    0  0.00000000000E+00  0.00000000000E+00  0.45593999997E+02  0.45594000000E+02  0.51100000000E-03 0.  1.
         11   -1    0    0    0    0 -0.00000000000E+00 -0.00000000000E+00 -0.45593999997E+02  0.45594000000E+02  0.51100000000E-03 0. -1.
    9900012    2    1    2    0    0  0.55714940397E+01  0.56143003080E+01  0.39882382568E+02  0.50528851545E+02  0.29999974756E+02 0.  0.
         12    1    1    2    0    0 -0.55714940397E+01 -0.56143003080E+01 -0.39882382568E+02  0.40659148455E+02  0.00000000000E+00 0. -1.
         11    1    3    3    0    0 -0.24922219251E+01  0.11950276782E+02  0.86036016208E+01  0.14934598970E+02  0.51100000000E-03 0. -1.
        -11    1    3    3    0    0 -0.24342932157E+01 -0.20400700950E+01  0.17315403116E+02  0.17604285126E+02  0.51100000000E-03 0.  1.
         12    1    3    3    0    0  0.10498009180E+02 -0.42959063789E+01  0.13963377831E+02  0.17989967449E+02  0.00000000000E+00 0. -1.
</event>
<event>
 7    1  0.2942034E-011  0.5052886E+02  0.7816164E-02  0.1300439E+00
        -11   -1    0    0    0    0  0.00000000000E+00  0.00000000000E+00  0.45593999997E+02  0.45594000000E+02  0.51100000000E-03 0.  1.
         11   -1    0    0    0    0 -0.00000000000E+00 -0.00000000000E+00 -0.45593999997E+02  0.45594000000E+02  0.51100000000E-03 0. -1.
    9900012    2    1    2    0    0 -0.31191581324E+02 -0.25621139888E+02  0.48793811490E+01  0.50528856931E+02  0.29999991128E+02 0.  0.
         12    1    1    2    0    0  0.31191581324E+02  0.25621139888E+02 -0.48793811490E+01  0.40659143069E+02  0.00000000000E+00 0. -1.
         11    1    3    3    0    0 -0.77013559061E-01 -0.60695220581E+01 -0.86170925814E+01  0.10540365929E+02  0.51100000000E-03 0. -1.
        -11    1    3    3    0    0 -0.31203561471E+02 -0.18281687793E+02  0.12188725376E+02  0.38163429924E+02  0.51100000000E-03 0.  1.
         12    1    3    3    0    0  0.88993705803E-01 -0.12699300375E+01  0.13077483541E+01  0.18250610777E+01  0.00000000000E+00 0. -1.
</event>
<event>
 7    1  0.2942034E-011  0.5052888E+02  0.7816164E-02  0.1300439E+00
        -11   -1    0    0    0    0  0.00000000000E+00  0.00000000000E+00  0.45593999997E+02  0.45594000000E+02  0.51100000000E-03 0.  1.
         11   -1    0    0    0    0 -0.00000000000E+00 -0.00000000000E+00 -0.45593999997E+02  0.45594000000E+02  0.51100000000E-03 0. -1.
    9900012    2    1    2    0    0  0.53530918498E+01  0.35591068033E+02  0.18915196746E+02  0.50528875759E+02  0.30000048358E+02 0.  0.
         12    1    1    2    0    0 -0.53530918498E+01 -0.35591068033E+02 -0.18915196746E+02  0.40659124241E+02  0.00000000000E+00 0. -1.
         11    1    3    3    0    0 -0.10240356401E+02  0.11574348484E+02  0.65887417640E+01  0.16800058343E+02  0.51100000000E-03 0. -1.
        -11    1    3    3    0    0  0.14158853786E+02  0.12716194868E+02  0.11658454657E+02  0.22318026743E+02  0.51100000000E-03 0.  1.
        -12    1    3    3    0    0  0.14345944652E+01  0.11300524681E+02  0.66800032544E+00  0.11410790673E+02  0.00000000000E+00 0.  1.
</event>
<event>
 7    1  0.2942034E-011  0.5052886E+02  0.7816164E-02  0.1300439E+00
        -11   -1    0    0    0    0  0.00000000000E+00  0.00000000000E+00  0.45593999997E+02  0.45594000000E+02  0.51100000000E-03 0.  1.
         11   -1    0    0    0    0 -0.00000000000E+00 -0.00000000000E+00 -0.45593999997E+02  0.45594000000E+02  0.51100000000E-03 0. -1.
    9900012    2    1    2    0    0 -0.14956650895E+02  0.28772587886E+02  0.24527583859E+02  0.50528860933E+02  0.30000003293E+02 0.  0.
         12    1    1    2    0    0  0.14956650895E+02 -0.28772587886E+02 -0.24527583859E+02  0.40659139067E+02  0.00000000000E+00 0. -1.
         11    1    3    3    0    0 -0.16217732985E+02  0.19181704833E+02  0.39945539397E+01  0.25434408287E+02  0.51100000000E-03 0. -1.
        -11    1    3    3    0    0  0.49535303976E+00  0.11572618462E+02  0.19615577159E+02  0.22780292804E+02  0.51100000000E-03 0.  1.
         12    1    3    3    0    0  0.76572904987E+00 -0.19817354088E+01  0.91745276101E+00  0.23141598425E+01  0.00000000000E+00 0. -1.
</event>
<event>
 7    1  0.2942034E-011  0.5052884E+02  0.7816164E-02  0.1300439E+00
        -11   -1    0    0    0    0  0.00000000000E+00  0.00000000000E+00  0.45593999997E+02  0.45594000000E+02  0.51100000000E-03 0. -1.
         11   -1    0    0    0    0 -0.00000000000E+00 -0.00000000000E+00 -0.45593999997E+02  0.45594000000E+02  0.51100000000E-03 0.  1.
    9900012    2    1    2    0    0  0.12467000416E+02  0.37611432562E+02  0.91171005156E+01  0.50528837680E+02  0.29999932613E+02 0.  0.
         12    1    1    2    0    0 -0.12467000416E+02 -0.37611432562E+02 -0.91171005156E+01  0.40659162320E+02  0.00000000000E+00 0. -1.
         11    1    3    3    0    0 -0.13063349670E+01 -0.42353014592E-01  0.22593031698E+01  0.26101256479E+01  0.51100000000E-03 0. -1.
        -11    1    3    3    0    0  0.16907827998E+02  0.38909574536E+02  0.96837000362E+01  0.43515556814E+02  0.51100000000E-03 0.  1.
        -12    1    3    3    0    0 -0.31344926144E+01 -0.12557889597E+01 -0.28259026904E+01  0.44031552184E+01  0.00000000000E+00 0.  1.
</event>
<event>
 7    1  0.2942034E-011  0.5052892E+02  0.7816164E-02  0.1300439E+00
        -11   -1    0    0    0    0  0.00000000000E+00  0.00000000000E+00  0.45593999997E+02  0.45594000000E+02  0.51100000000E-03 0.  1.
         11   -1    0    0    0    0 -0.00000000000E+00 -0.00000000000E+00 -0.45593999997E+02  0.45594000000E+02  0.51100000000E-03 0. -1.
    9900012    2    1    2    0    0  0.38674786661E+01  0.32401075193E+02  0.24256417848E+02  0.50528918951E+02  0.30000179644E+02 0.  0.
         12    1    1    2    0    0 -0.38674786661E+01 -0.32401075193E+02 -0.24256417848E+02  0.40659081049E+02  0.00000000000E+00 0. -1.
         11    1    3    3    0    0  0.88380505067E+01  0.19151829411E+02  0.25150594862E+02  0.32824626863E+02  0.51100000000E-03 0. -1.
        -11    1    3    3    0    0 -0.10835753170E+01  0.13655875867E+02 -0.13704121995E+01  0.13767175128E+02  0.51100000000E-03 0.  1.
         12    1    3    3    0    0 -0.38869965236E+01 -0.40663008439E+00  0.47623518548E+00  0.39371169594E+01  0.00000000000E+00 0. -1.
</event>
<event>
 7    1  0.2942034E-011  0.5052889E+02  0.7816164E-02  0.1300439E+00
        -11   -1    0    0    0    0  0.00000000000E+00  0.00000000000E+00  0.45593999997E+02  0.45594000000E+02  0.51100000000E-03 0. -1.
         11   -1    0    0    0    0 -0.00000000000E+00 -0.00000000000E+00 -0.45593999997E+02  0.45594000000E+02  0.51100000000E-03 0.  1.
    9900012    2    1    2    0    0  0.63953107910E+01  0.18233166654E+02 -0.35774497563E+02  0.50528892260E+02  0.30000098512E+02 0.  0.
         12    1    1    2    0    0 -0.63953107910E+01 -0.18233166654E+02  0.35774497563E+02  0.40659107740E+02  0.00000000000E+00 0. -1.
         11    1    3    3    0    0  0.48014333637E+01 -0.58766650196E+01 -0.87032303353E+01  0.11547085027E+02  0.51100000000E-03 0. -1.
        -11    1    3    3    0    0  0.49648029758E+01  0.24171895312E+02 -0.23904213074E+02  0.34356093994E+02  0.51100000000E-03 0.  1.
        -12    1    3    3    0    0 -0.33709255486E+01 -0.62063638721E-01 -0.31670541544E+01  0.46257132386E+01  0.00000000000E+00 0.  1.
</event>
<event>
 7    1  0.2942034E-011  0.5052886E+02  0.7816164E-02  0.1300439E+00
        -11   -1    0    0    0    0  0.00000000000E+00  0.00000000000E+00  0.45593999997E+02  0.45594000000E+02  0.51100000000E-03 0. -1.
         11   -1    0    0    0    0 -0.00000000000E+00 -0.00000000000E+00 -0.45593999997E+02  0.45594000000E+02  0.51100000000E-03 0.  1.
    9900012    2    1    2    0    0 -0.15763763461E+02 -0.27967468637E+02 -0.24949759257E+02  0.50528855550E+02  0.29999986930E+02 0.  0.
         12    1    1    2    0    0  0.15763763461E+02  0.27967468637E+02  0.24949759257E+02  0.40659144450E+02  0.00000000000E+00 0. -1.
         11    1    3    3    0    0 -0.11955024449E+02 -0.11759083310E+02  0.30707375055E+01  0.17047817425E+02  0.51100000000E-03 0. -1.
        -11    1    3    3    0    0 -0.34356831416E+01 -0.62780320693E+01 -0.17991081235E+02  0.19362247018E+02  0.51100000000E-03 0.  1.
         12    1    3    3    0    0 -0.37305587037E+00 -0.99303532581E+01 -0.10029415528E+02  0.14118791108E+02  0.00000000000E+00 0. -1.
</event>
<event>
 7    1  0.2942034E-011  0.5052886E+02  0.7816164E-02  0.1300439E+00
        -11   -1    0    0    0    0  0.00000000000E+00  0.00000000000E+00  0.45593999997E+02  0.45594000000E+02  0.51100000000E-03 0. -1.
         11   -1    0    0    0    0 -0.00000000000E+00 -0.00000000000E+00 -0.45593999997E+02  0.45594000000E+02  0.51100000000E-03 0.  1.
    9900012    2    1    2    0    0 -0.12345264465E+02  0.34159525176E+02 -0.18272581000E+02  0.50528856732E+02  0.29999990521E+02 0.  0.
         12    1    1    2    0    0  0.12345264465E+02 -0.34159525176E+02  0.18272581000E+02  0.40659143268E+02  0.00000000000E+00 0. -1.
         11    1    3    3    0    0  0.16435021518E+01 -0.15314398142E+01 -0.31267891802E+01  0.38500932542E+01  0.51100000000E-03 0. -1.
        -11    1    3    3    0    0 -0.11401037253E+01  0.24904903619E+02 -0.13647765125E+01  0.24968313439E+02  0.51100000000E-03 0.  1.
        -12    1    3    3    0    0 -0.12848662891E+02  0.10786061370E+02 -0.13781015307E+02  0.21710450038E+02  0.00000000000E+00 0.  1.
</event>
<event>
 7    1  0.2942034E-011  0.5052887E+02  0.7816164E-02  0.1300439E+00
        -11   -1    0    0    0    0  0.00000000000E+00  0.00000000000E+00  0.45593999997E+02  0.45594000000E+02  0.51100000000E-03 0. -1.
         11   -1    0    0    0    0 -0.00000000000E+00 -0.00000000000E+00 -0.45593999997E+02  0.45594000000E+02  0.51100000000E-03 0.  1.
    9900012    2    1    2    0    0 -0.18519081354E+02  0.25337192346E+01 -0.36108016840E+02  0.50528868338E+02  0.30000025801E+02 0.  0.
         12    1    1    2    0    0  0.18519081354E+02 -0.25337192346E+01  0.36108016840E+02  0.40659131662E+02  0.00000000000E+00 0. -1.
         11    1    3    3    0    0  0.36357702343E+00 -0.12098744673E+01  0.12489756305E+01  0.17764922925E+01  0.51100000000E-03 0. -1.
        -11    1    3    3    0    0 -0.18496528029E+02  0.11967247514E+02 -0.20977337248E+02  0.30420145307E+02  0.51100000000E-03 0.  1.
        -12    1    3    3    0    0 -0.38613034818E+00 -0.82236538118E+01 -0.16379655222E+02  0.18332230739E+02  0.00000000000E+00 0.  1.
</event>
<event>
 7    1  0.2942034E-011  0.5052886E+02  0.7816164E-02  0.1300439E+00
        -11   -1    0    0    0    0  0.00000000000E+00  0.00000000000E+00  0.45593999997E+02  0.45594000000E+02  0.51100000000E-03 0.  1.
         11   -1    0    0    0    0 -0.00000000000E+00 -0.00000000000E+00 -0.45593999997E+02  0.45594000000E+02  0.51100000000E-03 0. -1.
    9900012    2    1    2    0    0  0.10307992570E+02 -0.32615644833E+02  0.21980239341E+02  0.50528856868E+02  0.29999990936E+02 0.  0.
         12    1    1    2    0    0 -0.10307992570E+02  0.32615644833E+02 -0.21980239341E+02  0.40659143132E+02  0.00000000000E+00 0. -1.
         11    1    3    3    0    0 -0.36938599546E+01  0.13579783769E+01 -0.25292342652E+01  0.46782189844E+01  0.51100000000E-03 0. -1.
        -11    1    3    3    0    0  0.16049874037E+02 -0.29748879761E+02  0.23125698654E+02  0.40955979321E+02  0.51100000000E-03 0.  1.
         12    1    3    3    0    0 -0.20480215123E+01 -0.42247434496E+01  0.13837749525E+01  0.48946585631E+01  0.00000000000E+00 0. -1.
</event>
<event>
 7    1  0.2942034E-011  0.5052885E+02  0.7816164E-02  0.1300439E+00
        -11   -1    0    0    0    0  0.00000000000E+00  0.00000000000E+00  0.45593999997E+02  0.45594000000E+02  0.51100000000E-03 0.  1.
         11   -1    0    0    0    0 -0.00000000000E+00 -0.00000000000E+00 -0.45593999997E+02  0.45594000000E+02  0.51100000000E-03 0. -1.
    9900012    2    1    2    0    0  0.32130306737E+02  0.50671381901E+01  0.24395361841E+02  0.50528853676E+02  0.29999981233E+02 0.  0.
         12    1    1    2    0    0 -0.32130306737E+02 -0.50671381901E+01 -0.24395361841E+02  0.40659146324E+02  0.00000000000E+00 0. -1.
         11    1    3    3    0    0  0.35346388490E+00 -0.78329329938E+01  0.26405201848E+01  0.82735798244E+01  0.51100000000E-03 0. -1.
        -11    1    3    3    0    0  0.22278364952E+02  0.37914514787E+01  0.10413839927E+02  0.24882699040E+02  0.51100000000E-03 0.  1.
         12    1    3    3    0    0  0.94984779007E+01  0.91086197051E+01  0.11341001729E+02  0.17372574811E+02  0.00000000000E+00 0. -1.
</event>
<event>
 7    1  0.2942034E-011  0.5052884E+02  0.7816164E-02  0.1300439E+00
        -11   -1    0    0    0    0  0.00000000000E+00  0.00000000000E+00  0.45593999997E+02  0.45594000000E+02  0.51100000000E-03 0.  1.
         11   -1    0    0    0    0 -0.00000000000E+00 -0.00000000000E+00 -0.45593999997E+02  0.45594000000E+02  0.51100000000E-03 0. -1.
    9900012    2    1    2    0    0  0.18942620338E+02 -0.26551653854E+02  0.24276612880E+02  0.50528842107E+02  0.29999946069E+02 0.  0.
         12    1    1    2    0    0 -0.18942620338E+02  0.26551653854E+02 -0.24276612880E+02  0.40659157893E+02  0.00000000000E+00 0. -1.
         11    1    3    3    0    0 -0.15019814908E-01 -0.94908977865E+00 -0.15935288052E+01  0.18548130140E+01  0.51100000000E-03 0. -1.
        -11    1    3    3    0    0  0.74270862234E+01 -0.54422080638E+01  0.23607096382E+02  0.25339183851E+02  0.51100000000E-03 0.  1.
        -12    1    3    3    0    0  0.11530553929E+02 -0.20160356012E+02  0.22630453025E+01  0.23334845242E+02  0.00000000000E+00 0.  1.
</event>
<event>
 7    1  0.2942034E-011  0.5052889E+02  0.7816164E-02  0.1300439E+00
        -11   -1    0    0    0    0  0.00000000000E+00  0.00000000000E+00  0.45593999997E+02  0.45594000000E+02  0.51100000000E-03 0. -1.
         11   -1    0    0    0    0 -0.00000000000E+00 -0.00000000000E+00 -0.45593999997E+02  0.45594000000E+02  0.51100000000E-03 0.  1.
    9900012    2    1    2    0    0  0.24106447160E+02  0.80742024534E+01 -0.31730890696E+02  0.50528893218E+02  0.30000101426E+02 0.  0.
         12    1    1    2    0    0 -0.24106447160E+02 -0.80742024534E+01  0.31730890696E+02  0.40659106782E+02  0.00000000000E+00 0. -1.
         11    1    3    3    0    0 -0.23903052577E+01 -0.37761252700E+01 -0.57947552466E+01  0.73179143141E+01  0.51100000000E-03 0. -1.
        -11    1    3    3    0    0  0.13584565729E+02  0.15811066412E+02 -0.13380029181E+02  0.24770051035E+02  0.51100000000E-03 0.  1.
        -12    1    3    3    0    0  0.12912186690E+02 -0.39607386886E+01 -0.12556106268E+02  0.18440927870E+02  0.00000000000E+00 0.  1.
</event>
<event>
 7    1  0.2942034E-011  0.5052886E+02  0.7816164E-02  0.1300439E+00
        -11   -1    0    0    0    0  0.00000000000E+00  0.00000000000E+00  0.45593999997E+02  0.45594000000E+02  0.51100000000E-03 0. -1.
         11   -1    0    0    0    0 -0.00000000000E+00 -0.00000000000E+00 -0.45593999997E+02  0.45594000000E+02  0.51100000000E-03 0.  1.
    9900012    2    1    2    0    0  0.34236901687E+02  0.19269920841E+02 -0.10472359666E+02  0.50528860765E+02  0.30000002781E+02 0.  0.
         12    1    1    2    0    0 -0.34236901687E+02 -0.19269920841E+02  0.10472359666E+02  0.40659139235E+02  0.00000000000E+00 0. -1.
         11    1    3    3    0    0  0.50488910514E+01 -0.76104250177E+01 -0.19468367798E+01  0.93380963535E+01  0.51100000000E-03 0. -1.
        -11    1    3    3    0    0  0.17965866922E+02  0.18030032466E+02 -0.21578162562E+01  0.25544287350E+02  0.51100000000E-03 0.  1.
         12    1    3    3    0    0  0.11222143714E+02  0.88503133927E+01 -0.63677066299E+01  0.15646477061E+02  0.00000000000E+00 0. -1.
</event>
<event>
 7    1  0.2942034E-011  0.5052883E+02  0.7816164E-02  0.1300439E+00
        -11   -1    0    0    0    0  0.00000000000E+00  0.00000000000E+00  0.45593999997E+02  0.45594000000E+02  0.51100000000E-03 0.  1.
         11   -1    0    0    0    0 -0.00000000000E+00 -0.00000000000E+00 -0.45593999997E+02  0.45594000000E+02  0.51100000000E-03 0. -1.
    9900012    2    1    2    0    0 -0.26232911406E+02 -0.15992579678E+02  0.26631559439E+02  0.50528828787E+02  0.29999905581E+02 0.  0.
         12    1    1    2    0    0  0.26232911406E+02  0.15992579678E+02 -0.26631559439E+02  0.40659171213E+02  0.00000000000E+00 0. -1.
         11    1    3    3    0    0  0.30786228251E+01  0.44914268741E+01  0.69628062113E+01  0.88392027051E+01  0.51100000000E-03 0. -1.
        -11    1    3    3    0    0 -0.12496667623E+02 -0.91835855824E+01  0.13363992112E+02  0.20471962076E+02  0.51100000000E-03 0.  1.
         12    1    3    3    0    0 -0.16814866608E+02 -0.11300420969E+02  0.63047611154E+01  0.21217664006E+02  0.00000000000E+00 0. -1.
</event>
<event>
 7    1  0.2942034E-011  0.5052884E+02  0.7816164E-02  0.1300439E+00
        -11   -1    0    0    0    0  0.00000000000E+00  0.00000000000E+00  0.45593999997E+02  0.45594000000E+02  0.51100000000E-03 0.  1.
         11   -1    0    0    0    0 -0.00000000000E+00 -0.00000000000E+00 -0.45593999997E+02  0.45594000000E+02  0.51100000000E-03 0. -1.
    9900012    2    1    2    0    0  0.20700757766E+02 -0.18077544399E+02  0.29964112932E+02  0.50528843007E+02  0.29999948805E+02 0.  0.
         12    1    1    2    0    0 -0.20700757766E+02  0.18077544399E+02 -0.29964112932E+02  0.40659156993E+02  0.00000000000E+00 0. -1.
         11    1    3    3    0    0  0.14287442552E+02 -0.13787448654E+02  0.75502836558E+00  0.19869444460E+02  0.51100000000E-03 0. -1.
        -11    1    3    3    0    0  0.41637037881E+00  0.81149828347E+00  0.77140164031E+01  0.77677501945E+01  0.51100000000E-03 0.  1.
         12    1    3    3    0    0  0.59969448349E+01 -0.51015940287E+01  0.21495068163E+02  0.22891648353E+02  0.00000000000E+00 0. -1.
</event>
<event>
 7    1  0.2942034E-011  0.5052883E+02  0.7816164E-02  0.1300439E+00
        -11   -1    0    0    0    0  0.00000000000E+00  0.00000000000E+00  0.45593999997E+02  0.45594000000E+02  0.51100000000E-03 0.  1.
         11   -1    0    0    0    0 -0.00000000000E+00 -0.00000000000E+00 -0.45593999997E+02  0.45594000000E+02  0.51100000000E-03 0. -1.
    9900012    2    1    2    0    0  0.16535415915E+02  0.30534438362E+02  0.21151735300E+02  0.50528833607E+02  0.29999920233E+02 0.  0.
         12    1    1    2    0    0 -0.16535415915E+02 -0.30534438362E+02 -0.21151735300E+02  0.40659166393E+02  0.00000000000E+00 0. -1.
         11    1    3    3    0    0  0.18568643522E+02  0.24284963908E+02  0.22063359229E+02  0.37700740244E+02  0.51100000000E-03 0. -1.
        -11    1    3    3    0    0 -0.48516993932E+01  0.80871886315E+01 -0.64864297342E+00  0.94531658682E+01  0.51100000000E-03 0.  1.
         12    1    3    3    0    0  0.28184717866E+01 -0.18377141779E+01 -0.26298095541E+00  0.33749274947E+01  0.00000000000E+00 0. -1.
</event>
<event>
 7    1  0.2942034E-011  0.5052886E+02  0.7816164E-02  0.1300439E+00
        -11   -1    0    0    0    0  0.00000000000E+00  0.00000000000E+00  0.45593999997E+02  0.45594000000E+02  0.51100000000E-03 0.  1.
         11   -1    0    0    0    0 -0.00000000000E+00 -0.00000000000E+00 -0.45593999997E+02  0.45594000000E+02  0.51100000000E-03 0. -1.
    9900012    2    1    2    0    0 -0.14167883286E+02  0.34934786327E+02  0.15231473583E+02  0.50528855887E+02  0.29999987953E+02 0.  0.
         12    1    1    2    0    0  0.14167883286E+02 -0.34934786327E+02 -0.15231473583E+02  0.40659144113E+02  0.00000000000E+00 0. -1.
         11    1    3    3    0    0 -0.13592376106E+02  0.23550896430E+02 -0.39155991518E+01  0.27472337503E+02  0.51100000000E-03 0. -1.
        -11    1    3    3    0    0  0.22749911790E+01  0.19740959400E+01  0.45995590221E+01  0.54980526647E+01  0.51100000000E-03 0.  1.
         12    1    3    3    0    0 -0.28504983586E+01  0.94097939568E+01  0.14547513712E+02  0.17558465719E+02  0.00000000000E+00 0. -1.
</event>
<event>
 7    1  0.2942034E-011  0.5052886E+02  0.7816164E-02  0.1300439E+00
        -11   -1    0    0    0    0  0.00000000000E+00  0.00000000000E+00  0.45593999997E+02  0.45594000000E+02  0.51100000000E-03 0.  1.
         11   -1    0    0    0    0 -0.00000000000E+00 -0.00000000000E+00 -0.45593999997E+02  0.45594000000E+02  0.51100000000E-03 0. -1.
    9900012    2    1    2    0    0  0.13383127918E+02 -0.31475748758E+02  0.21984875122E+02  0.50528860721E+02  0.30000002648E+02 0.  0.
         12    1    1    2    0    0 -0.13383127918E+02  0.31475748758E+02 -0.21984875122E+02  0.40659139279E+02  0.00000000000E+00 0. -1.
         11    1    3    3    0    0  0.11151120152E+01 -0.24922871577E+01 -0.22774719818E+01  0.35555377894E+01  0.51100000000E-03 0. -1.
        -11    1    3    3    0    0  0.11734354620E+01 -0.16378226185E+02  0.25286145267E+02  0.30149832280E+02  0.51100000000E-03 0.  1.
        -12    1    3    3    0    0  0.11094580441E+02 -0.12605235416E+02 -0.10237981633E+01  0.16823490652E+02  0.00000000000E+00 0.  1.
</event>
<event>
 7    1  0.2942034E-011  0.5052886E+02  0.7816164E-02  0.1300439E+00
        -11   -1    0    0    0    0  0.00000000000E+00  0.00000000000E+00  0.45593999997E+02  0.45594000000E+02  0.51100000000E-03 0.  1.
         11   -1    0    0    0    0 -0.00000000000E+00 -0.00000000000E+00 -0.45593999997E+02  0.45594000000E+02  0.51100000000E-03 0. -1.
    9900012    2    1    2    0    0 -0.14522836487E+02 -0.30616102402E+02  0.22470137435E+02  0.50528861024E+02  0.30000003569E+02 0.  0.
         12    1    1    2    0    0  0.14522836487E+02  0.30616102402E+02 -0.22470137435E+02  0.40659138976E+02  0.00000000000E+00 0. -1.
         11    1    3    3    0    0 -0.15783841350E+02 -0.15565984721E+02  0.54919388879E+01  0.22838365115E+02  0.51100000000E-03 0. -1.
        -11    1    3    3    0    0  0.17380972740E+01 -0.18345414633E+02  0.13279666866E+02  0.22713977471E+02  0.51100000000E-03 0.  1.
        -12    1    3    3    0    0 -0.47709241105E+00  0.32952969524E+01  0.36985316814E+01  0.49765184388E+01  0.00000000000E+00 0.  1.
</event>
<event>
 7    1  0.2942034E-011  0.5052886E+02  0.7816164E-02  0.1300439E+00
        -11   -1    0    0    0    0  0.00000000000E+00  0.00000000000E+00  0.45593999997E+02  0.45594000000E+02  0.51100000000E-03 0.  1.
         11   -1    0    0    0    0 -0.00000000000E+00 -0.00000000000E+00 -0.45593999997E+02  0.45594000000E+02  0.51100000000E-03 0. -1.
    9900012    2    1    2    0    0 -0.32267313717E+02  0.22098194596E+02  0.11120074049E+02  0.50528858521E+02  0.29999995961E+02 0.  0.
         12    1    1    2    0    0  0.32267313717E+02 -0.22098194596E+02 -0.11120074049E+02  0.40659141479E+02  0.00000000000E+00 0. -1.
         11    1    3    3    0    0 -0.14673190350E+02  0.16091509679E+02  0.18442982929E+02  0.28537393335E+02  0.51100000000E-03 0. -1.
        -11    1    3    3    0    0 -0.71952671165E+01  0.70167461354E+01 -0.52544052865E+01  0.11340871676E+02  0.51100000000E-03 0.  1.
         12    1    3    3    0    0 -0.10398856251E+02 -0.10100612183E+01 -0.20685035934E+01  0.10650593510E+02  0.00000000000E+00 0. -1.
</event>
<event>
 7    1  0.2942034E-011  0.5052888E+02  0.7816164E-02  0.1300439E+00
        -11   -1    0    0    0    0  0.00000000000E+00  0.00000000000E+00  0.45593999997E+02  0.45594000000E+02  0.51100000000E-03 0. -1.
         11   -1    0    0    0    0 -0.00000000000E+00 -0.00000000000E+00 -0.45593999997E+02  0.45594000000E+02  0.51100000000E-03 0.  1.
    9900012    2    1    2    0    0  0.38984073467E+02 -0.46508902289E+01  0.10572393974E+02  0.50528877059E+02  0.30000052308E+02 0.  0.
         12    1    1    2    0    0 -0.38984073467E+02  0.46508902289E+01 -0.10572393974E+02  0.40659122941E+02  0.00000000000E+00 0. -1.
         11    1    3    3    0    0  0.99838126240E+01  0.53448179521E+01  0.53404635132E+01  0.12520548880E+02  0.51100000000E-03 0. -1.
        -11    1    3    3    0    0  0.15746014367E+01 -0.10096021449E+02  0.12218002739E+01  0.10290860749E+02  0.51100000000E-03 0.  1.
        -12    1    3    3    0    0  0.27425659407E+02  0.10031326767E+00  0.40101301866E+01  0.27717467430E+02  0.00000000000E+00 0.  1.
</event>
<event>
 7    1  0.2942034E-011  0.5052887E+02  0.7816164E-02  0.1300439E+00
        -11   -1    0    0    0    0  0.00000000000E+00  0.00000000000E+00  0.45593999997E+02  0.45594000000E+02  0.51100000000E-03 0. -1.
         11   -1    0    0    0    0 -0.00000000000E+00 -0.00000000000E+00 -0.45593999997E+02  0.45594000000E+02  0.51100000000E-03 0.  1.
    9900012    2    1    2    0    0 -0.35777792362E+02  0.23080724417E+01 -0.19177780825E+02  0.50528869389E+02  0.30000028995E+02 0.  0.
         12    1    1    2    0    0  0.35777792362E+02 -0.23080724417E+01  0.19177780825E+02  0.40659130611E+02  0.00000000000E+00 0. -1.
         11    1    3    3    0    0 -0.76670711394E+01 -0.35271341435E+01  0.57790999737E+01  0.10228521491E+02  0.51100000000E-03 0. -1.
        -11    1    3    3    0    0 -0.18208087855E+02  0.78920883694E+01 -0.22283220675E+02  0.29838925015E+02  0.51100000000E-03 0.  1.
         12    1    3    3    0    0 -0.99026333668E+01 -0.20568817843E+01 -0.26736601241E+01  0.10461422883E+02  0.00000000000E+00 0. -1.
</event>
<event>
 7    1  0.2942034E-011  0.5052886E+02  0.7816164E-02  0.1300439E+00
        -11   -1    0    0    0    0  0.00000000000E+00  0.00000000000E+00  0.45593999997E+02  0.45594000000E+02  0.51100000000E-03 0.  1.
         11   -1    0    0    0    0 -0.00000000000E+00 -0.00000000000E+00 -0.45593999997E+02  0.45594000000E+02  0.51100000000E-03 0. -1.
    9900012    2    1    2    0    0  0.33743355196E+02 -0.71951347002E+01  0.21512360769E+02  0.50528860202E+02  0.30000001070E+02 0.  0.
         12    1    1    2    0    0 -0.33743355196E+02  0.71951347002E+01 -0.21512360769E+02  0.40659139798E+02  0.00000000000E+00 0. -1.
         11    1    3    3    0    0  0.22876391031E+02 -0.47963971466E+01  0.82864908887E+01  0.24799206111E+02  0.51100000000E-03 0.  1.
        -11    1    3    3    0    0  0.58926273359E+00 -0.50722854180E+01  0.14175837483E+02  0.15067504058E+02  0.51100000000E-03 0. -1.
         12    1    3    3    0    0  0.10277701432E+02  0.26735478645E+01 -0.94996760231E+00  0.10662150034E+02  0.00000000000E+00 0. -1.
</event>
<event>
 7    1  0.2942034E-011  0.5052887E+02  0.7816164E-02  0.1300439E+00
        -11   -1    0    0    0    0  0.00000000000E+00  0.00000000000E+00  0.45593999997E+02  0.45594000000E+02  0.51100000000E-03 0. -1.
         11   -1    0    0    0    0 -0.00000000000E+00 -0.00000000000E+00 -0.45593999997E+02  0.45594000000E+02  0.51100000000E-03 0.  1.
    9900012    2    1    2    0    0  0.21690757530E+02  0.33805237370E+02  0.63152366196E+01  0.50528865117E+02  0.30000016009E+02 0.  0.
         12    1    1    2    0    0 -0.21690757530E+02 -0.33805237370E+02 -0.63152366196E+01  0.40659134883E+02  0.00000000000E+00 0. -1.
         11    1    3    3    0    0 -0.57685639871E+01 -0.11316932784E+00  0.34123012199E+00  0.57797557065E+01  0.51100000000E-03 0. -1.
        -11    1    3    3    0    0  0.86695038416E+01  0.16788576308E+02  0.33270933081E+01  0.19185571178E+02  0.51100000000E-03 0.  1.
         12    1    3    3    0    0  0.18789817676E+02  0.17129830391E+02  0.26469131894E+01  0.25563538232E+02  0.00000000000E+00 0. -1.
</event>
<event>
 7    1  0.2942034E-011  0.5052888E+02  0.7816164E-02  0.1300439E+00
        -11   -1    0    0    0    0  0.00000000000E+00  0.00000000000E+00  0.45593999997E+02  0.45594000000E+02  0.51100000000E-03 0.  1.
         11   -1    0    0    0    0 -0.00000000000E+00 -0.00000000000E+00 -0.45593999997E+02  0.45594000000E+02  0.51100000000E-03 0. -1.
    9900012    2    1    2    0    0 -0.34955602193E+02 -0.19889547548E+02  0.59728899576E+01  0.50528884899E+02  0.30000076140E+02 0.  0.
         12    1    1    2    0    0  0.34955602193E+02  0.19889547548E+02 -0.59728899576E+01  0.40659115101E+02  0.00000000000E+00 0. -1.
         11    1    3    3    0    0  0.11732367300E+01  0.63277593114E+00 -0.13328557457E+01  0.18850449606E+01  0.51100000000E-03 0. -1.
        -11    1    3    3    0    0 -0.22727920589E+02 -0.24484422406E+02  0.89171306103E+01  0.34576878596E+02  0.51100000000E-03 0.  1.
        -12    1    3    3    0    0 -0.13400918334E+02  0.39620989272E+01 -0.16113849071E+01  0.14066961343E+02  0.00000000000E+00 0.  1.
</event>
<event>
 7    1  0.2942034E-011  0.5052886E+02  0.7816164E-02  0.1300439E+00
        -11   -1    0    0    0    0  0.00000000000E+00  0.00000000000E+00  0.45593999997E+02  0.45594000000E+02  0.51100000000E-03 0. -1.
         11   -1    0    0    0    0 -0.00000000000E+00 -0.00000000000E+00 -0.45593999997E+02  0.45594000000E+02  0.51100000000E-03 0.  1.
    9900012    2    1    2    0    0 -0.33788337773E+02 -0.17420754620E+02 -0.14423289732E+02  0.50528858990E+02  0.29999997386E+02 0.  0.
         12    1    1    2    0    0  0.33788337773E+02  0.17420754620E+02  0.14423289732E+02  0.40659141010E+02  0.00000000000E+00 0. -1.
         11    1    3    3    0    0 -0.57975062494E+01 -0.12941228335E+02 -0.12345582430E+02  0.18801592362E+02  0.51100000000E-03 0. -1.
        -11    1    3    3    0    0 -0.21671210698E+02 -0.93929966449E+01 -0.90276068678E+00  0.23636512776E+02  0.51100000000E-03 0.  1.
         12    1    3    3    0    0 -0.63196208249E+01  0.49134703600E+01 -0.11749466155E+01  0.80907538523E+01  0.00000000000E+00 0. -1.
</event>
<event>
 7    1  0.2942034E-011  0.5052885E+02  0.7816164E-02  0.1300439E+00
        -11   -1    0    0    0    0  0.00000000000E+00  0.00000000000E+00  0.45593999997E+02  0.45594000000E+02  0.51100000000E-03 0.  1.
         11   -1    0    0    0    0 -0.00000000000E+00 -0.00000000000E+00 -0.45593999997E+02  0.45594000000E+02  0.51100000000E-03 0. -1.
    9900012    2    1    2    0    0 -0.36739797322E+01  0.12658324278E+02  0.38463424069E+02  0.50528852300E+02  0.29999977050E+02 0.  0.
         12    1    1    2    0    0  0.36739797322E+01 -0.12658324278E+02 -0.38463424069E+02  0.40659147700E+02  0.00000000000E+00 0. -1.
         11    1    3    3    0    0 -0.10559275275E+01  0.73805703862E+01 -0.24890559971E+00  0.74598764351E+01  0.51100000000E-03 0. -1.
        -11    1    3    3    0    0 -0.39238355290E+01 -0.44590529984E+01  0.27621328823E+02  0.28252742258E+02  0.51100000000E-03 0.  1.
        -12    1    3    3    0    0  0.13057833243E+01  0.97368068904E+01  0.11091000846E+02  0.14816233606E+02  0.00000000000E+00 0.  1.
</event>
<event>
 7    1  0.2942034E-011  0.5052886E+02  0.7816164E-02  0.1300439E+00
        -11   -1    0    0    0    0  0.00000000000E+00  0.00000000000E+00  0.45593999997E+02  0.45594000000E+02  0.51100000000E-03 0. -1.
         11   -1    0    0    0    0 -0.00000000000E+00 -0.00000000000E+00 -0.45593999997E+02  0.45594000000E+02  0.51100000000E-03 0.  1.
    9900012    2    1    2    0    0 -0.30711908390E+02  0.23442409201E+02 -0.12664834568E+02  0.50528857108E+02  0.29999991665E+02 0.  0.
         12    1    1    2    0    0  0.30711908390E+02 -0.23442409201E+02  0.12664834568E+02  0.40659142892E+02  0.00000000000E+00 0. -1.
         11    1    3    3    0    0 -0.45450553517E+01  0.14542841905E+02  0.14582618769E+01  0.15306152579E+02  0.51100000000E-03 0. -1.
        -11    1    3    3    0    0 -0.25197129037E+02  0.20663439309E+01 -0.10030495984E+02  0.27198822380E+02  0.51100000000E-03 0.  1.
        -12    1    3    3    0    0 -0.96972400146E+00  0.68332233650E+01 -0.40926004606E+01  0.80238821480E+01  0.00000000000E+00 0.  1.
</event>
<event>
 7    1  0.2942034E-011  0.5052886E+02  0.7816164E-02  0.1300439E+00
        -11   -1    0    0    0    0  0.00000000000E+00  0.00000000000E+00  0.45593999997E+02  0.45594000000E+02  0.51100000000E-03 0.  1.
         11   -1    0    0    0    0 -0.00000000000E+00 -0.00000000000E+00 -0.45593999997E+02  0.45594000000E+02  0.51100000000E-03 0. -1.
    9900012    2    1    2    0    0  0.36320941074E+02 -0.12138687239E+02 -0.13660410757E+02  0.50528864367E+02  0.30000013730E+02 0.  0.
         12    1    1    2    0    0 -0.36320941074E+02  0.12138687239E+02  0.13660410757E+02  0.40659135633E+02  0.00000000000E+00 0. -1.
         11    1    3    3    0    0  0.39163319625E+00 -0.10808500443E+01 -0.38410999607E+01  0.40094466635E+01  0.51100000000E-03 0. -1.
        -11    1    3    3    0    0  0.32425851368E+02 -0.17377006473E+02 -0.35609276803E+01  0.36960470737E+02  0.51100000000E-03 0.  1.
        -12    1    3    3    0    0  0.35034565098E+01  0.63191692782E+01 -0.62583831162E+01  0.95589469667E+01  0.00000000000E+00 0.  1.
</event>
<event>
 7    1  0.2942034E-011  0.5052886E+02  0.7816164E-02  0.1300439E+00
        -11   -1    0    0    0    0  0.00000000000E+00  0.00000000000E+00  0.45593999997E+02  0.45594000000E+02  0.51100000000E-03 0.  1.
         11   -1    0    0    0    0 -0.00000000000E+00 -0.00000000000E+00 -0.45593999997E+02  0.45594000000E+02  0.51100000000E-03 0. -1.
    9900012    2    1    2    0    0 -0.27318509273E+02 -0.21198363109E+02  0.21389106737E+02  0.50528862843E+02  0.30000009096E+02 0.  0.
         12    1    1    2    0    0  0.27318509273E+02  0.21198363109E+02 -0.21389106737E+02  0.40659137157E+02  0.00000000000E+00 0. -1.
         11    1    3    3    0    0  0.37714468293E+01 -0.11305124831E+02  0.10195920339E+02  0.15683955192E+02  0.51100000000E-03 0. -1.
        -11    1    3    3    0    0 -0.70711795929E+01 -0.15766097146E+00  0.20787740700E+01  0.73720919495E+01  0.51100000000E-03 0.  1.
         12    1    3    3    0    0 -0.24018776509E+02 -0.97355773067E+01  0.91144123275E+01  0.27472815701E+02  0.00000000000E+00 0. -1.
</event>
<event>
 7    1  0.2942034E-011  0.5052886E+02  0.7816164E-02  0.1300439E+00
        -11   -1    0    0    0    0  0.00000000000E+00  0.00000000000E+00  0.45593999997E+02  0.45594000000E+02  0.51100000000E-03 0.  1.
         11   -1    0    0    0    0 -0.00000000000E+00 -0.00000000000E+00 -0.45593999997E+02  0.45594000000E+02  0.51100000000E-03 0. -1.
    9900012    2    1    2    0    0 -0.31417131013E+02  0.16021656950E+02  0.20234526671E+02  0.50528859796E+02  0.29999999837E+02 0.  0.
         12    1    1    2    0    0  0.31417131013E+02 -0.16021656950E+02 -0.20234526671E+02  0.40659140204E+02  0.00000000000E+00 0. -1.
         11    1    3    3    0    0  0.42556308959E+01 -0.20728195360E+00  0.38880159887E+01  0.57680177461E+01  0.51100000000E-03 0. -1.
        -11    1    3    3    0    0 -0.25878543344E+02  0.18165901083E+02  0.11323186598E+02  0.33584423812E+02  0.51100000000E-03 0.  1.
         12    1    3    3    0    0 -0.97942185648E+01 -0.19369621798E+01  0.50233240844E+01  0.11176418238E+02  0.00000000000E+00 0. -1.
</event>
<event>
 7    1  0.2942034E-011  0.5052886E+02  0.7816164E-02  0.1300439E+00
        -11   -1    0    0    0    0  0.00000000000E+00  0.00000000000E+00  0.45593999997E+02  0.45594000000E+02  0.51100000000E-03 0.  1.
         11   -1    0    0    0    0 -0.00000000000E+00 -0.00000000000E+00 -0.45593999997E+02  0.45594000000E+02  0.51100000000E-03 0. -1.
    9900012    2    1    2    0    0 -0.34939292527E+02 -0.20714451197E+02  0.18229787617E+01  0.50528857089E+02  0.29999991608E+02 0.  0.
         12    1    1    2    0    0  0.34939292527E+02  0.20714451197E+02 -0.18229787617E+01  0.40659142911E+02  0.00000000000E+00 0. -1.
         11    1    3    3    0    0 -0.24442990470E+02 -0.21552336664E+02 -0.47811636422E+01  0.32936644104E+02  0.51100000000E-03 0.  1.
        -11    1    3    3    0    0 -0.11445643482E+02 -0.42916586518E+00  0.69511909187E+00  0.11474760515E+02  0.51100000000E-03 0. -1.
         12    1    3    3    0    0  0.94934142516E+00  0.12670513324E+01  0.59090233120E+01  0.61174524700E+01  0.00000000000E+00 0. -1.
</event>
<event>
 7    1  0.2942034E-011  0.5052886E+02  0.7816164E-02  0.1300439E+00
        -11   -1    0    0    0    0  0.00000000000E+00  0.00000000000E+00  0.45593999997E+02  0.45594000000E+02  0.51100000000E-03 0. -1.
         11   -1    0    0    0    0 -0.00000000000E+00 -0.00000000000E+00 -0.45593999997E+02  0.45594000000E+02  0.51100000000E-03 0.  1.
    9900012    2    1    2    0    0 -0.30546022775E+02 -0.19658029901E+02 -0.18266578341E+02  0.50528861652E+02  0.30000005477E+02 0.  0.
         12    1    1    2    0    0  0.30546022775E+02  0.19658029901E+02  0.18266578341E+02  0.40659138348E+02  0.00000000000E+00 0. -1.
         11    1    3    3    0    0 -0.17043864845E+02 -0.18948554129E+02 -0.44785095130E+01  0.25876593287E+02  0.51100000000E-03 0. -1.
        -11    1    3    3    0    0 -0.65601819010E+00  0.51930069167E+01 -0.75808205657E+01  0.92123027204E+01  0.51100000000E-03 0.  1.
         12    1    3    3    0    0 -0.12846139740E+02 -0.59024826882E+01 -0.62072482620E+01  0.15439965644E+02  0.00000000000E+00 0. -1.
</event>
<event>
 7    1  0.2942034E-011  0.5052884E+02  0.7816164E-02  0.1300439E+00
        -11   -1    0    0    0    0  0.00000000000E+00  0.00000000000E+00  0.45593999997E+02  0.45594000000E+02  0.51100000000E-03 0.  1.
         11   -1    0    0    0    0 -0.00000000000E+00 -0.00000000000E+00 -0.45593999997E+02  0.45594000000E+02  0.51100000000E-03 0. -1.
    9900012    2    1    2    0    0 -0.82811938354E+01  0.47640464028E+01  0.39520796357E+02  0.50528835545E+02  0.29999926123E+02 0.  0.
         12    1    1    2    0    0  0.82811938354E+01 -0.47640464028E+01 -0.39520796357E+02  0.40659164455E+02  0.00000000000E+00 0. -1.
         11    1    3    3    0    0  0.79311114747E+00  0.72365967165E+00  0.29931909608E+01  0.31799215402E+01  0.51100000000E-03 0. -1.
        -11    1    3    3    0    0 -0.38664772614E+01 -0.12333673179E+02  0.14842412045E+02  0.19681624325E+02  0.51100000000E-03 0.  1.
        -12    1    3    3    0    0 -0.52078277215E+01  0.16374059911E+02  0.21685193352E+02  0.27667289680E+02  0.00000000000E+00 0.  1.
</event>
<event>
 7    1  0.2942034E-011  0.5052886E+02  0.7816164E-02  0.1300439E+00
        -11   -1    0    0    0    0  0.00000000000E+00  0.00000000000E+00  0.45593999997E+02  0.45594000000E+02  0.51100000000E-03 0.  1.
         11   -1    0    0    0    0 -0.00000000000E+00 -0.00000000000E+00 -0.45593999997E+02  0.45594000000E+02  0.51100000000E-03 0. -1.
    9900012    2    1    2    0    0 -0.33498798476E+02 -0.80183409918E+00  0.23029398226E+02  0.50528860561E+02  0.30000002161E+02 0.  0.
         12    1    1    2    0    0  0.33498798476E+02  0.80183409918E+00 -0.23029398226E+02  0.40659139439E+02  0.00000000000E+00 0. -1.
         11    1    3    3    0    0  0.15705917695E+01 -0.23678111662E+01 -0.23830871009E+01  0.37084218499E+01  0.51100000000E-03 0. -1.
        -11    1    3    3    0    0 -0.26398558493E+02 -0.40016184127E+01  0.10492169409E+02  0.28687670864E+02  0.51100000000E-03 0.  1.
        -12    1    3    3    0    0 -0.86708317526E+01  0.55675954797E+01  0.14920315918E+02  0.18132767847E+02  0.00000000000E+00 0.  1.
</event>
<event>
 7    1  0.2942034E-011  0.5052886E+02  0.7816164E-02  0.1300439E+00
        -11   -1    0    0    0    0  0.00000000000E+00  0.00000000000E+00  0.45593999997E+02  0.45594000000E+02  0.51100000000E-03 0. -1.
         11   -1    0    0    0    0 -0.00000000000E+00 -0.00000000000E+00 -0.45593999997E+02  0.45594000000E+02  0.51100000000E-03 0.  1.
    9900012    2    1    2    0    0 -0.25695810546E+02  0.14546356065E+02  0.27951644234E+02  0.50528861178E+02  0.30000004036E+02 0.  0.
         12    1    1    2    0    0  0.25695810546E+02 -0.14546356065E+02 -0.27951644234E+02  0.40659138822E+02  0.00000000000E+00 0. -1.
         11    1    3    3    0    0 -0.92121932805E+01  0.12379132978E+02  0.27960242602E+02  0.31935600902E+02  0.51100000000E-03 0. -1.
        -11    1    3    3    0    0 -0.14876194299E+02  0.40830844109E+01  0.17654527875E+01  0.15527058927E+02  0.51100000000E-03 0.  1.
         12    1    3    3    0    0 -0.16074229668E+01 -0.19158613241E+01 -0.17740511558E+01  0.30662013487E+01  0.00000000000E+00 0. -1.
</event>
<event>
 7    1  0.2942034E-011  0.5052886E+02  0.7816164E-02  0.1300439E+00
        -11   -1    0    0    0    0  0.00000000000E+00  0.00000000000E+00  0.45593999997E+02  0.45594000000E+02  0.51100000000E-03 0.  1.
         11   -1    0    0    0    0 -0.00000000000E+00 -0.00000000000E+00 -0.45593999997E+02  0.45594000000E+02  0.51100000000E-03 0. -1.
    9900012    2    1    2    0    0  0.10838121806E+02 -0.16356218700E+02  0.35611438962E+02  0.50528863765E+02  0.30000011899E+02 0.  0.
         12    1    1    2    0    0 -0.10838121806E+02  0.16356218700E+02 -0.35611438962E+02  0.40659136235E+02  0.00000000000E+00 0. -1.
         11    1    3    3    0    0 -0.23655325925E+01  0.62849137779E+00  0.56989259998E+00  0.25130705710E+01  0.51100000000E-03 0. -1.
        -11    1    3    3    0    0  0.11837189638E+02 -0.23368370679E+02  0.26461539056E+02  0.37234565342E+02  0.51100000000E-03 0.  1.
        -12    1    3    3    0    0  0.13664647602E+01  0.63836606012E+01  0.85800073058E+01  0.10781227851E+02  0.00000000000E+00 0.  1.
</event>
<event>
 7    1  0.2942034E-011  0.5052886E+02  0.7816164E-02  0.1300439E+00
        -11   -1    0    0    0    0  0.00000000000E+00  0.00000000000E+00  0.45593999997E+02  0.45594000000E+02  0.51100000000E-03 0.  1.
         11   -1    0    0    0    0 -0.00000000000E+00 -0.00000000000E+00 -0.45593999997E+02  0.45594000000E+02  0.51100000000E-03 0. -1.
    9900012    2    1    2    0    0 -0.24100124458E+02  0.32525120930E+02 -0.38033958752E+01  0.50528864365E+02  0.30000013724E+02 0.  0.
         12    1    1    2    0    0  0.24100124458E+02 -0.32525120930E+02  0.38033958752E+01  0.40659135635E+02  0.00000000000E+00 0. -1.
         11    1    3    3    0    0 -0.86777758271E+01  0.53465041882E+01 -0.14032964164E+02  0.17343961019E+02  0.51100000000E-03 0. -1.
        -11    1    3    3    0    0 -0.14027632123E+02  0.21494129750E+02  0.75988287007E+01  0.26767784267E+02  0.51100000000E-03 0.  1.
        -12    1    3    3    0    0 -0.13947165079E+01  0.56844869916E+01  0.26307395878E+01  0.64171190790E+01  0.00000000000E+00 0.  1.
</event>
<event>
 7    1  0.2942034E-011  0.5052887E+02  0.7816164E-02  0.1300439E+00
        -11   -1    0    0    0    0  0.00000000000E+00  0.00000000000E+00  0.45593999997E+02  0.45594000000E+02  0.51100000000E-03 0. -1.
         11   -1    0    0    0    0 -0.00000000000E+00 -0.00000000000E+00 -0.45593999997E+02  0.45594000000E+02  0.51100000000E-03 0.  1.
    9900012    2    1    2    0    0 -0.40495703462E+02 -0.16707605685E+01  0.32359998228E+01  0.50528866529E+02  0.30000020302E+02 0.  0.
         12    1    1    2    0    0  0.40495703462E+02  0.16707605685E+01 -0.32359998228E+01  0.40659133471E+02  0.00000000000E+00 0. -1.
         11    1    3    3    0    0 -0.21620039095E+01 -0.65702876980E+01  0.88020173813E+01  0.11194572416E+02  0.51100000000E-03 0. -1.
        -11    1    3    3    0    0 -0.13529429450E+02  0.20182280055E+01 -0.42681016072E+01  0.14329528852E+02  0.51100000000E-03 0.  1.
         12    1    3    3    0    0 -0.24804270102E+02  0.28812991240E+01 -0.12979159512E+01  0.25004765261E+02  0.00000000000E+00 0. -1.
</event>
<event>
 7    1  0.2942034E-011  0.5052887E+02  0.7816164E-02  0.1300439E+00
        -11   -1    0    0    0    0  0.00000000000E+00  0.00000000000E+00  0.45593999997E+02  0.45594000000E+02  0.51100000000E-03 0. -1.
         11   -1    0    0    0    0 -0.00000000000E+00 -0.00000000000E+00 -0.45593999997E+02  0.45594000000E+02  0.51100000000E-03 0.  1.
    9900012    2    1    2    0    0 -0.24073625109E+02  0.14656613909E+02 -0.29305448843E+02  0.50528867089E+02  0.30000022004E+02 0.  0.
         12    1    1    2    0    0  0.24073625109E+02 -0.14656613909E+02  0.29305448843E+02  0.40659132911E+02  0.00000000000E+00 0. -1.
         11    1    3    3    0    0 -0.19976666612E+02  0.97550485809E+01 -0.40026686155E+01  0.22588703771E+02  0.51100000000E-03 0. -1.
        -11    1    3    3    0    0 -0.57696422400E+01 -0.70444233615E+00 -0.10137979375E+02  0.11686044525E+02  0.51100000000E-03 0.  1.
         12    1    3    3    0    0  0.16726837425E+01  0.56060076643E+01 -0.15164800853E+02  0.16254118793E+02  0.00000000000E+00 0. -1.
</event>
<event>
 7    1  0.2942034E-011  0.5052886E+02  0.7816164E-02  0.1300439E+00
        -11   -1    0    0    0    0  0.00000000000E+00  0.00000000000E+00  0.45593999997E+02  0.45594000000E+02  0.51100000000E-03 0.  1.
         11   -1    0    0    0    0 -0.00000000000E+00 -0.00000000000E+00 -0.45593999997E+02  0.45594000000E+02  0.51100000000E-03 0. -1.
    9900012    2    1    2    0    0 -0.37380251199E+02  0.15570087947E+02 -0.36680770825E+01  0.50528860709E+02  0.30000002612E+02 0.  0.
         12    1    1    2    0    0  0.37380251199E+02 -0.15570087947E+02  0.36680770825E+01  0.40659139291E+02  0.00000000000E+00 0. -1.
         11    1    3    3    0    0 -0.13431437915E+02  0.20290431255E+02  0.30115008986E+01  0.24518855252E+02  0.51100000000E-03 0. -1.
        -11    1    3    3    0    0 -0.22187618869E+02 -0.40409273284E+01 -0.42770280886E+01  0.22954574583E+02  0.51100000000E-03 0.  1.
        -12    1    3    3    0    0 -0.17611944154E+01 -0.67941597943E+00 -0.24025498926E+01  0.30554308744E+01  0.00000000000E+00 0.  1.
</event>
<event>
 7    1  0.2942034E-011  0.5052886E+02  0.7816164E-02  0.1300439E+00
        -11   -1    0    0    0    0  0.00000000000E+00  0.00000000000E+00  0.45593999997E+02  0.45594000000E+02  0.51100000000E-03 0.  1.
         11   -1    0    0    0    0 -0.00000000000E+00 -0.00000000000E+00 -0.45593999997E+02  0.45594000000E+02  0.51100000000E-03 0. -1.
    9900012    2    1    2    0    0 -0.13248191529E+02 -0.10607608666E+02  0.36947663034E+02  0.50528859034E+02  0.29999997521E+02 0.  0.
         12    1    1    2    0    0  0.13248191529E+02  0.10607608666E+02 -0.36947663034E+02  0.40659140966E+02  0.00000000000E+00 0. -1.
         11    1    3    3    0    0 -0.81983243229E+01 -0.94922669043E+01  0.30299057483E+01  0.12903332197E+02  0.51100000000E-03 0. -1.
        -11    1    3    3    0    0 -0.42043630220E+00  0.68754329461E+01  0.17173391015E+02  0.18503343052E+02  0.51100000000E-03 0.  1.
        -12    1    3    3    0    0 -0.46294309044E+01 -0.79907747079E+01  0.16744366270E+02  0.19122183785E+02  0.00000000000E+00 0.  1.
</event>
<event>
 7    1  0.2942034E-011  0.5052887E+02  0.7816164E-02  0.1300439E+00
        -11   -1    0    0    0    0  0.00000000000E+00  0.00000000000E+00  0.45593999997E+02  0.45594000000E+02  0.51100000000E-03 0.  1.
         11   -1    0    0    0    0 -0.00000000000E+00 -0.00000000000E+00 -0.45593999997E+02  0.45594000000E+02  0.51100000000E-03 0. -1.
    9900012    2    1    2    0    0  0.19103423828E+02 -0.31166589645E+02  0.17800783356E+02  0.50528868183E+02  0.30000025329E+02 0.  0.
         12    1    1    2    0    0 -0.19103423828E+02  0.31166589645E+02 -0.17800783356E+02  0.40659131817E+02  0.00000000000E+00 0. -1.
         11    1    3    3    0    0  0.71837717794E+01 -0.28011271009E+02  0.14742707289E+02  0.32458978712E+02  0.51100000000E-03 0.  1.
        -11    1    3    3    0    0  0.63119443779E+00  0.41960476798E+01 -0.55429352202E-01  0.42436181760E+01  0.51100000000E-03 0. -1.
        -12    1    3    3    0    0  0.11288457611E+02 -0.73513663151E+01  0.31135054193E+01  0.13826271295E+02  0.00000000000E+00 0.  1.
</event>
<event>
 7    1  0.2942034E-011  0.5052887E+02  0.7816164E-02  0.1300439E+00
        -11   -1    0    0    0    0  0.00000000000E+00  0.00000000000E+00  0.45593999997E+02  0.45594000000E+02  0.51100000000E-03 0.  1.
         11   -1    0    0    0    0 -0.00000000000E+00 -0.00000000000E+00 -0.45593999997E+02  0.45594000000E+02  0.51100000000E-03 0. -1.
    9900012    2    1    2    0    0 -0.62850593242E+01 -0.38992531632E+02 -0.96563683046E+01  0.50528868890E+02  0.30000027477E+02 0.  0.
         12    1    1    2    0    0  0.62850593242E+01  0.38992531632E+02  0.96563683046E+01  0.40659131110E+02  0.00000000000E+00 0. -1.
         11    1    3    3    0    0 -0.87176709316E+01 -0.19702678598E+02 -0.71930337091E+01  0.22714160002E+02  0.51100000000E-03 0.  1.
        -11    1    3    3    0    0  0.53344760421E+01 -0.22572582798E+02 -0.30504709158E+01  0.23394091175E+02  0.51100000000E-03 0. -1.
        -12    1    3    3    0    0 -0.29018644347E+01  0.32827297640E+01  0.58713632033E+00  0.44206177124E+01  0.00000000000E+00 0.  1.
</event>
<event>
 7    1  0.2942034E-011  0.5052886E+02  0.7816164E-02  0.1300439E+00
        -11   -1    0    0    0    0  0.00000000000E+00  0.00000000000E+00  0.45593999997E+02  0.45594000000E+02  0.51100000000E-03 0. -1.
         11   -1    0    0    0    0 -0.00000000000E+00 -0.00000000000E+00 -0.45593999997E+02  0.45594000000E+02  0.51100000000E-03 0.  1.
    9900012    2    1    2    0    0  0.18508712271E+02 -0.14109786904E+02 -0.33339272537E+02  0.50528860686E+02  0.30000002542E+02 0.  0.
         12    1    1    2    0    0 -0.18508712271E+02  0.14109786904E+02  0.33339272537E+02  0.40659139314E+02  0.00000000000E+00 0. -1.
         11    1    3    3    0    0  0.18307621133E+02 -0.74165425153E+00 -0.14407468462E+02  0.23308671998E+02  0.51100000000E-03 0. -1.
        -11    1    3    3    0    0  0.43370713501E+01 -0.14447374089E+02 -0.16260113506E+02  0.22179452145E+02  0.51100000000E-03 0.  1.
         12    1    3    3    0    0 -0.41359802125E+01  0.10792414367E+01 -0.26716905696E+01  0.50407365430E+01  0.00000000000E+00 0. -1.
</event>
<event>
 7    1  0.2942034E-011  0.5052886E+02  0.7816164E-02  0.1300439E+00
        -11   -1    0    0    0    0  0.00000000000E+00  0.00000000000E+00  0.45593999997E+02  0.45594000000E+02  0.51100000000E-03 0.  1.
         11   -1    0    0    0    0 -0.00000000000E+00 -0.00000000000E+00 -0.45593999997E+02  0.45594000000E+02  0.51100000000E-03 0. -1.
    9900012    2    1    2    0    0 -0.13069845991E+01  0.10502109773E+02  0.39257646055E+02  0.50528864591E+02  0.30000014409E+02 0.  0.
         12    1    1    2    0    0  0.13069845991E+01 -0.10502109773E+02 -0.39257646055E+02  0.40659135409E+02  0.00000000000E+00 0. -1.
         11    1    3    3    0    0 -0.30310270604E+01  0.24003594203E+01  0.39004220709E+02  0.39195383450E+02  0.51100000000E-03 0.  1.
        -11    1    3    3    0    0 -0.29280802421E+01  0.36866471551E+01 -0.96301242851E+00  0.48054567264E+01  0.51100000000E-03 0. -1.
        -12    1    3    3    0    0  0.46521227034E+01  0.44151031976E+01  0.12164377748E+01  0.65280244143E+01  0.00000000000E+00 0.  1.
</event>
<event>
 7    1  0.2942034E-011  0.5052891E+02  0.7816164E-02  0.1300439E+00
        -11   -1    0    0    0    0  0.00000000000E+00  0.00000000000E+00  0.45593999997E+02  0.45594000000E+02  0.51100000000E-03 0.  1.
         11   -1    0    0    0    0 -0.00000000000E+00 -0.00000000000E+00 -0.45593999997E+02  0.45594000000E+02  0.51100000000E-03 0. -1.
    9900012    2    1    2    0    0 -0.28618490891E+02  0.16454613275E+02  0.23735830672E+02  0.50528905364E+02  0.30000138345E+02 0.  0.
         12    1    1    2    0    0  0.28618490891E+02 -0.16454613275E+02 -0.23735830672E+02  0.40659094636E+02  0.00000000000E+00 0. -1.
         11    1    3    3    0    0  0.29873024723E+01  0.50129841868E+01  0.23333996273E+01  0.62848023517E+01  0.51100000000E-03 0. -1.
        -11    1    3    3    0    0 -0.20280166520E+02  0.16361142753E+02  0.17104898381E+02  0.31169691933E+02  0.51100000000E-03 0.  1.
        -12    1    3    3    0    0 -0.11325626843E+02 -0.49195136651E+01  0.42975326631E+01  0.13074411080E+02  0.00000000000E+00 0.  1.
</event>
<event>
 7    1  0.2942034E-011  0.5052886E+02  0.7816164E-02  0.1300439E+00
        -11   -1    0    0    0    0  0.00000000000E+00  0.00000000000E+00  0.45593999997E+02  0.45594000000E+02  0.51100000000E-03 0.  1.
         11   -1    0    0    0    0 -0.00000000000E+00 -0.00000000000E+00 -0.45593999997E+02  0.45594000000E+02  0.51100000000E-03 0. -1.
    9900012    2    1    2    0    0  0.64706349483E+01 -0.40007552600E+02  0.32698546155E+01  0.50528864116E+02  0.30000012966E+02 0.  0.
         12    1    1    2    0    0 -0.64706349483E+01  0.40007552600E+02 -0.32698546155E+01  0.40659135884E+02  0.00000000000E+00 0. -1.
         11    1    3    3    0    0  0.97706109989E+01 -0.17146316509E+02 -0.92548830224E+01  0.21797106899E+02  0.51100000000E-03 0. -1.
        -11    1    3    3    0    0 -0.59734748373E+01 -0.17532340819E+02  0.51033710196E+01  0.19212229757E+02  0.51100000000E-03 0.  1.
         12    1    3    3    0    0  0.26734987867E+01 -0.53288952716E+01  0.74213666184E+01  0.95195274601E+01  0.00000000000E+00 0. -1.
</event>
<event>
 7    1  0.2942034E-011  0.5052889E+02  0.7816164E-02  0.1300439E+00
        -11   -1    0    0    0    0  0.00000000000E+00  0.00000000000E+00  0.45593999997E+02  0.45594000000E+02  0.51100000000E-03 0.  1.
         11   -1    0    0    0    0 -0.00000000000E+00 -0.00000000000E+00 -0.45593999997E+02  0.45594000000E+02  0.51100000000E-03 0. -1.
    9900012    2    1    2    0    0 -0.26340159611E+02 -0.30869602010E+02  0.25351975668E+01  0.50528885852E+02  0.30000079037E+02 0.  0.
         12    1    1    2    0    0  0.26340159611E+02  0.30869602010E+02 -0.25351975668E+01  0.40659114148E+02  0.00000000000E+00 0. -1.
         11    1    3    3    0    0 -0.11068931300E+02 -0.51335522701E+01  0.84543912513E+00  0.12230673187E+02  0.51100000000E-03 0. -1.
        -11    1    3    3    0    0 -0.35521955283E+01 -0.26175523807E+02  0.25569846735E+01  0.26538920673E+02  0.51100000000E-03 0.  1.
        -12    1    3    3    0    0 -0.11719032783E+02  0.43947406722E+00 -0.86722623182E+00  0.11759291992E+02  0.00000000000E+00 0.  1.
</event>
<event>
 7    1  0.2942034E-011  0.5052885E+02  0.7816164E-02  0.1300439E+00
        -11   -1    0    0    0    0  0.00000000000E+00  0.00000000000E+00  0.45593999997E+02  0.45594000000E+02  0.51100000000E-03 0.  1.
         11   -1    0    0    0    0 -0.00000000000E+00 -0.00000000000E+00 -0.45593999997E+02  0.45594000000E+02  0.51100000000E-03 0. -1.
    9900012    2    1    2    0    0  0.13249636865E+02  0.65848559944E+00  0.38434098340E+02  0.50528851023E+02  0.29999973171E+02 0.  0.
         12    1    1    2    0    0 -0.13249636865E+02 -0.65848559944E+00 -0.38434098340E+02  0.40659148977E+02  0.00000000000E+00 0. -1.
         11    1    3    3    0    0 -0.12860653788E+01 -0.84334132575E+01  0.16123110422E+02  0.18240918652E+02  0.51100000000E-03 0. -1.
        -11    1    3    3    0    0  0.11509706983E+02  0.12777305864E+02  0.21365480980E+02  0.27426568829E+02  0.51100000000E-03 0.  1.
         12    1    3    3    0    0  0.30259952602E+01 -0.36854070066E+01  0.94550693734E+00  0.48613635420E+01  0.00000000000E+00 0. -1.
</event>
<event>
 7    1  0.2942034E-011  0.5052886E+02  0.7816164E-02  0.1300439E+00
        -11   -1    0    0    0    0  0.00000000000E+00  0.00000000000E+00  0.45593999997E+02  0.45594000000E+02  0.51100000000E-03 0.  1.
         11   -1    0    0    0    0 -0.00000000000E+00 -0.00000000000E+00 -0.45593999997E+02  0.45594000000E+02  0.51100000000E-03 0. -1.
    9900012    2    1    2    0    0  0.39852264411E+02  0.12156259126E+01 -0.79677558876E+01  0.50528857622E+02  0.29999993228E+02 0.  0.
         12    1    1    2    0    0 -0.39852264411E+02 -0.12156259126E+01  0.79677558876E+01  0.40659142378E+02  0.00000000000E+00 0. -1.
         11    1    3    3    0    0  0.32088434732E+01 -0.96208915829E+01 -0.24255546301E+01  0.10427921500E+02  0.51100000000E-03 0. -1.
        -11    1    3    3    0    0  0.47999729573E+01  0.31908466728E+01 -0.45401025231E+01  0.73371502684E+01  0.51100000000E-03 0.  1.
         12    1    3    3    0    0  0.31843447980E+02  0.76456708227E+01 -0.10020987345E+01  0.32763785854E+02  0.00000000000E+00 0. -1.
</event>
<event>
 7    1  0.2942034E-011  0.5052886E+02  0.7816164E-02  0.1300439E+00
        -11   -1    0    0    0    0  0.00000000000E+00  0.00000000000E+00  0.45593999997E+02  0.45594000000E+02  0.51100000000E-03 0.  1.
         11   -1    0    0    0    0 -0.00000000000E+00 -0.00000000000E+00 -0.45593999997E+02  0.45594000000E+02  0.51100000000E-03 0. -1.
    9900012    2    1    2    0    0 -0.26216994694E+02 -0.26180977661E+02  0.16744892522E+02  0.50528858007E+02  0.29999994397E+02 0.  0.
         12    1    1    2    0    0  0.26216994694E+02  0.26180977661E+02 -0.16744892522E+02  0.40659141993E+02  0.00000000000E+00 0. -1.
         11    1    3    3    0    0  0.50774068923E+01  0.48934085816E+00  0.59967516640E+01  0.78727724473E+01  0.51100000000E-03 0. -1.
        -11    1    3    3    0    0 -0.23314645115E+02 -0.21540056838E+02  0.73728784773E+01  0.32586900171E+02  0.51100000000E-03 0.  1.
         12    1    3    3    0    0 -0.79797564708E+01 -0.51302616809E+01  0.33752623809E+01  0.10069185388E+02  0.00000000000E+00 0. -1.
</event>
<event>
 7    1  0.2942034E-011  0.5052884E+02  0.7816164E-02  0.1300439E+00
        -11   -1    0    0    0    0  0.00000000000E+00  0.00000000000E+00  0.45593999997E+02  0.45594000000E+02  0.51100000000E-03 0.  1.
         11   -1    0    0    0    0 -0.00000000000E+00 -0.00000000000E+00 -0.45593999997E+02  0.45594000000E+02  0.51100000000E-03 0. -1.
    9900012    2    1    2    0    0  0.78797314490E+01 -0.16844162142E+02  0.36157309795E+02  0.50528843373E+02  0.29999949918E+02 0.  0.
         12    1    1    2    0    0 -0.78797314490E+01  0.16844162142E+02 -0.36157309795E+02  0.40659156627E+02  0.00000000000E+00 0. -1.
         11    1    3    3    0    0  0.13436860885E+02  0.18164967168E+01  0.14885705625E+02  0.20135369948E+02  0.51100000000E-03 0. -1.
        -11    1    3    3    0    0 -0.42005932287E+01 -0.97517528147E+01  0.48749601617E+01  0.11683616875E+02  0.51100000000E-03 0.  1.
         12    1    3    3    0    0 -0.13565362071E+01 -0.89089060445E+01  0.16396644009E+02  0.18709856550E+02  0.00000000000E+00 0. -1.
</event>
<event>
 7    1  0.2942034E-011  0.5052886E+02  0.7816164E-02  0.1300439E+00
        -11   -1    0    0    0    0  0.00000000000E+00  0.00000000000E+00  0.45593999997E+02  0.45594000000E+02  0.51100000000E-03 0.  1.
         11   -1    0    0    0    0 -0.00000000000E+00 -0.00000000000E+00 -0.45593999997E+02  0.45594000000E+02  0.51100000000E-03 0. -1.
    9900012    2    1    2    0    0  0.20613264753E+02  0.31616958322E+02 -0.15120410481E+02  0.50528861416E+02  0.30000004760E+02 0.  0.
         12    1    1    2    0    0 -0.20613264753E+02 -0.31616958322E+02  0.15120410481E+02  0.40659138584E+02  0.00000000000E+00 0. -1.
         11    1    3    3    0    0  0.15302061562E+02  0.29236173717E+02 -0.17939987146E+02  0.37559953151E+02  0.51100000000E-03 0. -1.
        -11    1    3    3    0    0 -0.32928609915E+01  0.17684496677E+01  0.21622718975E+01  0.43180745427E+01  0.51100000000E-03 0.  1.
         12    1    3    3    0    0  0.86040641824E+01  0.61233493717E+00  0.65730476758E+00  0.86508337221E+01  0.00000000000E+00 0. -1.
</event>
<event>
 7    1  0.2942034E-011  0.5052886E+02  0.7816164E-02  0.1300439E+00
        -11   -1    0    0    0    0  0.00000000000E+00  0.00000000000E+00  0.45593999997E+02  0.45594000000E+02  0.51100000000E-03 0. -1.
         11   -1    0    0    0    0 -0.00000000000E+00 -0.00000000000E+00 -0.45593999997E+02  0.45594000000E+02  0.51100000000E-03 0.  1.
    9900012    2    1    2    0    0 -0.13787552728E+02  0.36219675456E+02 -0.12296497673E+02  0.50528863814E+02  0.30000012049E+02 0.  0.
         12    1    1    2    0    0  0.13787552728E+02 -0.36219675456E+02  0.12296497673E+02  0.40659136186E+02  0.00000000000E+00 0. -1.
         11    1    3    3    0    0 -0.12935323750E+02  0.16502325815E+01 -0.19738858396E+01  0.13188710841E+02  0.51100000000E-03 0. -1.
        -11    1    3    3    0    0 -0.20148076069E+01  0.34406908170E+02 -0.91037013364E+01  0.35647891351E+02  0.51100000000E-03 0.  1.
        -12    1    3    3    0    0  0.11625786283E+01  0.16253470475E+00 -0.12189104971E+01  0.16922616219E+01  0.00000000000E+00 0.  1.
</event>
<event>
 7    1  0.2942034E-011  0.5052885E+02  0.7816164E-02  0.1300439E+00
        -11   -1    0    0    0    0  0.00000000000E+00  0.00000000000E+00  0.45593999997E+02  0.45594000000E+02  0.51100000000E-03 0.  1.
         11   -1    0    0    0    0 -0.00000000000E+00 -0.00000000000E+00 -0.45593999997E+02  0.45594000000E+02  0.51100000000E-03 0. -1.
    9900012    2    1    2    0    0  0.13550302830E+02  0.21559397168E+02  0.31697759044E+02  0.50528852918E+02  0.29999978928E+02 0.  0.
         12    1    1    2    0    0 -0.13550302830E+02 -0.21559397168E+02 -0.31697759044E+02  0.40659147082E+02  0.00000000000E+00 0. -1.
         11    1    3    3    0    0 -0.67714203125E+01  0.10769106024E+02  0.83196635551E+01  0.15200084853E+02  0.51100000000E-03 0. -1.
        -11    1    3    3    0    0  0.12224766506E+02  0.10919314427E+02  0.21465087059E+02  0.27007893409E+02  0.51100000000E-03 0.  1.
         12    1    3    3    0    0  0.80969566366E+01 -0.12902328280E+00  0.19130084302E+01  0.83208746558E+01  0.00000000000E+00 0. -1.
</event>
<event>
 7    1  0.2942034E-011  0.5052886E+02  0.7816164E-02  0.1300439E+00
        -11   -1    0    0    0    0  0.00000000000E+00  0.00000000000E+00  0.45593999997E+02  0.45594000000E+02  0.51100000000E-03 0. -1.
         11   -1    0    0    0    0 -0.00000000000E+00 -0.00000000000E+00 -0.45593999997E+02  0.45594000000E+02  0.51100000000E-03 0.  1.
    9900012    2    1    2    0    0 -0.59813353696E+01 -0.24709996009E+02 -0.31730194667E+02  0.50528861677E+02  0.30000005554E+02 0.  0.
         12    1    1    2    0    0  0.59813353696E+01  0.24709996009E+02  0.31730194667E+02  0.40659138323E+02  0.00000000000E+00 0. -1.
         11    1    3    3    0    0  0.38442412767E+01 -0.12825471836E+02 -0.12371783401E+02  0.18229973768E+02  0.51100000000E-03 0.  1.
        -11    1    3    3    0    0 -0.82584262816E+01  0.38872971204E+01 -0.32194614742E+01  0.96787197499E+01  0.51100000000E-03 0. -1.
         12    1    3    3    0    0 -0.15671503648E+01 -0.15771821293E+02 -0.16138949792E+02  0.22620168159E+02  0.00000000000E+00 0. -1.
</event>
<event>
 7    1  0.2942034E-011  0.5052887E+02  0.7816164E-02  0.1300439E+00
        -11   -1    0    0    0    0  0.00000000000E+00  0.00000000000E+00  0.45593999997E+02  0.45594000000E+02  0.51100000000E-03 0.  1.
         11   -1    0    0    0    0 -0.00000000000E+00 -0.00000000000E+00 -0.45593999997E+02  0.45594000000E+02  0.51100000000E-03 0. -1.
    9900012    2    1    2    0    0 -0.36046730848E+02 -0.13346723443E+02  0.13253798905E+02  0.50528867977E+02  0.30000024702E+02 0.  0.
         12    1    1    2    0    0  0.36046730848E+02  0.13346723443E+02 -0.13253798905E+02  0.40659132023E+02  0.00000000000E+00 0. -1.
         11    1    3    3    0    0  0.21139299143E+01 -0.51730903740E+01 -0.46913464908E+01  0.72964577610E+01  0.51100000000E-03 0. -1.
        -11    1    3    3    0    0 -0.24381743099E+02 -0.27994124749E+01  0.11275134438E+02  0.27008049978E+02  0.51100000000E-03 0.  1.
         12    1    3    3    0    0 -0.13778917663E+02 -0.53742205946E+01  0.66700109573E+01  0.16224360238E+02  0.00000000000E+00 0. -1.
</event>
<event>
 7    1  0.2942034E-011  0.5052886E+02  0.7816164E-02  0.1300439E+00
        -11   -1    0    0    0    0  0.00000000000E+00  0.00000000000E+00  0.45593999997E+02  0.45594000000E+02  0.51100000000E-03 0.  1.
         11   -1    0    0    0    0 -0.00000000000E+00 -0.00000000000E+00 -0.45593999997E+02  0.45594000000E+02  0.51100000000E-03 0. -1.
    9900012    2    1    2    0    0 -0.23104971106E+02  0.31818061618E+02  0.10341027514E+02  0.50528860990E+02  0.30000003466E+02 0.  0.
         12    1    1    2    0    0  0.23104971106E+02 -0.31818061618E+02 -0.10341027514E+02  0.40659139010E+02  0.00000000000E+00 0. -1.
         11    1    3    3    0    0  0.29166852198E+01 -0.60000905828E+00  0.44155562420E+01  0.53258051719E+01  0.51100000000E-03 0. -1.
        -11    1    3    3    0    0 -0.16931786302E+02  0.30486852253E+02  0.77718801798E+01  0.35728639345E+02  0.51100000000E-03 0.  1.
        -12    1    3    3    0    0 -0.90898700246E+01  0.19312184235E+01 -0.18464089075E+01  0.94744164737E+01  0.00000000000E+00 0.  1.
</event>
<event>
 7    1  0.2942034E-011  0.5052886E+02  0.7816164E-02  0.1300439E+00
        -11   -1    0    0    0    0  0.00000000000E+00  0.00000000000E+00  0.45593999997E+02  0.45594000000E+02  0.51100000000E-03 0.  1.
         11   -1    0    0    0    0 -0.00000000000E+00 -0.00000000000E+00 -0.45593999997E+02  0.45594000000E+02  0.51100000000E-03 0. -1.
    9900012    2    1    2    0    0  0.18413556676E+02  0.60147739860E+01  0.35748128710E+02  0.50528864719E+02  0.30000014798E+02 0.  0.
         12    1    1    2    0    0 -0.18413556676E+02 -0.60147739860E+01 -0.35748128710E+02  0.40659135281E+02  0.00000000000E+00 0. -1.
         11    1    3    3    0    0  0.28500944284E+01  0.84833908458E+00 -0.11472307209E+01  0.31872960392E+01  0.51100000000E-03 0. -1.
        -11    1    3    3    0    0  0.14012303924E+02  0.14011638435E+02  0.30280415876E+02  0.36188040272E+02  0.51100000000E-03 0.  1.
        -12    1    3    3    0    0  0.15511583236E+01 -0.88452035331E+01  0.66149435550E+01  0.11153528407E+02  0.00000000000E+00 0.  1.
</event>
<event>
 7    1  0.2942034E-011  0.5052887E+02  0.7816164E-02  0.1300439E+00
        -11   -1    0    0    0    0  0.00000000000E+00  0.00000000000E+00  0.45593999997E+02  0.45594000000E+02  0.51100000000E-03 0.  1.
         11   -1    0    0    0    0 -0.00000000000E+00 -0.00000000000E+00 -0.45593999997E+02  0.45594000000E+02  0.51100000000E-03 0. -1.
    9900012    2    1    2    0    0 -0.24370834072E+02  0.27891423098E+02  0.16771882004E+02  0.50528867425E+02  0.30000023026E+02 0.  0.
         12    1    1    2    0    0  0.24370834072E+02 -0.27891423098E+02 -0.16771882004E+02  0.40659132575E+02  0.00000000000E+00 0. -1.
         11    1    3    3    0    0  0.38975532885E+01  0.97498766181E+01  0.26072973280E+01  0.10818919323E+02  0.51100000000E-03 0. -1.
        -11    1    3    3    0    0 -0.14769988616E+02  0.11916965940E+01  0.93252103641E+01  0.17508062517E+02  0.51100000000E-03 0.  1.
        -12    1    3    3    0    0 -0.13498398744E+02  0.16949849886E+02  0.48393743120E+01  0.22201885585E+02  0.00000000000E+00 0.  1.
</event>
<event>
 7    1  0.2942034E-011  0.5052885E+02  0.7816164E-02  0.1300439E+00
        -11   -1    0    0    0    0  0.00000000000E+00  0.00000000000E+00  0.45593999997E+02  0.45594000000E+02  0.51100000000E-03 0.  1.
         11   -1    0    0    0    0 -0.00000000000E+00 -0.00000000000E+00 -0.45593999997E+02  0.45594000000E+02  0.51100000000E-03 0. -1.
    9900012    2    1    2    0    0 -0.97099454900E+01 -0.16098341591E+02  0.36051724249E+02  0.50528850172E+02  0.29999970584E+02 0.  0.
         12    1    1    2    0    0  0.97099454900E+01  0.16098341591E+02 -0.36051724249E+02  0.40659149828E+02  0.00000000000E+00 0. -1.
         11    1    3    3    0    0  0.15029091492E+01  0.46444798927E+01 -0.41829672665E+00  0.48994797476E+01  0.51100000000E-03 0. -1.
        -11    1    3    3    0    0 -0.51501954005E+01 -0.14338469040E+02  0.32628438232E+02  0.36010153968E+02  0.51100000000E-03 0.  1.
        -12    1    3    3    0    0 -0.60626592387E+01 -0.64043524431E+01  0.38415827434E+01  0.96192164564E+01  0.00000000000E+00 0.  1.
</event>
<event>
 7    1  0.2942034E-011  0.5052878E+02  0.7816164E-02  0.1300439E+00
        -11   -1    0    0    0    0  0.00000000000E+00  0.00000000000E+00  0.45593999997E+02  0.45594000000E+02  0.51100000000E-03 0.  1.
         11   -1    0    0    0    0 -0.00000000000E+00 -0.00000000000E+00 -0.45593999997E+02  0.45594000000E+02  0.51100000000E-03 0. -1.
    9900012    2    1    2    0    0 -0.26545300559E+00  0.56376405519E+01  0.40265606295E+02  0.50528775873E+02  0.29999744742E+02 0.  0.
         12    1    1    2    0    0  0.26545300559E+00 -0.56376405519E+01 -0.40265606295E+02  0.40659224127E+02  0.00000000000E+00 0. -1.
         11    1    3    3    0    0  0.10970100920E+01  0.15697434744E+02  0.34471142689E+02  0.37892909195E+02  0.51100000000E-03 0. -1.
        -11    1    3    3    0    0  0.17810551771E+00 -0.23869755078E+01  0.39128189596E+01  0.45868863210E+01  0.51100000000E-03 0.  1.
         12    1    3    3    0    0 -0.15405686153E+01 -0.76728186841E+01  0.18816446465E+01  0.80489803574E+01  0.00000000000E+00 0. -1.
</event>
<event>
 7    1  0.2942034E-011  0.5052886E+02  0.7816164E-02  0.1300439E+00
        -11   -1    0    0    0    0  0.00000000000E+00  0.00000000000E+00  0.45593999997E+02  0.45594000000E+02  0.51100000000E-03 0.  1.
         11   -1    0    0    0    0 -0.00000000000E+00 -0.00000000000E+00 -0.45593999997E+02  0.45594000000E+02  0.51100000000E-03 0. -1.
    9900012    2    1    2    0    0  0.32886814653E+02  0.12465974528E+02  0.20401535042E+02  0.50528859195E+02  0.29999998009E+02 0.  0.
         12    1    1    2    0    0 -0.32886814653E+02 -0.12465974528E+02 -0.20401535042E+02  0.40659140805E+02  0.00000000000E+00 0. -1.
         11    1    3    3    0    0  0.17057620247E+02 -0.18103627457E+01  0.40244247931E+01  0.17619188884E+02  0.51100000000E-03 0. -1.
        -11    1    3    3    0    0  0.18096674485E+01  0.49982696348E+01  0.15147496484E+02  0.16053169332E+02  0.51100000000E-03 0.  1.
        -12    1    3    3    0    0  0.14019526958E+02  0.92780676387E+01  0.12296137646E+01  0.16856500978E+02  0.00000000000E+00 0.  1.
</event>
<event>
 7    1  0.2942034E-011  0.5052887E+02  0.7816164E-02  0.1300439E+00
        -11   -1    0    0    0    0  0.00000000000E+00  0.00000000000E+00  0.45593999997E+02  0.45594000000E+02  0.51100000000E-03 0.  1.
         11   -1    0    0    0    0 -0.00000000000E+00 -0.00000000000E+00 -0.45593999997E+02  0.45594000000E+02  0.51100000000E-03 0. -1.
    9900012    2    1    2    0    0 -0.14178110507E+01 -0.32811577322E+02  0.23969885054E+02  0.50528865921E+02  0.30000018454E+02 0.  0.
         12    1    1    2    0    0  0.14178110507E+01  0.32811577322E+02 -0.23969885054E+02  0.40659134079E+02  0.00000000000E+00 0. -1.
         11    1    3    3    0    0  0.28496086693E+01  0.20420420694E+01  0.65617190535E+01  0.74395135983E+01  0.51100000000E-03 0. -1.
        -11    1    3    3    0    0  0.37882578739E+01 -0.23432683196E+02  0.46965111546E+01  0.24197081575E+02  0.51100000000E-03 0.  1.
         12    1    3    3    0    0 -0.80556775939E+01 -0.11420936196E+02  0.12711654845E+02  0.18892270748E+02  0.00000000000E+00 0. -1.
</event>
<event>
 7    1  0.2942034E-011  0.5052890E+02  0.7816164E-02  0.1300439E+00
        -11   -1    0    0    0    0  0.00000000000E+00  0.00000000000E+00  0.45593999997E+02  0.45594000000E+02  0.51100000000E-03 0.  1.
         11   -1    0    0    0    0 -0.00000000000E+00 -0.00000000000E+00 -0.45593999997E+02  0.45594000000E+02  0.51100000000E-03 0. -1.
    9900012    2    1    2    0    0  0.29215954151E+02 -0.31932623966E+01  0.28096142867E+02  0.50528903284E+02  0.30000132023E+02 0.  0.
         12    1    1    2    0    0 -0.29215954151E+02  0.31932623966E+01 -0.28096142867E+02  0.40659096716E+02  0.00000000000E+00 0. -1.
         11    1    3    3    0    0 -0.61275312361E+00 -0.37711160531E+01  0.48902808344E+00  0.38517439432E+01  0.51100000000E-03 0. -1.
        -11    1    3    3    0    0  0.24143139214E+02  0.10386928320E+02  0.19933551742E+02  0.32986753953E+02  0.51100000000E-03 0.  1.
        -12    1    3    3    0    0  0.56855680609E+01 -0.98090746637E+01  0.76735630420E+01  0.13690405388E+02  0.00000000000E+00 0.  1.
</event>
<event>
 7    1  0.2942034E-011  0.5052886E+02  0.7816164E-02  0.1300439E+00
        -11   -1    0    0    0    0  0.00000000000E+00  0.00000000000E+00  0.45593999997E+02  0.45594000000E+02  0.51100000000E-03 0.  1.
         11   -1    0    0    0    0 -0.00000000000E+00 -0.00000000000E+00 -0.45593999997E+02  0.45594000000E+02  0.51100000000E-03 0. -1.
    9900012    2    1    2    0    0 -0.94243437830E+01  0.11262901826E+02  0.37914303013E+02  0.50528860975E+02  0.30000003419E+02 0.  0.
         12    1    1    2    0    0  0.94243437830E+01 -0.11262901826E+02 -0.37914303013E+02  0.40659139025E+02  0.00000000000E+00 0. -1.
         11    1    3    3    0    0 -0.96663968855E+01  0.47947058568E+00  0.64965624025E+00  0.97000605298E+01  0.51100000000E-03 0. -1.
        -11    1    3    3    0    0 -0.54069430393E+01  0.92955375910E+01  0.22087145562E+02  0.24565912388E+02  0.51100000000E-03 0.  1.
         12    1    3    3    0    0  0.56489961419E+01  0.14878936495E+01  0.15177501211E+02  0.16262888057E+02  0.00000000000E+00 0. -1.
</event>
<event>
 7    1  0.2942034E-011  0.5052887E+02  0.7816164E-02  0.1300439E+00
        -11   -1    0    0    0    0  0.00000000000E+00  0.00000000000E+00  0.45593999997E+02  0.45594000000E+02  0.51100000000E-03 0. -1.
         11   -1    0    0    0    0 -0.00000000000E+00 -0.00000000000E+00 -0.45593999997E+02  0.45594000000E+02  0.51100000000E-03 0.  1.
    9900012    2    1    2    0    0 -0.16615657041E+02 -0.36147418741E+02 -0.83933694612E+01  0.50528873209E+02  0.30000040605E+02 0.  0.
         12    1    1    2    0    0  0.16615657041E+02  0.36147418741E+02  0.83933694612E+01  0.40659126791E+02  0.00000000000E+00 0. -1.
         11    1    3    3    0    0 -0.88238659662E+01 -0.84070849528E+01  0.73495012509E+01  0.14232176815E+02  0.51100000000E-03 0. -1.
        -11    1    3    3    0    0 -0.12196781933E+02 -0.23125320437E+02 -0.14119036276E+02  0.29713450161E+02  0.51100000000E-03 0.  1.
        -12    1    3    3    0    0  0.44049908582E+01 -0.46150133505E+01 -0.16238344359E+01  0.65832462328E+01  0.00000000000E+00 0.  1.
</event>
<event>
 7    1  0.2942034E-011  0.5052886E+02  0.7816164E-02  0.1300439E+00
        -11   -1    0    0    0    0  0.00000000000E+00  0.00000000000E+00  0.45593999997E+02  0.45594000000E+02  0.51100000000E-03 0.  1.
         11   -1    0    0    0    0 -0.00000000000E+00 -0.00000000000E+00 -0.45593999997E+02  0.45594000000E+02  0.51100000000E-03 0. -1.
    9900012    2    1    2    0    0  0.17980586102E+02  0.15404442574E+02  0.33054007436E+02  0.50528859143E+02  0.29999997852E+02 0.  0.
         12    1    1    2    0    0 -0.17980586102E+02 -0.15404442574E+02 -0.33054007436E+02  0.40659140857E+02  0.00000000000E+00 0. -1.
         11    1    3    3    0    0  0.37777242061E+01 -0.30400183758E+01  0.23132667115E+01  0.53725333914E+01  0.51100000000E-03 0. -1.
        -11    1    3    3    0    0  0.20431665086E+02  0.17226090236E+02  0.25176283218E+02  0.36715614661E+02  0.51100000000E-03 0.  1.
        -12    1    3    3    0    0 -0.62288031900E+01  0.12183707141E+01  0.55644575072E+01  0.84407110913E+01  0.00000000000E+00 0.  1.
</event>
<event>
 7    1  0.2942034E-011  0.5052886E+02  0.7816164E-02  0.1300439E+00
        -11   -1    0    0    0    0  0.00000000000E+00  0.00000000000E+00  0.45593999997E+02  0.45594000000E+02  0.51100000000E-03 0.  1.
         11   -1    0    0    0    0 -0.00000000000E+00 -0.00000000000E+00 -0.45593999997E+02  0.45594000000E+02  0.51100000000E-03 0. -1.
    9900012    2    1    2    0    0 -0.87991656773E+00  0.75305427888E+01  0.39945989570E+02  0.50528863135E+02  0.30000009985E+02 0.  0.
         12    1    1    2    0    0  0.87991656773E+00 -0.75305427888E+01 -0.39945989570E+02  0.40659136865E+02  0.00000000000E+00 0. -1.
         11    1    3    3    0    0  0.66020163686E+01  0.20783615885E+00  0.11408990144E+02  0.13183128323E+02  0.51100000000E-03 0. -1.
        -11    1    3    3    0    0 -0.55372206544E+01  0.13924790566E+02  0.26002209119E+02  0.30011255958E+02  0.51100000000E-03 0.  1.
        -12    1    3    3    0    0 -0.19447122819E+01 -0.66020839359E+01  0.25347903074E+01  0.73344788539E+01  0.00000000000E+00 0.  1.
</event>
<event>
 7    1  0.2942034E-011  0.5052883E+02  0.7816164E-02  0.1300439E+00
        -11   -1    0    0    0    0  0.00000000000E+00  0.00000000000E+00  0.45593999997E+02  0.45594000000E+02  0.51100000000E-03 0.  1.
         11   -1    0    0    0    0 -0.00000000000E+00 -0.00000000000E+00 -0.45593999997E+02  0.45594000000E+02  0.51100000000E-03 0. -1.
    9900012    2    1    2    0    0  0.20726005946E+02 -0.14389767859E+02  0.31883147167E+02  0.50528833570E+02  0.29999920118E+02 0.  0.
         12    1    1    2    0    0 -0.20726005946E+02  0.14389767859E+02 -0.31883147167E+02  0.40659166430E+02  0.00000000000E+00 0. -1.
         11    1    3    3    0    0 -0.18650525938E+01  0.36914225484E+01 -0.24592957120E+01  0.48117727781E+01  0.51100000000E-03 0. -1.
        -11    1    3    3    0    0  0.10910609894E+02 -0.40376001239E+01  0.16446092235E+02  0.20144914323E+02  0.51100000000E-03 0.  1.
         12    1    3    3    0    0  0.11680448646E+02 -0.14043590284E+02  0.17896350644E+02  0.25572146468E+02  0.00000000000E+00 0. -1.
</event>
<event>
 7    1  0.2942034E-011  0.5052886E+02  0.7816164E-02  0.1300439E+00
        -11   -1    0    0    0    0  0.00000000000E+00  0.00000000000E+00  0.45593999997E+02  0.45594000000E+02  0.51100000000E-03 0. -1.
         11   -1    0    0    0    0 -0.00000000000E+00 -0.00000000000E+00 -0.45593999997E+02  0.45594000000E+02  0.51100000000E-03 0.  1.
    9900012    2    1    2    0    0  0.85818465144E+01 -0.66354006155E+01 -0.39185315230E+02  0.50528861290E+02  0.30000004378E+02 0.  0.
         12    1    1    2    0    0 -0.85818465144E+01  0.66354006155E+01  0.39185315230E+02  0.40659138710E+02  0.00000000000E+00 0. -1.
         11    1    3    3    0    0 -0.28317983619E+00 -0.35874519944E+01  0.33476404364E+01  0.49149465291E+01  0.51100000000E-03 0. -1.
        -11    1    3    3    0    0  0.58781099384E+01  0.18941124240E+00 -0.40202936342E+02  0.40630827506E+02  0.51100000000E-03 0.  1.
        -12    1    3    3    0    0  0.29869164122E+01 -0.32373598635E+01 -0.23300193244E+01  0.49830872551E+01  0.00000000000E+00 0.  1.
</event>
<event>
 7    1  0.2942034E-011  0.5052886E+02  0.7816164E-02  0.1300439E+00
        -11   -1    0    0    0    0  0.00000000000E+00  0.00000000000E+00  0.45593999997E+02  0.45594000000E+02  0.51100000000E-03 0.  1.
         11   -1    0    0    0    0 -0.00000000000E+00 -0.00000000000E+00 -0.45593999997E+02  0.45594000000E+02  0.51100000000E-03 0. -1.
    9900012    2    1    2    0    0 -0.33591962388E+02 -0.21206919031E+02  0.86609466881E+01  0.50528863887E+02  0.30000012272E+02 0.  0.
         12    1    1    2    0    0  0.33591962388E+02  0.21206919031E+02 -0.86609466881E+01  0.40659136113E+02  0.00000000000E+00 0. -1.
         11    1    3    3    0    0 -0.15110611307E+02 -0.84084456084E-01  0.33636883839E+01  0.15480699082E+02  0.51100000000E-03 0. -1.
        -11    1    3    3    0    0  0.21666985503E+00 -0.97777386264E+01 -0.48747640690E+01  0.10927691589E+02  0.51100000000E-03 0.  1.
        -12    1    3    3    0    0 -0.18698020937E+02 -0.11345095949E+02  0.10172022373E+02  0.24120473217E+02  0.00000000000E+00 0.  1.
</event>
<event>
 7    1  0.2942034E-011  0.5052886E+02  0.7816164E-02  0.1300439E+00
        -11   -1    0    0    0    0  0.00000000000E+00  0.00000000000E+00  0.45593999997E+02  0.45594000000E+02  0.51100000000E-03 0.  1.
         11   -1    0    0    0    0 -0.00000000000E+00 -0.00000000000E+00 -0.45593999997E+02  0.45594000000E+02  0.51100000000E-03 0. -1.
    9900012    2    1    2    0    0  0.36910586148E+01  0.12171654710E+02  0.38618550911E+02  0.50528861217E+02  0.30000004155E+02 0.  0.
         12    1    1    2    0    0 -0.36910586148E+01 -0.12171654710E+02 -0.38618550911E+02  0.40659138783E+02  0.00000000000E+00 0. -1.
         11    1    3    3    0    0  0.65969075601E+01  0.64555889372E+01  0.67423288667E+01  0.11430346307E+02  0.51100000000E-03 0. -1.
        -11    1    3    3    0    0 -0.52630174973E+01 -0.72508997035E+01  0.90128677524E+01  0.12708528045E+02  0.51100000000E-03 0.  1.
        -12    1    3    3    0    0  0.23571685520E+01  0.12966965477E+02  0.22863354292E+02  0.26389986865E+02  0.00000000000E+00 0.  1.
</event>
<event>
 7    1  0.2942034E-011  0.5052886E+02  0.7816164E-02  0.1300439E+00
        -11   -1    0    0    0    0  0.00000000000E+00  0.00000000000E+00  0.45593999997E+02  0.45594000000E+02  0.51100000000E-03 0. -1.
         11   -1    0    0    0    0 -0.00000000000E+00 -0.00000000000E+00 -0.45593999997E+02  0.45594000000E+02  0.51100000000E-03 0.  1.
    9900012    2    1    2    0    0 -0.21234729281E+02  0.63977966301E+01 -0.34078144309E+02  0.50528862664E+02  0.30000008554E+02 0.  0.
         12    1    1    2    0    0  0.21234729281E+02 -0.63977966301E+01  0.34078144309E+02  0.40659137336E+02  0.00000000000E+00 0. -1.
         11    1    3    3    0    0  0.20872593000E+01 -0.45794227966E+01 -0.52407929144E+01  0.72659256236E+01  0.51100000000E-03 0. -1.
        -11    1    3    3    0    0 -0.21974991434E+02  0.11681953368E+02 -0.31531373705E+02  0.40169588136E+02  0.51100000000E-03 0.  1.
        -12    1    3    3    0    0 -0.13469971467E+01 -0.70473394168E+00  0.26940223100E+01  0.30933489051E+01  0.00000000000E+00 0.  1.
</event>
<event>
 7    1  0.2942034E-011  0.5052886E+02  0.7816164E-02  0.1300439E+00
        -11   -1    0    0    0    0  0.00000000000E+00  0.00000000000E+00  0.45593999997E+02  0.45594000000E+02  0.51100000000E-03 0.  1.
         11   -1    0    0    0    0 -0.00000000000E+00 -0.00000000000E+00 -0.45593999997E+02  0.45594000000E+02  0.51100000000E-03 0. -1.
    9900012    2    1    2    0    0  0.30536952065E+02  0.17727301005E+02  0.20159441742E+02  0.50528859162E+02  0.29999997909E+02 0.  0.
         12    1    1    2    0    0 -0.30536952065E+02 -0.17727301005E+02 -0.20159441742E+02  0.40659140838E+02  0.00000000000E+00 0. -1.
         11    1    3    3    0    0  0.26556441859E+02  0.18644632734E+02  0.16580032672E+02  0.36438501858E+02  0.51100000000E-03 0. -1.
        -11    1    3    3    0    0  0.17306437675E+01  0.14757770424E+01  0.81502912203E+01  0.84616956318E+01  0.51100000000E-03 0.  1.
         12    1    3    3    0    0  0.22498664384E+01 -0.23931087720E+01 -0.45708821502E+01  0.56286616719E+01  0.00000000000E+00 0. -1.
</event>
<event>
 7    1  0.2942034E-011  0.5052884E+02  0.7816164E-02  0.1300439E+00
        -11   -1    0    0    0    0  0.00000000000E+00  0.00000000000E+00  0.45593999997E+02  0.45594000000E+02  0.51100000000E-03 0. -1.
         11   -1    0    0    0    0 -0.00000000000E+00 -0.00000000000E+00 -0.45593999997E+02  0.45594000000E+02  0.51100000000E-03 0.  1.
    9900012    2    1    2    0    0 -0.17868814631E+02 -0.13958581644E+02 -0.33749534702E+02  0.50528835837E+02  0.29999927009E+02 0.  0.
         12    1    1    2    0    0  0.17868814631E+02  0.13958581644E+02  0.33749534702E+02  0.40659164163E+02  0.00000000000E+00 0. -1.
         11    1    3    3    0    0 -0.57640429138E+01  0.45120029162E+01 -0.12562551524E+02  0.14539603230E+02  0.51100000000E-03 0. -1.
        -11    1    3    3    0    0 -0.15147450832E+02 -0.19724109998E+02 -0.21229349814E+02  0.32698181535E+02  0.51100000000E-03 0.  1.
        -12    1    3    3    0    0  0.30426791153E+01  0.12535254376E+01  0.42366635936E-01  0.32910510712E+01  0.00000000000E+00 0.  1.
</event>
<event>
 7    1  0.2942034E-011  0.5052884E+02  0.7816164E-02  0.1300439E+00
        -11   -1    0    0    0    0  0.00000000000E+00  0.00000000000E+00  0.45593999997E+02  0.45594000000E+02  0.51100000000E-03 0.  1.
         11   -1    0    0    0    0 -0.00000000000E+00 -0.00000000000E+00 -0.45593999997E+02  0.45594000000E+02  0.51100000000E-03 0. -1.
    9900012    2    1    2    0    0 -0.16042315728E+02 -0.37712668315E+01  0.37169727723E+02  0.50528843510E+02  0.29999950334E+02 0.  0.
         12    1    1    2    0    0  0.16042315728E+02  0.37712668315E+01 -0.37169727723E+02  0.40659156490E+02  0.00000000000E+00 0. -1.
         11    1    3    3    0    0 -0.17462842622E+02 -0.79973711616E+01  0.14330630982E+02  0.23964052298E+02  0.51100000000E-03 0. -1.
        -11    1    3    3    0    0  0.27170150537E+01 -0.35741417091E+01  0.14013248117E+02  0.14714883038E+02  0.51100000000E-03 0.  1.
         12    1    3    3    0    0 -0.12964881602E+01  0.78002460393E+01  0.88258486241E+01  0.11849908175E+02  0.00000000000E+00 0. -1.
</event>
<event>
 7    1  0.2942034E-011  0.5052887E+02  0.7816164E-02  0.1300439E+00
        -11   -1    0    0    0    0  0.00000000000E+00  0.00000000000E+00  0.45593999997E+02  0.45594000000E+02  0.51100000000E-03 0. -1.
         11   -1    0    0    0    0 -0.00000000000E+00 -0.00000000000E+00 -0.45593999997E+02  0.45594000000E+02  0.51100000000E-03 0.  1.
    9900012    2    1    2    0    0 -0.24127073964E+01 -0.25694442538E+02  0.31418777402E+02  0.50528866859E+02  0.30000021306E+02 0.  0.
         12    1    1    2    0    0  0.24127073964E+01  0.25694442538E+02 -0.31418777402E+02  0.40659133141E+02  0.00000000000E+00 0. -1.
         11    1    3    3    0    0  0.75728044242E+01 -0.83205132098E+01  0.26192862913E+02  0.28506918016E+02  0.51100000000E-03 0. -1.
        -11    1    3    3    0    0 -0.30240083141E+00 -0.35295728182E+01 -0.14877515690E+01  0.38422305415E+01  0.51100000000E-03 0.  1.
         12    1    3    3    0    0 -0.96831109892E+01 -0.13844356510E+02  0.67136660578E+01  0.18179718302E+02  0.00000000000E+00 0. -1.
</event>
<event>
 7    1  0.2942034E-011  0.5052886E+02  0.7816164E-02  0.1300439E+00
        -11   -1    0    0    0    0  0.00000000000E+00  0.00000000000E+00  0.45593999997E+02  0.45594000000E+02  0.51100000000E-03 0.  1.
         11   -1    0    0    0    0 -0.00000000000E+00 -0.00000000000E+00 -0.45593999997E+02  0.45594000000E+02  0.51100000000E-03 0. -1.
    9900012    2    1    2    0    0  0.73176392374E+01  0.17449369791E+02  0.35988012206E+02  0.50528863602E+02  0.30000011405E+02 0.  0.
         12    1    1    2    0    0 -0.73176392374E+01 -0.17449369791E+02 -0.35988012206E+02  0.40659136398E+02  0.00000000000E+00 0. -1.
         11    1    3    3    0    0  0.23442983472E+01  0.31338641142E+01 -0.42003698124E+01  0.57410753217E+01  0.51100000000E-03 0. -1.
        -11    1    3    3    0    0 -0.19146290417E+01  0.64042134595E+01  0.27619294815E+02  0.28416635986E+02  0.51100000000E-03 0.  1.
         12    1    3    3    0    0  0.68879699319E+01  0.79112922174E+01  0.12569087203E+02  0.16371152294E+02  0.00000000000E+00 0. -1.
</event>
<event>
 7    1  0.2942034E-011  0.5052883E+02  0.7816164E-02  0.1300439E+00
        -11   -1    0    0    0    0  0.00000000000E+00  0.00000000000E+00  0.45593999997E+02  0.45594000000E+02  0.51100000000E-03 0. -1.
         11   -1    0    0    0    0 -0.00000000000E+00 -0.00000000000E+00 -0.45593999997E+02  0.45594000000E+02  0.51100000000E-03 0.  1.
    9900012    2    1    2    0    0 -0.30350576089E+02  0.22457595736E+02 -0.15088643524E+02  0.50528828358E+02  0.29999904278E+02 0.  0.
         12    1    1    2    0    0  0.30350576089E+02 -0.22457595736E+02  0.15088643524E+02  0.40659171642E+02  0.00000000000E+00 0. -1.
         11    1    3    3    0    0  0.57666464827E+00 -0.36278289848E+01  0.30416728939E+01  0.47692200111E+01  0.51100000000E-03 0. -1.
        -11    1    3    3    0    0 -0.22793454943E+02  0.24920549430E+02 -0.13943116689E+02  0.36537458524E+02  0.51100000000E-03 0.  1.
         12    1    3    3    0    0 -0.81337857944E+01  0.11648752914E+01 -0.41871997289E+01  0.92221498233E+01  0.00000000000E+00 0. -1.
</event>
<event>
 7    1  0.2942034E-011  0.5052886E+02  0.7816164E-02  0.1300439E+00
        -11   -1    0    0    0    0  0.00000000000E+00  0.00000000000E+00  0.45593999997E+02  0.45594000000E+02  0.51100000000E-03 0.  1.
         11   -1    0    0    0    0 -0.00000000000E+00 -0.00000000000E+00 -0.45593999997E+02  0.45594000000E+02  0.51100000000E-03 0. -1.
    9900012    2    1    2    0    0  0.22519316710E+02 -0.11618533063E+02  0.31797103781E+02  0.50528859029E+02  0.29999997506E+02 0.  0.
         12    1    1    2    0    0 -0.22519316710E+02  0.11618533063E+02 -0.31797103781E+02  0.40659140971E+02  0.00000000000E+00 0. -1.
         11    1    3    3    0    0  0.18612444771E+02  0.55670214437E+00  0.30026196567E+01  0.18861302783E+02  0.51100000000E-03 0. -1.
        -11    1    3    3    0    0  0.38342685091E+01 -0.11825347748E+02  0.25659639314E+02  0.28512410532E+02  0.51100000000E-03 0.  1.
         12    1    3    3    0    0  0.72603430023E-01 -0.34988745908E+00  0.31348448109E+01  0.31551457146E+01  0.00000000000E+00 0. -1.
</event>
<event>
 7    1  0.2942034E-011  0.5052886E+02  0.7816164E-02  0.1300439E+00
        -11   -1    0    0    0    0  0.00000000000E+00  0.00000000000E+00  0.45593999997E+02  0.45594000000E+02  0.51100000000E-03 0. -1.
         11   -1    0    0    0    0 -0.00000000000E+00 -0.00000000000E+00 -0.45593999997E+02  0.45594000000E+02  0.51100000000E-03 0.  1.
    9900012    2    1    2    0    0  0.39507459697E+02  0.21327482005E+01 -0.93689693322E+01  0.50528861138E+02  0.30000003916E+02 0.  0.
         12    1    1    2    0    0 -0.39507459697E+02 -0.21327482005E+01  0.93689693322E+01  0.40659138862E+02  0.00000000000E+00 0. -1.
         11    1    3    3    0    0  0.22830403117E+01  0.47886715451E+00  0.29121668478E+01  0.37312602197E+01  0.51100000000E-03 0. -1.
        -11    1    3    3    0    0  0.32427799240E+02 -0.75484637266E+01 -0.14282648193E+02  0.36228931917E+02  0.51100000000E-03 0.  1.
        -12    1    3    3    0    0  0.47966201459E+01  0.92023447726E+01  0.20015120128E+01  0.10568669002E+02  0.00000000000E+00 0.  1.
</event>
<event>
 7    1  0.2942034E-011  0.5052886E+02  0.7816164E-02  0.1300439E+00
        -11   -1    0    0    0    0  0.00000000000E+00  0.00000000000E+00  0.45593999997E+02  0.45594000000E+02  0.51100000000E-03 0. -1.
         11   -1    0    0    0    0 -0.00000000000E+00 -0.00000000000E+00 -0.45593999997E+02  0.45594000000E+02  0.51100000000E-03 0.  1.
    9900012    2    1    2    0    0  0.17496872209E+02  0.30266719960E+02 -0.20759351071E+02  0.50528861653E+02  0.30000005480E+02 0.  0.
         12    1    1    2    0    0 -0.17496872209E+02 -0.30266719960E+02  0.20759351071E+02  0.40659138347E+02  0.00000000000E+00 0. -1.
         11    1    3    3    0    0 -0.10081913977E+01  0.23707471190E+02 -0.49221483786E+01  0.24234029484E+02  0.51100000000E-03 0. -1.
        -11    1    3    3    0    0  0.17466427115E+02  0.76669356835E+01 -0.13021654962E+02  0.23095919058E+02  0.51100000000E-03 0.  1.
         12    1    3    3    0    0  0.10386364922E+01 -0.11076869139E+01 -0.28155477309E+01  0.31989131103E+01  0.00000000000E+00 0. -1.
</event>
<event>
 7    1  0.2942034E-011  0.5052886E+02  0.7816164E-02  0.1300439E+00
        -11   -1    0    0    0    0  0.00000000000E+00  0.00000000000E+00  0.45593999997E+02  0.45594000000E+02  0.51100000000E-03 0.  1.
         11   -1    0    0    0    0 -0.00000000000E+00 -0.00000000000E+00 -0.45593999997E+02  0.45594000000E+02  0.51100000000E-03 0. -1.
    9900012    2    1    2    0    0 -0.54210407953E+01  0.39514924998E+02  0.78961176971E+01  0.50528860122E+02  0.30000000828E+02 0.  0.
         12    1    1    2    0    0  0.54210407953E+01 -0.39514924998E+02 -0.78961176971E+01  0.40659139878E+02  0.00000000000E+00 0. -1.
         11    1    3    3    0    0  0.53123036757E+01  0.17245725658E+02  0.91002957260E+01  0.20210170865E+02  0.51100000000E-03 0. -1.
        -11    1    3    3    0    0 -0.13628551252E+02  0.16749390720E+02  0.42833831330E+01  0.22014242436E+02  0.51100000000E-03 0.  1.
         12    1    3    3    0    0  0.28952067808E+01  0.55198086200E+01 -0.54875611618E+01  0.83044468214E+01  0.00000000000E+00 0. -1.
</event>
<event>
 7    1  0.2942034E-011  0.5052887E+02  0.7816164E-02  0.1300439E+00
        -11   -1    0    0    0    0  0.00000000000E+00  0.00000000000E+00  0.45593999997E+02  0.45594000000E+02  0.51100000000E-03 0.  1.
         11   -1    0    0    0    0 -0.00000000000E+00 -0.00000000000E+00 -0.45593999997E+02  0.45594000000E+02  0.51100000000E-03 0. -1.
    9900012    2    1    2    0    0 -0.32617630264E+02  0.18506801596E+02  0.15708382673E+02  0.50528870698E+02  0.30000032974E+02 0.  0.
         12    1    1    2    0    0  0.32617630264E+02 -0.18506801596E+02 -0.15708382673E+02  0.40659129302E+02  0.00000000000E+00 0. -1.
         11    1    3    3    0    0 -0.14839217911E+00  0.46814779389E+01  0.33296125361E+01  0.57467013001E+01  0.51100000000E-03 0. -1.
        -11    1    3    3    0    0 -0.33973318311E+02  0.16550518695E+02  0.68049450105E+01  0.38398089835E+02  0.51100000000E-03 0.  1.
        -12    1    3    3    0    0  0.15040802264E+01 -0.27251950372E+01  0.55738251267E+01  0.63840795626E+01  0.00000000000E+00 0.  1.
</event>
<event>
 7    1  0.2942034E-011  0.5052878E+02  0.7816164E-02  0.1300439E+00
        -11   -1    0    0    0    0  0.00000000000E+00  0.00000000000E+00  0.45593999997E+02  0.45594000000E+02  0.51100000000E-03 0.  1.
         11   -1    0    0    0    0 -0.00000000000E+00 -0.00000000000E+00 -0.45593999997E+02  0.45594000000E+02  0.51100000000E-03 0. -1.
    9900012    2    1    2    0    0  0.37307353365E+01 -0.31557061364E+02  0.25365448371E+02  0.50528776211E+02  0.29999745771E+02 0.  0.
         12    1    1    2    0    0 -0.37307353365E+01  0.31557061364E+02 -0.25365448371E+02  0.40659223789E+02  0.00000000000E+00 0. -1.
         11    1    3    3    0    0  0.81288150115E+01 -0.78778661081E+01 -0.39293243306E+01  0.11982403676E+02  0.51100000000E-03 0. -1.
        -11    1    3    3    0    0 -0.89302384539E+00 -0.11506192235E+02  0.18967294677E+02  0.22202437231E+02  0.51100000000E-03 0.  1.
         12    1    3    3    0    0 -0.35050558296E+01 -0.12173003020E+02  0.10327478024E+02  0.16343935304E+02  0.00000000000E+00 0. -1.
</event>
<event>
 7    1  0.2942034E-011  0.5052884E+02  0.7816164E-02  0.1300439E+00
        -11   -1    0    0    0    0  0.00000000000E+00  0.00000000000E+00  0.45593999997E+02  0.45594000000E+02  0.51100000000E-03 0. -1.
         11   -1    0    0    0    0 -0.00000000000E+00 -0.00000000000E+00 -0.45593999997E+02  0.45594000000E+02  0.51100000000E-03 0.  1.
    9900012    2    1    2    0    0 -0.11583085470E+02  0.23721567296E+01 -0.38902082113E+02  0.50528843722E+02  0.29999950976E+02 0.  0.
         12    1    1    2    0    0  0.11583085470E+02 -0.23721567296E+01  0.38902082113E+02  0.40659156278E+02  0.00000000000E+00 0. -1.
         11    1    3    3    0    0  0.37065759566E+01  0.72856761576E+01 -0.23323725738E+01  0.85005731853E+01  0.51100000000E-03 0. -1.
        -11    1    3    3    0    0 -0.10548566612E+02 -0.21939904714E+01 -0.34566982543E+02  0.36207211079E+02  0.51100000000E-03 0.  1.
        -12    1    3    3    0    0 -0.47410948139E+01 -0.27195289565E+01 -0.20027269963E+01  0.58210594570E+01  0.00000000000E+00 0.  1.
</event>
<event>
 7    1  0.2942034E-011  0.5052888E+02  0.7816164E-02  0.1300439E+00
        -11   -1    0    0    0    0  0.00000000000E+00  0.00000000000E+00  0.45593999997E+02  0.45594000000E+02  0.51100000000E-03 0.  1.
         11   -1    0    0    0    0 -0.00000000000E+00 -0.00000000000E+00 -0.45593999997E+02  0.45594000000E+02  0.51100000000E-03 0. -1.
    9900012    2    1    2    0    0  0.25549150123E+02  0.16825057770E+02  0.26782879116E+02  0.50528877350E+02  0.30000053192E+02 0.  0.
         12    1    1    2    0    0 -0.25549150123E+02 -0.16825057770E+02 -0.26782879116E+02  0.40659122650E+02  0.00000000000E+00 0. -1.
         11    1    3    3    0    0  0.97207626940E+01 -0.81213602553E+00 -0.11853939481E+01  0.98263905555E+01  0.51100000000E-03 0. -1.
        -11    1    3    3    0    0  0.99829001550E+01  0.10113560812E+02  0.27744709663E+02  0.31172284523E+02  0.51100000000E-03 0.  1.
        -12    1    3    3    0    0  0.58454872740E+01  0.75236329833E+01  0.22356340057E+00  0.95302022713E+01  0.00000000000E+00 0.  1.
</event>
<event>
 7    1  0.2942034E-011  0.5052886E+02  0.7816164E-02  0.1300439E+00
        -11   -1    0    0    0    0  0.00000000000E+00  0.00000000000E+00  0.45593999997E+02  0.45594000000E+02  0.51100000000E-03 0.  1.
         11   -1    0    0    0    0 -0.00000000000E+00 -0.00000000000E+00 -0.45593999997E+02  0.45594000000E+02  0.51100000000E-03 0. -1.
    9900012    2    1    2    0    0  0.57889913633E+01 -0.31697511720E+02  0.24797603708E+02  0.50528858101E+02  0.29999994685E+02 0.  0.
         12    1    1    2    0    0 -0.57889913633E+01  0.31697511720E+02 -0.24797603708E+02  0.40659141899E+02  0.00000000000E+00 0. -1.
         11    1    3    3    0    0  0.12691988793E+02 -0.28131609349E+02  0.17474414828E+02  0.35465887807E+02  0.51100000000E-03 0. -1.
        -11    1    3    3    0    0 -0.19368109138E+01 -0.32334891044E+01  0.90428838714E+01  0.97969606143E+01  0.51100000000E-03 0.  1.
         12    1    3    3    0    0 -0.49661865155E+01 -0.33241326663E+00 -0.17196949916E+01  0.52660096801E+01  0.00000000000E+00 0. -1.
</event>
<event>
 7    1  0.2942034E-011  0.5052887E+02  0.7816164E-02  0.1300439E+00
        -11   -1    0    0    0    0  0.00000000000E+00  0.00000000000E+00  0.45593999997E+02  0.45594000000E+02  0.51100000000E-03 0.  1.
         11   -1    0    0    0    0 -0.00000000000E+00 -0.00000000000E+00 -0.45593999997E+02  0.45594000000E+02  0.51100000000E-03 0. -1.
    9900012    2    1    2    0    0  0.33567580030E+02 -0.11683448179E+02 -0.19745369681E+02  0.50528868009E+02  0.30000024801E+02 0.  0.
         12    1    1    2    0    0 -0.33567580030E+02  0.11683448179E+02  0.19745369681E+02  0.40659131991E+02  0.00000000000E+00 0. -1.
         11    1    3    3    0    0  0.11192228024E+02 -0.61083123977E+01 -0.17667541063E+02  0.21788057645E+02  0.51100000000E-03 0. -1.
        -11    1    3    3    0    0  0.13519268446E+02  0.30537152046E+01  0.47064154365E+01  0.14637149394E+02  0.51100000000E-03 0.  1.
         12    1    3    3    0    0  0.88560835608E+01 -0.86288509859E+01 -0.67842440546E+01  0.14103660970E+02  0.00000000000E+00 0. -1.
</event>
<event>
 7    1  0.2942034E-011  0.5052886E+02  0.7816164E-02  0.1300439E+00
        -11   -1    0    0    0    0  0.00000000000E+00  0.00000000000E+00  0.45593999997E+02  0.45594000000E+02  0.51100000000E-03 0. -1.
         11   -1    0    0    0    0 -0.00000000000E+00 -0.00000000000E+00 -0.45593999997E+02  0.45594000000E+02  0.51100000000E-03 0.  1.
    9900012    2    1    2    0    0  0.26157565062E+02 -0.13086345623E+02 -0.28243494327E+02  0.50528860516E+02  0.30000002026E+02 0.  0.
         12    1    1    2    0    0 -0.26157565062E+02  0.13086345623E+02  0.28243494327E+02  0.40659139484E+02  0.00000000000E+00 0. -1.
         11    1    3    3    0    0  0.29017864373E+01 -0.34157063888E+01 -0.10867332484E+02  0.11755268191E+02  0.51100000000E-03 0. -1.
        -11    1    3    3    0    0  0.26145170261E+02 -0.17347029288E+01 -0.13607986253E+02  0.29525521373E+02  0.51100000000E-03 0.  1.
        -12    1    3    3    0    0 -0.28893916360E+01 -0.79359363052E+01 -0.37681755903E+01  0.92480709527E+01  0.00000000000E+00 0.  1.
</event>
<event>
 7    1  0.2942034E-011  0.5052888E+02  0.7816164E-02  0.1300439E+00
        -11   -1    0    0    0    0  0.00000000000E+00  0.00000000000E+00  0.45593999997E+02  0.45594000000E+02  0.51100000000E-03 0.  1.
         11   -1    0    0    0    0 -0.00000000000E+00 -0.00000000000E+00 -0.45593999997E+02  0.45594000000E+02  0.51100000000E-03 0. -1.
    9900012    2    1    2    0    0 -0.34720807981E+02 -0.18557800732E+02 -0.10160587138E+02  0.50528880410E+02  0.30000062493E+02 0.  0.
         12    1    1    2    0    0  0.34720807981E+02  0.18557800732E+02  0.10160587138E+02  0.40659119590E+02  0.00000000000E+00 0. -1.
         11    1    3    3    0    0 -0.36508313500E+02 -0.20675988228E+02 -0.14199077345E+02  0.44294099399E+02  0.51100000000E-03 0. -1.
        -11    1    3    3    0    0  0.11369697533E+01  0.21587946547E+01  0.32139777097E+00  0.24609736628E+01  0.51100000000E-03 0.  1.
         12    1    3    3    0    0  0.65053576586E+00 -0.40607158460E-01  0.37170924360E+01  0.37738073482E+01  0.00000000000E+00 0. -1.
</event>
<event>
 7    1  0.2942034E-011  0.5052889E+02  0.7816164E-02  0.1300439E+00
        -11   -1    0    0    0    0  0.00000000000E+00  0.00000000000E+00  0.45593999997E+02  0.45594000000E+02  0.51100000000E-03 0.  1.
         11   -1    0    0    0    0 -0.00000000000E+00 -0.00000000000E+00 -0.45593999997E+02  0.45594000000E+02  0.51100000000E-03 0. -1.
    9900012    2    1    2    0    0  0.25760905783E+02  0.24919338027E+02  0.19198059120E+02  0.50528890953E+02  0.30000094541E+02 0.  0.
         12    1    1    2    0    0 -0.25760905783E+02 -0.24919338027E+02 -0.19198059120E+02  0.40659109047E+02  0.00000000000E+00 0. -1.
         11    1    3    3    0    0  0.22847089762E+02  0.18487710051E+02  0.19351019241E+02  0.35188732280E+02  0.51100000000E-03 0. -1.
        -11    1    3    3    0    0  0.76915211345E-01 -0.62376453047E+00  0.57059774647E+01  0.57404858007E+01  0.51100000000E-03 0.  1.
         12    1    3    3    0    0  0.28369008102E+01  0.70553925064E+01 -0.58589375860E+01  0.95996728727E+01  0.00000000000E+00 0. -1.
</event>
<event>
 7    1  0.2942034E-011  0.5052886E+02  0.7816164E-02  0.1300439E+00
        -11   -1    0    0    0    0  0.00000000000E+00  0.00000000000E+00  0.45593999997E+02  0.45594000000E+02  0.51100000000E-03 0.  1.
         11   -1    0    0    0    0 -0.00000000000E+00 -0.00000000000E+00 -0.45593999997E+02  0.45594000000E+02  0.51100000000E-03 0. -1.
    9900012    2    1    2    0    0 -0.14775245692E+02 -0.13250505290E+02  0.35486356390E+02  0.50528864919E+02  0.30000015409E+02 0.  0.
         12    1    1    2    0    0  0.14775245692E+02  0.13250505290E+02 -0.35486356390E+02  0.40659135081E+02  0.00000000000E+00 0. -1.
         11    1    3    3    0    0  0.56044678169E+01  0.14777200189E+01  0.99190458671E+01  0.11488306539E+02  0.51100000000E-03 0. -1.
        -11    1    3    3    0    0 -0.15035492903E+02 -0.14967750825E+02  0.26133665382E+02  0.33661076604E+02  0.51100000000E-03 0.  1.
         12    1    3    3    0    0 -0.53442206051E+01  0.23952551656E+00 -0.56635485905E+00  0.53794817758E+01  0.00000000000E+00 0. -1.
</event>
<event>
 7    1  0.2942034E-011  0.5052884E+02  0.7816164E-02  0.1300439E+00
        -11   -1    0    0    0    0  0.00000000000E+00  0.00000000000E+00  0.45593999997E+02  0.45594000000E+02  0.51100000000E-03 0. -1.
         11   -1    0    0    0    0 -0.00000000000E+00 -0.00000000000E+00 -0.45593999997E+02  0.45594000000E+02  0.51100000000E-03 0.  1.
    9900012    2    1    2    0    0  0.15623867829E+02  0.21479429807E+02 -0.30784669588E+02  0.50528843191E+02  0.29999949363E+02 0.  0.
         12    1    1    2    0    0 -0.15623867829E+02 -0.21479429807E+02  0.30784669588E+02  0.40659156809E+02  0.00000000000E+00 0. -1.
         11    1    3    3    0    0  0.17264398274E+02  0.18083191923E+02 -0.24742269903E+02  0.35174439556E+02  0.51100000000E-03 0. -1.
        -11    1    3    3    0    0  0.43049800091E+01 -0.24638574054E+01  0.14669292828E+00  0.49623548109E+01  0.51100000000E-03 0.  1.
         12    1    3    3    0    0 -0.59455104548E+01  0.58600952897E+01 -0.61890926139E+01  0.10392048824E+02  0.00000000000E+00 0. -1.
</event>
<event>
 7    1  0.2942034E-011  0.5052886E+02  0.7816164E-02  0.1300439E+00
        -11   -1    0    0    0    0  0.00000000000E+00  0.00000000000E+00  0.45593999997E+02  0.45594000000E+02  0.51100000000E-03 0.  1.
         11   -1    0    0    0    0 -0.00000000000E+00 -0.00000000000E+00 -0.45593999997E+02  0.45594000000E+02  0.51100000000E-03 0. -1.
    9900012    2    1    2    0    0 -0.18466839810E+02 -0.30039119665E+02  0.20243334823E+02  0.50528862189E+02  0.30000007109E+02 0.  0.
         12    1    1    2    0    0  0.18466839810E+02  0.30039119665E+02 -0.20243334823E+02  0.40659137811E+02  0.00000000000E+00 0. -1.
         11    1    3    3    0    0 -0.10983909681E+02 -0.25193408224E+02  0.10934897930E+02  0.29579149461E+02  0.51100000000E-03 0.  1.
        -11    1    3    3    0    0  0.38060457105E+01  0.24543169469E+01 -0.11841350968E+00  0.45303065732E+01  0.51100000000E-03 0. -1.
         12    1    3    3    0    0 -0.11288975840E+02 -0.73000283871E+01  0.94268504025E+01  0.16419406155E+02  0.00000000000E+00 0. -1.
</event>
<event>
 7    1  0.2942034E-011  0.5052885E+02  0.7816164E-02  0.1300439E+00
        -11   -1    0    0    0    0  0.00000000000E+00  0.00000000000E+00  0.45593999997E+02  0.45594000000E+02  0.51100000000E-03 0.  1.
         11   -1    0    0    0    0 -0.00000000000E+00 -0.00000000000E+00 -0.45593999997E+02  0.45594000000E+02  0.51100000000E-03 0. -1.
    9900012    2    1    2    0    0 -0.32405961228E+02 -0.17025333992E+02  0.17696265916E+02  0.50528854066E+02  0.29999982420E+02 0.  0.
         12    1    1    2    0    0  0.32405961228E+02  0.17025333992E+02 -0.17696265916E+02  0.40659145934E+02  0.00000000000E+00 0. -1.
         11    1    3    3    0    0 -0.99131448197E+01 -0.19412984382E+02  0.10170319563E+02  0.24053477983E+02  0.51100000000E-03 0. -1.
        -11    1    3    3    0    0 -0.11107150604E+02  0.37003183516E+01  0.92039910096E+01  0.14892098617E+02  0.51100000000E-03 0.  1.
         12    1    3    3    0    0 -0.11385665805E+02 -0.13126679623E+01 -0.16780446562E+01  0.11583277466E+02  0.00000000000E+00 0. -1.
</event>
<event>
 7    1  0.2942034E-011  0.5052886E+02  0.7816164E-02  0.1300439E+00
        -11   -1    0    0    0    0  0.00000000000E+00  0.00000000000E+00  0.45593999997E+02  0.45594000000E+02  0.51100000000E-03 0.  1.
         11   -1    0    0    0    0 -0.00000000000E+00 -0.00000000000E+00 -0.45593999997E+02  0.45594000000E+02  0.51100000000E-03 0. -1.
    9900012    2    1    2    0    0  0.23565901308E+02 -0.12812638043E+02  0.30555691665E+02  0.50528859684E+02  0.29999999496E+02 0.  0.
         12    1    1    2    0    0 -0.23565901308E+02  0.12812638043E+02 -0.30555691665E+02  0.40659140316E+02  0.00000000000E+00 0. -1.
         11    1    3    3    0    0  0.10141517997E+02  0.86040071633E+01  0.11467728788E+02  0.17560983183E+02  0.51100000000E-03 0. -1.
        -11    1    3    3    0    0  0.27366356521E+01 -0.66749351030E+01  0.10737703744E+02  0.12936081914E+02  0.51100000000E-03 0.  1.
         12    1    3    3    0    0  0.10687747660E+02 -0.14741710103E+02  0.83502591322E+01  0.20031794587E+02  0.00000000000E+00 0. -1.
</event>
<event>
 7    1  0.2942034E-011  0.5052886E+02  0.7816164E-02  0.1300439E+00
        -11   -1    0    0    0    0  0.00000000000E+00  0.00000000000E+00  0.45593999997E+02  0.45594000000E+02  0.51100000000E-03 0. -1.
         11   -1    0    0    0    0 -0.00000000000E+00 -0.00000000000E+00 -0.45593999997E+02  0.45594000000E+02  0.51100000000E-03 0.  1.
    9900012    2    1    2    0    0  0.91439200430E+01 -0.31195684578E+02 -0.24420973614E+02  0.50528856350E+02  0.29999989362E+02 0.  0.
         12    1    1    2    0    0 -0.91439200430E+01  0.31195684578E+02  0.24420973614E+02  0.40659143650E+02  0.00000000000E+00 0. -1.
         11    1    3    3    0    0  0.18059782692E+02 -0.16543996939E+02 -0.21252772356E+02  0.32427456247E+02  0.51100000000E-03 0. -1.
        -11    1    3    3    0    0 -0.78578779038E+01 -0.14529041030E+02 -0.36752657737E+01  0.16921786465E+02  0.51100000000E-03 0.  1.
         12    1    3    3    0    0 -0.10579847456E+01 -0.12264660986E+00  0.50706451493E+00  0.11796136381E+01  0.00000000000E+00 0. -1.
</event>
<event>
 7    1  0.2942034E-011  0.5052883E+02  0.7816164E-02  0.1300439E+00
        -11   -1    0    0    0    0  0.00000000000E+00  0.00000000000E+00  0.45593999997E+02  0.45594000000E+02  0.51100000000E-03 0.  1.
         11   -1    0    0    0    0 -0.00000000000E+00 -0.00000000000E+00 -0.45593999997E+02  0.45594000000E+02  0.51100000000E-03 0. -1.
    9900012    2    1    2    0    0  0.15978344502E+02 -0.30910607547E+02  0.21033186046E+02  0.50528830466E+02  0.29999910684E+02 0.  0.
         12    1    1    2    0    0 -0.15978344502E+02  0.30910607547E+02 -0.21033186046E+02  0.40659169534E+02  0.00000000000E+00 0. -1.
         11    1    3    3    0    0  0.11776477494E+02 -0.91235869689E+00  0.14196879648E+02  0.18468059253E+02  0.51100000000E-03 0. -1.
        -11    1    3    3    0    0  0.54719460334E+01 -0.15365843288E+02  0.12935845957E+01  0.16362294909E+02  0.51100000000E-03 0.  1.
         12    1    3    3    0    0 -0.12700790259E+01 -0.14632405563E+02  0.55427218025E+01  0.15698476304E+02  0.00000000000E+00 0. -1.
</event>
<event>
 7    1  0.2942034E-011  0.5052886E+02  0.7816164E-02  0.1300439E+00
        -11   -1    0    0    0    0  0.00000000000E+00  0.00000000000E+00  0.45593999997E+02  0.45594000000E+02  0.51100000000E-03 0.  1.
         11   -1    0    0    0    0 -0.00000000000E+00 -0.00000000000E+00 -0.45593999997E+02  0.45594000000E+02  0.51100000000E-03 0. -1.
    9900012    2    1    2    0    0 -0.29759022445E+02 -0.27691536821E+02 -0.86319520135E+00  0.50528859154E+02  0.29999997885E+02 0.  0.
         12    1    1    2    0    0  0.29759022445E+02  0.27691536821E+02  0.86319520135E+00  0.40659140846E+02  0.00000000000E+00 0. -1.
         11    1    3    3    0    0 -0.11215904099E+02 -0.16981373951E+02 -0.96981626076E+01  0.22543689233E+02  0.51100000000E-03 0. -1.
        -11    1    3    3    0    0  0.15001369492E+01  0.20969114476E+01  0.19206101348E+01  0.32149948735E+01  0.51100000000E-03 0.  1.
        -12    1    3    3    0    0 -0.20043255295E+02 -0.12807074318E+02  0.69143572715E+01  0.24770175048E+02  0.00000000000E+00 0.  1.
</event>
<event>
 7    1  0.2942034E-011  0.5052885E+02  0.7816164E-02  0.1300439E+00
        -11   -1    0    0    0    0  0.00000000000E+00  0.00000000000E+00  0.45593999997E+02  0.45594000000E+02  0.51100000000E-03 0.  1.
         11   -1    0    0    0    0 -0.00000000000E+00 -0.00000000000E+00 -0.45593999997E+02  0.45594000000E+02  0.51100000000E-03 0. -1.
    9900012    2    1    2    0    0  0.37016739237E+02 -0.16722852432E+02 -0.18092355809E+01  0.50528854526E+02  0.29999983819E+02 0.  0.
         12    1    1    2    0    0 -0.37016739237E+02  0.16722852432E+02  0.18092355809E+01  0.40659145474E+02  0.00000000000E+00 0. -1.
         11    1    3    3    0    0  0.10701343380E+02  0.63080799517E+00 -0.10503400462E+02  0.15007934248E+02  0.51100000000E-03 0. -1.
        -11    1    3    3    0    0  0.21559044753E+02 -0.11295955364E+02  0.59782772229E+00  0.24346425128E+02  0.51100000000E-03 0.  1.
         12    1    3    3    0    0  0.47563511037E+01 -0.60577050640E+01  0.80963371593E+01  0.11174495150E+02  0.00000000000E+00 0. -1.
</event>
<event>
 7    1  0.2942034E-011  0.5052886E+02  0.7816164E-02  0.1300439E+00
        -11   -1    0    0    0    0  0.00000000000E+00  0.00000000000E+00  0.45593999997E+02  0.45594000000E+02  0.51100000000E-03 0.  1.
         11   -1    0    0    0    0 -0.00000000000E+00 -0.00000000000E+00 -0.45593999997E+02  0.45594000000E+02  0.51100000000E-03 0. -1.
    9900012    2    1    2    0    0  0.41946799199E+01  0.39472105361E+02  0.88047399684E+01  0.50528857274E+02  0.29999992171E+02 0.  0.
         12    1    1    2    0    0 -0.41946799199E+01 -0.39472105361E+02 -0.88047399684E+01  0.40659142726E+02  0.00000000000E+00 0. -1.
         11    1    3    3    0    0  0.14597742997E+02  0.17791543537E+02 -0.36433607974E+01  0.23300369100E+02  0.51100000000E-03 0. -1.
        -11    1    3    3    0    0 -0.36385709135E+01  0.70121485830E+01  0.26327240934E+01  0.83271040858E+01  0.51100000000E-03 0.  1.
         12    1    3    3    0    0 -0.67644921637E+01  0.14668413241E+02  0.98153766724E+01  0.18901384089E+02  0.00000000000E+00 0. -1.
</event>
<event>
 7    1  0.2942034E-011  0.5052884E+02  0.7816164E-02  0.1300439E+00
        -11   -1    0    0    0    0  0.00000000000E+00  0.00000000000E+00  0.45593999997E+02  0.45594000000E+02  0.51100000000E-03 0.  1.
         11   -1    0    0    0    0 -0.00000000000E+00 -0.00000000000E+00 -0.45593999997E+02  0.45594000000E+02  0.51100000000E-03 0. -1.
    9900012    2    1    2    0    0  0.20566680239E+02  0.10411404282E+02  0.33493005932E+02  0.50528842095E+02  0.29999946032E+02 0.  0.
         12    1    1    2    0    0 -0.20566680239E+02 -0.10411404282E+02 -0.33493005932E+02  0.40659157905E+02  0.00000000000E+00 0. -1.
         11    1    3    3    0    0  0.11537322131E+01  0.12489263549E+02  0.32205969229E+01  0.12949326115E+02  0.51100000000E-03 0. -1.
        -11    1    3    3    0    0  0.11044882628E+02 -0.58249632959E+01  0.21652877377E+02  0.24995334137E+02  0.51100000000E-03 0.  1.
        -12    1    3    3    0    0  0.83680653980E+01  0.37471040281E+01  0.86195316319E+01  0.12584181843E+02  0.00000000000E+00 0.  1.
</event>
<event>
 7    1  0.2942034E-011  0.5052886E+02  0.7816164E-02  0.1300439E+00
        -11   -1    0    0    0    0  0.00000000000E+00  0.00000000000E+00  0.45593999997E+02  0.45594000000E+02  0.51100000000E-03 0.  1.
         11   -1    0    0    0    0 -0.00000000000E+00 -0.00000000000E+00 -0.45593999997E+02  0.45594000000E+02  0.51100000000E-03 0. -1.
    9900012    2    1    2    0    0  0.39212030464E+02  0.39938012409E+01  0.99815857714E+01  0.50528857904E+02  0.29999994085E+02 0.  0.
         12    1    1    2    0    0 -0.39212030464E+02 -0.39938012409E+01 -0.99815857714E+01  0.40659142096E+02  0.00000000000E+00 0. -1.
         11    1    3    3    0    0  0.20856433062E+02  0.87161808984E+01  0.14813368476E+02  0.27025885654E+02  0.51100000000E-03 0.  1.
        -11    1    3    3    0    0  0.19423613137E+02 -0.67040845675E+01 -0.52619232592E+01  0.21211066306E+02  0.51100000000E-03 0. -1.
         12    1    3    3    0    0 -0.10680157348E+01  0.19817049099E+01  0.43014055444E+00  0.22919059441E+01  0.00000000000E+00 0. -1.
</event>
<event>
 7    1  0.2942034E-011  0.5052885E+02  0.7816164E-02  0.1300439E+00
        -11   -1    0    0    0    0  0.00000000000E+00  0.00000000000E+00  0.45593999997E+02  0.45594000000E+02  0.51100000000E-03 0. -1.
         11   -1    0    0    0    0 -0.00000000000E+00 -0.00000000000E+00 -0.45593999997E+02  0.45594000000E+02  0.51100000000E-03 0.  1.
    9900012    2    1    2    0    0  0.94586184527E+01  0.22391039730E+02 -0.32593587603E+02  0.50528854952E+02  0.29999985112E+02 0.  0.
         12    1    1    2    0    0 -0.94586184527E+01 -0.22391039730E+02  0.32593587603E+02  0.40659145048E+02  0.00000000000E+00 0. -1.
         11    1    3    3    0    0 -0.35515559652E+01  0.68629039388E+00  0.67031069876E+00  0.36788396231E+01  0.51100000000E-03 0. -1.
        -11    1    3    3    0    0  0.17734762809E+02  0.16716963071E+02 -0.31367701567E+02  0.39722932521E+02  0.51100000000E-03 0.  1.
         12    1    3    3    0    0 -0.47245883912E+01  0.49877862654E+01 -0.18961967345E+01  0.71270828079E+01  0.00000000000E+00 0. -1.
</event>
<event>
 7    1  0.2942034E-011  0.5052890E+02  0.7816164E-02  0.1300439E+00
        -11   -1    0    0    0    0  0.00000000000E+00  0.00000000000E+00  0.45593999997E+02  0.45594000000E+02  0.51100000000E-03 0.  1.
         11   -1    0    0    0    0 -0.00000000000E+00 -0.00000000000E+00 -0.45593999997E+02  0.45594000000E+02  0.51100000000E-03 0. -1.
    9900012    2    1    2    0    0  0.60643844626E+01  0.35354822447E+02  0.19142156492E+02  0.50528900350E+02  0.30000123105E+02 0.  0.
         12    1    1    2    0    0 -0.60643844626E+01 -0.35354822447E+02 -0.19142156492E+02  0.40659099650E+02  0.00000000000E+00 0. -1.
         11    1    3    3    0    0  0.13756315923E+02  0.30084391570E+02  0.87931048815E+01  0.34229016019E+02  0.51100000000E-03 0. -1.
        -11    1    3    3    0    0 -0.18335742138E+01  0.58641062714E+01  0.76789203941E+01  0.98344067152E+01  0.51100000000E-03 0.  1.
         12    1    3    3    0    0 -0.58583572463E+01 -0.59367539441E+00  0.26701312161E+01  0.64654776166E+01  0.00000000000E+00 0. -1.
</event>
<event>
 7    1  0.2942034E-011  0.5052884E+02  0.7816164E-02  0.1300439E+00
        -11   -1    0    0    0    0  0.00000000000E+00  0.00000000000E+00  0.45593999997E+02  0.45594000000E+02  0.51100000000E-03 0. -1.
         11   -1    0    0    0    0 -0.00000000000E+00 -0.00000000000E+00 -0.45593999997E+02  0.45594000000E+02  0.51100000000E-03 0.  1.
    9900012    2    1    2    0    0  0.22887705116E+01 -0.21449783703E+02 -0.34464995378E+02  0.50528836238E+02  0.29999928230E+02 0.  0.
         12    1    1    2    0    0 -0.22887705116E+01  0.21449783703E+02  0.34464995378E+02  0.40659163762E+02  0.00000000000E+00 0. -1.
         11    1    3    3    0    0  0.53285540588E+01 -0.18566229247E+02 -0.10036579082E+02  0.21767665854E+02  0.51100000000E-03 0. -1.
        -11    1    3    3    0    0  0.51624529670E+01 -0.83577475935E+00 -0.15960994697E+02  0.16795915934E+02  0.51100000000E-03 0.  1.
         12    1    3    3    0    0 -0.82022365142E+01 -0.20477796967E+01 -0.84674215997E+01  0.11965254451E+02  0.00000000000E+00 0. -1.
</event>
<event>
 7    1  0.2942034E-011  0.5052888E+02  0.7816164E-02  0.1300439E+00
        -11   -1    0    0    0    0  0.00000000000E+00  0.00000000000E+00  0.45593999997E+02  0.45594000000E+02  0.51100000000E-03 0. -1.
         11   -1    0    0    0    0 -0.00000000000E+00 -0.00000000000E+00 -0.45593999997E+02  0.45594000000E+02  0.51100000000E-03 0.  1.
    9900012    2    1    2    0    0  0.67837769316E+00 -0.39333851536E+02 -0.10273854399E+02  0.50528878548E+02  0.30000056836E+02 0.  0.
         12    1    1    2    0    0 -0.67837769316E+00  0.39333851536E+02  0.10273854399E+02  0.40659121452E+02  0.00000000000E+00 0. -1.
         11    1    3    3    0    0  0.71246760382E+01 -0.78591206418E+01  0.73226106631E+01  0.12889818195E+02  0.51100000000E-03 0. -1.
        -11    1    3    3    0    0 -0.18008126998E+00 -0.15802504446E+02 -0.49909690856E+01  0.16572910086E+02  0.51100000000E-03 0.  1.
         12    1    3    3    0    0 -0.62662170751E+01 -0.15672226448E+02 -0.12605495977E+02  0.21066150268E+02  0.00000000000E+00 0. -1.
</event>
<event>
 7    1  0.2942034E-011  0.5052887E+02  0.7816164E-02  0.1300439E+00
        -11   -1    0    0    0    0  0.00000000000E+00  0.00000000000E+00  0.45593999997E+02  0.45594000000E+02  0.51100000000E-03 0. -1.
         11   -1    0    0    0    0 -0.00000000000E+00 -0.00000000000E+00 -0.45593999997E+02  0.45594000000E+02  0.51100000000E-03 0.  1.
    9900012    2    1    2    0    0 -0.38664041808E+02 -0.78536354322E+00 -0.12555490003E+02  0.50528865060E+02  0.30000015836E+02 0.  0.
         12    1    1    2    0    0  0.38664041808E+02  0.78536354322E+00  0.12555490003E+02  0.40659134940E+02  0.00000000000E+00 0. -1.
         11    1    3    3    0    0  0.28253575662E+01  0.20642586191E+00 -0.35559431248E+00  0.28551190149E+01  0.51100000000E-03 0. -1.
        -11    1    3    3    0    0 -0.22803984246E+02 -0.93784524056E+01 -0.18514410075E+01  0.24726603105E+02  0.51100000000E-03 0.  1.
        -12    1    3    3    0    0 -0.18685415128E+02  0.83866630005E+01 -0.10348454683E+02  0.22947142940E+02  0.00000000000E+00 0.  1.
</event>
<event>
 7    1  0.2942034E-011  0.5052884E+02  0.7816164E-02  0.1300439E+00
        -11   -1    0    0    0    0  0.00000000000E+00  0.00000000000E+00  0.45593999997E+02  0.45594000000E+02  0.51100000000E-03 0. -1.
         11   -1    0    0    0    0 -0.00000000000E+00 -0.00000000000E+00 -0.45593999997E+02  0.45594000000E+02  0.51100000000E-03 0.  1.
    9900012    2    1    2    0    0  0.28629725502E+02  0.17736432526E+02 -0.22779918385E+02  0.50528844786E+02  0.29999954213E+02 0.  0.
         12    1    1    2    0    0 -0.28629725502E+02 -0.17736432526E+02  0.22779918385E+02  0.40659155214E+02  0.00000000000E+00 0. -1.
         11    1    3    3    0    0  0.10832735939E+02 -0.73951984870E+01 -0.92682166436E+01  0.16060416202E+02  0.51100000000E-03 0. -1.
        -11    1    3    3    0    0  0.13386293040E+02  0.19565295364E+02 -0.13668690390E+02  0.27364698450E+02  0.51100000000E-03 0.  1.
         12    1    3    3    0    0  0.44106965233E+01  0.55663356490E+01  0.15698864860E+00  0.71037301338E+01  0.00000000000E+00 0. -1.
</event>
<event>
 7    1  0.2942034E-011  0.5052886E+02  0.7816164E-02  0.1300439E+00
        -11   -1    0    0    0    0  0.00000000000E+00  0.00000000000E+00  0.45593999997E+02  0.45594000000E+02  0.51100000000E-03 0.  1.
         11   -1    0    0    0    0 -0.00000000000E+00 -0.00000000000E+00 -0.45593999997E+02  0.45594000000E+02  0.51100000000E-03 0. -1.
    9900012    2    1    2    0    0 -0.33064864959E+02 -0.21333655291E+02 -0.10235032950E+02  0.50528855367E+02  0.29999986373E+02 0.  0.
         12    1    1    2    0    0  0.33064864959E+02  0.21333655291E+02  0.10235032950E+02  0.40659144633E+02  0.00000000000E+00 0. -1.
         11    1    3    3    0    0 -0.10204488054E+02 -0.22765665908E+02 -0.10239064799E+02  0.26967490965E+02  0.51100000000E-03 0. -1.
        -11    1    3    3    0    0 -0.20254855291E+02 -0.39242459431E+00  0.82811153714E+00  0.20275574688E+02  0.51100000000E-03 0.  1.
         12    1    3    3    0    0 -0.26055216129E+01  0.18244352116E+01 -0.82407968727E+00  0.32857897144E+01  0.00000000000E+00 0. -1.
</event>
<event>
 7    1  0.2942034E-011  0.5052883E+02  0.7816164E-02  0.1300439E+00
        -11   -1    0    0    0    0  0.00000000000E+00  0.00000000000E+00  0.45593999997E+02  0.45594000000E+02  0.51100000000E-03 0.  1.
         11   -1    0    0    0    0 -0.00000000000E+00 -0.00000000000E+00 -0.45593999997E+02  0.45594000000E+02  0.51100000000E-03 0. -1.
    9900012    2    1    2    0    0  0.14690203713E+02 -0.99454536591E+01  0.36584888838E+02  0.50528828527E+02  0.29999904791E+02 0.  0.
         12    1    1    2    0    0 -0.14690203713E+02  0.99454536591E+01 -0.36584888838E+02  0.40659171473E+02  0.00000000000E+00 0. -1.
         11    1    3    3    0    0  0.94056575574E+01  0.76402303690E+01  0.35980713589E+01  0.12640634159E+02  0.51100000000E-03 0. -1.
        -11    1    3    3    0    0  0.47567719323E+01 -0.11464827507E+02  0.20342284349E+02  0.23830184258E+02  0.51100000000E-03 0.  1.
         12    1    3    3    0    0  0.52777422306E+00 -0.61208565208E+01  0.12644533129E+02  0.14058010110E+02  0.00000000000E+00 0. -1.
</event>
<event>
 7    1  0.2942034E-011  0.5052884E+02  0.7816164E-02  0.1300439E+00
        -11   -1    0    0    0    0  0.00000000000E+00  0.00000000000E+00  0.45593999997E+02  0.45594000000E+02  0.51100000000E-03 0.  1.
         11   -1    0    0    0    0 -0.00000000000E+00 -0.00000000000E+00 -0.45593999997E+02  0.45594000000E+02  0.51100000000E-03 0. -1.
    9900012    2    1    2    0    0 -0.34676937155E+02  0.10372954292E+02  0.18522387659E+02  0.50528843641E+02  0.29999950732E+02 0.  0.
         12    1    1    2    0    0  0.34676937155E+02 -0.10372954292E+02 -0.18522387659E+02  0.40659156359E+02  0.00000000000E+00 0. -1.
         11    1    3    3    0    0 -0.17020450339E+02 -0.74756136918E+01 -0.69080193188E+00  0.18602627164E+02  0.51100000000E-03 0. -1.
        -11    1    3    3    0    0 -0.14404501915E+02  0.11763851980E+02  0.14124210193E+02  0.23353183994E+02  0.51100000000E-03 0.  1.
         12    1    3    3    0    0 -0.32519849007E+01  0.60847160046E+01  0.50889793976E+01  0.85730324833E+01  0.00000000000E+00 0. -1.
</event>
<event>
 7    1  0.2942034E-011  0.5052887E+02  0.7816164E-02  0.1300439E+00
        -11   -1    0    0    0    0  0.00000000000E+00  0.00000000000E+00  0.45593999997E+02  0.45594000000E+02  0.51100000000E-03 0. -1.
         11   -1    0    0    0    0 -0.00000000000E+00 -0.00000000000E+00 -0.45593999997E+02  0.45594000000E+02  0.51100000000E-03 0.  1.
    9900012    2    1    2    0    0 -0.11202498689E+02 -0.88721941811E+01 -0.38065111047E+02  0.50528874511E+02  0.30000044564E+02 0.  0.
         12    1    1    2    0    0  0.11202498689E+02  0.88721941811E+01  0.38065111047E+02  0.40659125489E+02  0.00000000000E+00 0. -1.
         11    1    3    3    0    0 -0.13491267301E+02  0.46706361486E+01 -0.92816725430E+01  0.17028757467E+02  0.51100000000E-03 0. -1.
        -11    1    3    3    0    0  0.90070998955E+00 -0.14908258618E+02 -0.23247505151E+02  0.27631756178E+02  0.51100000000E-03 0.  1.
        -12    1    3    3    0    0  0.13880586224E+01  0.13654282884E+01 -0.55359333539E+01  0.58683608656E+01  0.00000000000E+00 0.  1.
</event>
<event>
 7    1  0.2942034E-011  0.5052888E+02  0.7816164E-02  0.1300439E+00
        -11   -1    0    0    0    0  0.00000000000E+00  0.00000000000E+00  0.45593999997E+02  0.45594000000E+02  0.51100000000E-03 0.  1.
         11   -1    0    0    0    0 -0.00000000000E+00 -0.00000000000E+00 -0.45593999997E+02  0.45594000000E+02  0.51100000000E-03 0. -1.
    9900012    2    1    2    0    0  0.28182176581E+02 -0.24019948353E+02  0.16791991941E+02  0.50528880616E+02  0.30000063120E+02 0.  0.
         12    1    1    2    0    0 -0.28182176581E+02  0.24019948353E+02 -0.16791991941E+02  0.40659119384E+02  0.00000000000E+00 0. -1.
         11    1    3    3    0    0  0.17153051878E+02 -0.24338417967E+02  0.12282055051E+02  0.32209232440E+02  0.51100000000E-03 0. -1.
        -11    1    3    3    0    0 -0.77795692904E+00  0.25984780701E+01  0.56230067003E+01  0.62430369114E+01  0.51100000000E-03 0.  1.
        -12    1    3    3    0    0  0.11807081632E+02 -0.22800084568E+01 -0.11130698097E+01  0.12076611264E+02  0.00000000000E+00 0.  1.
</event>
<event>
 7    1  0.2942034E-011  0.5052885E+02  0.7816164E-02  0.1300439E+00
        -11   -1    0    0    0    0  0.00000000000E+00  0.00000000000E+00  0.45593999997E+02  0.45594000000E+02  0.51100000000E-03 0.  1.
         11   -1    0    0    0    0 -0.00000000000E+00 -0.00000000000E+00 -0.45593999997E+02  0.45594000000E+02  0.51100000000E-03 0. -1.
    9900012    2    1    2    0    0 -0.11866595761E+02  0.23843379907E+02  0.30722033112E+02  0.50528853688E+02  0.29999981269E+02 0.  0.
         12    1    1    2    0    0  0.11866595761E+02 -0.23843379907E+02 -0.30722033112E+02  0.40659146312E+02  0.00000000000E+00 0. -1.
         11    1    3    3    0    0 -0.10582540735E+02  0.27647730583E+02  0.31546355773E+02  0.43261527222E+02  0.51100000000E-03 0.  1.
        -11    1    3    3    0    0 -0.23517791287E+01 -0.10132312168E+01 -0.27141745551E+01  0.37315206479E+01  0.51100000000E-03 0. -1.
        -12    1    3    3    0    0  0.10677241018E+01 -0.27911194599E+01  0.18898518942E+01  0.35358058175E+01  0.00000000000E+00 0.  1.
</event>
<event>
 7    1  0.2942034E-011  0.5052886E+02  0.7816164E-02  0.1300439E+00
        -11   -1    0    0    0    0  0.00000000000E+00  0.00000000000E+00  0.45593999997E+02  0.45594000000E+02  0.51100000000E-03 0.  1.
         11   -1    0    0    0    0 -0.00000000000E+00 -0.00000000000E+00 -0.45593999997E+02  0.45594000000E+02  0.51100000000E-03 0. -1.
    9900012    2    1    2    0    0 -0.16956525480E+01  0.35398458939E+02 -0.19930865085E+02  0.50528861840E+02  0.30000006050E+02 0.  0.
         12    1    1    2    0    0  0.16956525480E+01 -0.35398458939E+02  0.19930865085E+02  0.40659138160E+02  0.00000000000E+00 0. -1.
         11    1    3    3    0    0 -0.44666027617E+01  0.63694201994E+01 -0.62573043727E+01  0.99836822957E+01  0.51100000000E-03 0. -1.
        -11    1    3    3    0    0 -0.11256712286E+01  0.22417411932E+02  0.25578263879E+01  0.22590926708E+02  0.51100000000E-03 0.  1.
        -12    1    3    3    0    0  0.38966214424E+01  0.66116268084E+01 -0.16231387100E+02  0.17954252837E+02  0.00000000000E+00 0.  1.
</event>
<event>
 7    1  0.2942034E-011  0.5052887E+02  0.7816164E-02  0.1300439E+00
        -11   -1    0    0    0    0  0.00000000000E+00  0.00000000000E+00  0.45593999997E+02  0.45594000000E+02  0.51100000000E-03 0. -1.
         11   -1    0    0    0    0 -0.00000000000E+00 -0.00000000000E+00 -0.45593999997E+02  0.45594000000E+02  0.51100000000E-03 0.  1.
    9900012    2    1    2    0    0  0.91711291401E+01 -0.36987118703E+02 -0.14177752303E+02  0.50528865479E+02  0.30000017109E+02 0.  0.
         12    1    1    2    0    0 -0.91711291401E+01  0.36987118703E+02  0.14177752303E+02  0.40659134521E+02  0.00000000000E+00 0. -1.
         11    1    3    3    0    0 -0.16880018412E+01  0.20673066077E+00 -0.20053728288E+01  0.26293741129E+01  0.51100000000E-03 0. -1.
        -11    1    3    3    0    0  0.18899598777E+02 -0.23434656824E+02 -0.10460174652E+02  0.31871511235E+02  0.51100000000E-03 0.  1.
        -12    1    3    3    0    0 -0.80404677959E+01 -0.13759192540E+02 -0.17122048228E+01  0.16027980131E+02  0.00000000000E+00 0.  1.
</event>
<event>
 7    1  0.2942034E-011  0.5052886E+02  0.7816164E-02  0.1300439E+00
        -11   -1    0    0    0    0  0.00000000000E+00  0.00000000000E+00  0.45593999997E+02  0.45594000000E+02  0.51100000000E-03 0.  1.
         11   -1    0    0    0    0 -0.00000000000E+00 -0.00000000000E+00 -0.45593999997E+02  0.45594000000E+02  0.51100000000E-03 0. -1.
    9900012    2    1    2    0    0  0.34077733825E+01 -0.35393591472E+02  0.19719195470E+02  0.50528857034E+02  0.29999991441E+02 0.  0.
         12    1    1    2    0    0 -0.34077733825E+01  0.35393591472E+02 -0.19719195470E+02  0.40659142966E+02  0.00000000000E+00 0. -1.
         11    1    3    3    0    0  0.36417977388E+01  0.18737557360E+01  0.10619615838E+00  0.40969414462E+01  0.51100000000E-03 0. -1.
        -11    1    3    3    0    0  0.30363339871E+01 -0.32967886994E+02  0.86631389128E+01  0.34222081659E+02  0.51100000000E-03 0.  1.
        -12    1    3    3    0    0 -0.32703583434E+01 -0.42994602141E+01  0.10949860399E+02  0.12209833929E+02  0.00000000000E+00 0.  1.
</event>
<event>
 7    1  0.2942034E-011  0.5052886E+02  0.7816164E-02  0.1300439E+00
        -11   -1    0    0    0    0  0.00000000000E+00  0.00000000000E+00  0.45593999997E+02  0.45594000000E+02  0.51100000000E-03 0. -1.
         11   -1    0    0    0    0 -0.00000000000E+00 -0.00000000000E+00 -0.45593999997E+02  0.45594000000E+02  0.51100000000E-03 0.  1.
    9900012    2    1    2    0    0  0.21473756696E+02  0.75008474650E+01 -0.33701346186E+02  0.50528859894E+02  0.30000000135E+02 0.  0.
         12    1    1    2    0    0 -0.21473756696E+02 -0.75008474650E+01  0.33701346186E+02  0.40659140106E+02  0.00000000000E+00 0. -1.
         11    1    3    3    0    0  0.19461032597E+02  0.66877736504E+01 -0.51979563913E+01  0.21224440088E+02  0.51100000000E-03 0. -1.
        -11    1    3    3    0    0  0.22294265680E+01 -0.23298934935E+01 -0.92735642033E+01  0.98182350658E+01  0.51100000000E-03 0.  1.
         12    1    3    3    0    0 -0.21670246866E+00  0.31429673082E+01 -0.19229825592E+02  0.19486184741E+02  0.00000000000E+00 0. -1.
</event>
<event>
 7    1  0.2942034E-011  0.5052886E+02  0.7816164E-02  0.1300439E+00
        -11   -1    0    0    0    0  0.00000000000E+00  0.00000000000E+00  0.45593999997E+02  0.45594000000E+02  0.51100000000E-03 0. -1.
         11   -1    0    0    0    0 -0.00000000000E+00 -0.00000000000E+00 -0.45593999997E+02  0.45594000000E+02  0.51100000000E-03 0.  1.
    9900012    2    1    2    0    0  0.13606335094E+02  0.31987648049E+02 -0.21090842295E+02  0.50528860669E+02  0.30000002491E+02 0.  0.
         12    1    1    2    0    0 -0.13606335094E+02 -0.31987648049E+02  0.21090842295E+02  0.40659139331E+02  0.00000000000E+00 0. -1.
         11    1    3    3    0    0  0.96353679069E+01  0.99805017989E+01  0.18733736707E+01  0.13998580643E+02  0.51100000000E-03 0. -1.
        -11    1    3    3    0    0  0.95956899315E+01  0.12733300538E+02 -0.19404677150E+02  0.25114850256E+02  0.51100000000E-03 0.  1.
        -12    1    3    3    0    0 -0.56247227442E+01  0.92738457122E+01 -0.35595388161E+01  0.11415429770E+02  0.00000000000E+00 0.  1.
</event>
<event>
 7    1  0.2942034E-011  0.5052885E+02  0.7816164E-02  0.1300439E+00
        -11   -1    0    0    0    0  0.00000000000E+00  0.00000000000E+00  0.45593999997E+02  0.45594000000E+02  0.51100000000E-03 0.  1.
         11   -1    0    0    0    0 -0.00000000000E+00 -0.00000000000E+00 -0.45593999997E+02  0.45594000000E+02  0.51100000000E-03 0. -1.
    9900012    2    1    2    0    0  0.21536773777E+02 -0.48250411142E+01  0.34147512779E+02  0.50528852500E+02  0.29999977658E+02 0.  0.
         12    1    1    2    0    0 -0.21536773777E+02  0.48250411142E+01 -0.34147512779E+02  0.40659147500E+02  0.00000000000E+00 0. -1.
         11    1    3    3    0    0 -0.21153566956E+00  0.70028439938E+01  0.56142084874E+01  0.89779679517E+01  0.51100000000E-03 0. -1.
        -11    1    3    3    0    0  0.18620428040E+02 -0.58449194562E+01  0.10214675814E+02  0.22027778510E+02  0.51100000000E-03 0.  1.
        -12    1    3    3    0    0  0.31278814071E+01 -0.59829656518E+01  0.18318628477E+02  0.19523106038E+02  0.00000000000E+00 0.  1.
</event>
<event>
 7    1  0.2942034E-011  0.5052886E+02  0.7816164E-02  0.1300439E+00
        -11   -1    0    0    0    0  0.00000000000E+00  0.00000000000E+00  0.45593999997E+02  0.45594000000E+02  0.51100000000E-03 0. -1.
         11   -1    0    0    0    0 -0.00000000000E+00 -0.00000000000E+00 -0.45593999997E+02  0.45594000000E+02  0.51100000000E-03 0.  1.
    9900012    2    1    2    0    0  0.21527996811E+02 -0.12921847311E+01 -0.34467977487E+02  0.50528857607E+02  0.29999993183E+02 0.  0.
         12    1    1    2    0    0 -0.21527996811E+02  0.12921847311E+01  0.34467977487E+02  0.40659142393E+02  0.00000000000E+00 0. -1.
         11    1    3    3    0    0  0.23533922098E+01 -0.27316784649E+01 -0.24879261379E+01  0.43806733338E+01  0.51100000000E-03 0. -1.
        -11    1    3    3    0    0  0.84939850811E+01  0.14001518628E+02 -0.12346235899E+02  0.20509018689E+02  0.51100000000E-03 0.  1.
        -12    1    3    3    0    0  0.10680619520E+02 -0.12562024894E+02 -0.19633815450E+02  0.25639165585E+02  0.00000000000E+00 0.  1.
</event>
<event>
 7    1  0.2942034E-011  0.5052876E+02  0.7816164E-02  0.1300439E+00
        -11   -1    0    0    0    0  0.00000000000E+00  0.00000000000E+00  0.45593999997E+02  0.45594000000E+02  0.51100000000E-03 0.  1.
         11   -1    0    0    0    0 -0.00000000000E+00 -0.00000000000E+00 -0.45593999997E+02  0.45594000000E+02  0.51100000000E-03 0. -1.
    9900012    2    1    2    0    0  0.19212960408E+02 -0.35670354661E+01  0.35655465663E+02  0.50528759706E+02  0.29999695601E+02 0.  0.
         12    1    1    2    0    0 -0.19212960408E+02  0.35670354661E+01 -0.35655465663E+02  0.40659240294E+02  0.00000000000E+00 0. -1.
         11    1    3    3    0    0  0.10560217323E+02 -0.32552660165E+01 -0.16781765467E+01  0.11177263687E+02  0.51100000000E-03 0. -1.
        -11    1    3    3    0    0  0.23332352998E+01  0.35723127797E+01  0.20755472492E+02  0.21189503161E+02  0.51100000000E-03 0.  1.
         12    1    3    3    0    0  0.63195077851E+01 -0.38840822293E+01  0.16578169717E+02  0.18161992858E+02  0.00000000000E+00 0. -1.
</event>
<event>
 7    1  0.2942034E-011  0.5052886E+02  0.7816164E-02  0.1300439E+00
        -11   -1    0    0    0    0  0.00000000000E+00  0.00000000000E+00  0.45593999997E+02  0.45594000000E+02  0.51100000000E-03 0.  1.
         11   -1    0    0    0    0 -0.00000000000E+00 -0.00000000000E+00 -0.45593999997E+02  0.45594000000E+02  0.51100000000E-03 0. -1.
    9900012    2    1    2    0    0 -0.32419829963E+02 -0.55991215322E+01  0.23890797193E+02  0.50528859241E+02  0.29999998149E+02 0.  0.
         12    1    1    2    0    0  0.32419829963E+02  0.55991215322E+01 -0.23890797193E+02  0.40659140759E+02  0.00000000000E+00 0. -1.
         11    1    3    3    0    0 -0.10891867879E+02 -0.95064507595E+01  0.64163643461E+01  0.15816925226E+02  0.51100000000E-03 0. -1.
        -11    1    3    3    0    0 -0.21945057339E+01  0.94900937085E+01  0.72331048348E+01  0.12132416900E+02  0.51100000000E-03 0.  1.
         12    1    3    3    0    0 -0.19333456350E+02 -0.55827644811E+01  0.10241328012E+02  0.22579517115E+02  0.00000000000E+00 0. -1.
</event>
<event>
 7    1  0.2942034E-011  0.5052874E+02  0.7816164E-02  0.1300439E+00
        -11   -1    0    0    0    0  0.00000000000E+00  0.00000000000E+00  0.45593999997E+02  0.45594000000E+02  0.51100000000E-03 0.  1.
         11   -1    0    0    0    0 -0.00000000000E+00 -0.00000000000E+00 -0.45593999997E+02  0.45594000000E+02  0.51100000000E-03 0. -1.
    9900012    2    1    2    0    0 -0.14493879030E+02  0.20153527278E+02  0.32201522815E+02  0.50528741981E+02  0.29999641723E+02 0.  0.
         12    1    1    2    0    0  0.14493879030E+02 -0.20153527278E+02 -0.32201522815E+02  0.40659258019E+02  0.00000000000E+00 0. -1.
         11    1    3    3    0    0  0.46479800643E+01 -0.25160673406E+00  0.11565080706E+02  0.12466680257E+02  0.51100000000E-03 0. -1.
        -11    1    3    3    0    0 -0.19479145125E+02  0.14566755900E+02  0.10788624183E+02  0.26608680619E+02  0.51100000000E-03 0.  1.
        -12    1    3    3    0    0  0.33728603112E+00  0.58383781114E+01  0.98478179252E+01  0.11453381105E+02  0.00000000000E+00 0.  1.
</event>
<event>
 7    1  0.2942034E-011  0.5052886E+02  0.7816164E-02  0.1300439E+00
        -11   -1    0    0    0    0  0.00000000000E+00  0.00000000000E+00  0.45593999997E+02  0.45594000000E+02  0.51100000000E-03 0.  1.
         11   -1    0    0    0    0 -0.00000000000E+00 -0.00000000000E+00 -0.45593999997E+02  0.45594000000E+02  0.51100000000E-03 0. -1.
    9900012    2    1    2    0    0 -0.33138272849E+02  0.70616677262E+01  0.22475612400E+02  0.50528862881E+02  0.30000009214E+02 0.  0.
         12    1    1    2    0    0  0.33138272849E+02 -0.70616677262E+01 -0.22475612400E+02  0.40659137119E+02  0.00000000000E+00 0. -1.
         11    1    3    3    0    0 -0.35430952808E+01 -0.33041208452E+01  0.17518736148E+02  0.18176271763E+02  0.51100000000E-03 0. -1.
        -11    1    3    3    0    0 -0.95663759431E+00  0.16199607721E+01  0.10502187909E+01  0.21546201892E+01  0.51100000000E-03 0.  1.
         12    1    3    3    0    0 -0.28638539974E+02  0.87458277992E+01  0.39066574619E+01  0.30197970929E+02  0.00000000000E+00 0. -1.
</event>
<event>
 7    1  0.2942034E-011  0.5052887E+02  0.7816164E-02  0.1300439E+00
        -11   -1    0    0    0    0  0.00000000000E+00  0.00000000000E+00  0.45593999997E+02  0.45594000000E+02  0.51100000000E-03 0.  1.
         11   -1    0    0    0    0 -0.00000000000E+00 -0.00000000000E+00 -0.45593999997E+02  0.45594000000E+02  0.51100000000E-03 0. -1.
    9900012    2    1    2    0    0  0.17475257091E+02 -0.10402958414E+02  0.35207366206E+02  0.50528870775E+02  0.30000033208E+02 0.  0.
         12    1    1    2    0    0 -0.17475257091E+02  0.10402958414E+02 -0.35207366206E+02  0.40659129225E+02  0.00000000000E+00 0. -1.
         11    1    3    3    0    0  0.17322189012E+02 -0.40844633068E+01  0.19670799297E+02  0.26526994136E+02  0.51100000000E-03 0.  1.
        -11    1    3    3    0    0 -0.64810170418E+01  0.50450940538E+00  0.12366935991E+02  0.13971371361E+02  0.51100000000E-03 0. -1.
         12    1    3    3    0    0  0.66340851206E+01 -0.68230045130E+01  0.31696309179E+01  0.10030505278E+02  0.00000000000E+00 0. -1.
</event>
<event>
 7    1  0.2942034E-011  0.5052889E+02  0.7816164E-02  0.1300439E+00
        -11   -1    0    0    0    0  0.00000000000E+00  0.00000000000E+00  0.45593999997E+02  0.45594000000E+02  0.51100000000E-03 0. -1.
         11   -1    0    0    0    0 -0.00000000000E+00 -0.00000000000E+00 -0.45593999997E+02  0.45594000000E+02  0.51100000000E-03 0.  1.
    9900012    2    1    2    0    0 -0.36696891201E+02  0.15809961835E+02  0.75197624349E+01  0.50528886088E+02  0.30000079753E+02 0.  0.
         12    1    1    2    0    0  0.36696891201E+02 -0.15809961835E+02 -0.75197624349E+01  0.40659113912E+02  0.00000000000E+00 0. -1.
         11    1    3    3    0    0  0.14188261889E+01 -0.12489539781E+00  0.52255237191E+01  0.54161577724E+01  0.51100000000E-03 0. -1.
        -11    1    3    3    0    0 -0.26065264268E+02  0.14751936031E+02 -0.58553214643E+01  0.30517247709E+02  0.51100000000E-03 0.  1.
        -12    1    3    3    0    0 -0.12050453121E+02  0.11829212020E+01  0.81495601801E+01  0.14595480606E+02  0.00000000000E+00 0.  1.
</event>
<event>
 7    1  0.2942034E-011  0.5052887E+02  0.7816164E-02  0.1300439E+00
        -11   -1    0    0    0    0  0.00000000000E+00  0.00000000000E+00  0.45593999997E+02  0.45594000000E+02  0.51100000000E-03 0.  1.
         11   -1    0    0    0    0 -0.00000000000E+00 -0.00000000000E+00 -0.45593999997E+02  0.45594000000E+02  0.51100000000E-03 0. -1.
    9900012    2    1    2    0    0  0.20412610151E+02  0.15768067760E+02  0.31430214665E+02  0.50528868087E+02  0.30000025037E+02 0.  0.
         12    1    1    2    0    0 -0.20412610151E+02 -0.15768067760E+02 -0.31430214665E+02  0.40659131913E+02  0.00000000000E+00 0. -1.
         11    1    3    3    0    0 -0.19836072428E+01  0.94519474731E+01  0.50558402944E+01  0.10901171041E+02  0.51100000000E-03 0. -1.
        -11    1    3    3    0    0  0.17902053323E+02  0.12081076421E+02  0.23083129626E+02  0.31611181475E+02  0.51100000000E-03 0.  1.
        -12    1    3    3    0    0  0.44941640715E+01 -0.57649561344E+01  0.32912447444E+01  0.80165155710E+01  0.00000000000E+00 0.  1.
</event>
<event>
 7    1  0.2942034E-011  0.5052886E+02  0.7816164E-02  0.1300439E+00
        -11   -1    0    0    0    0  0.00000000000E+00  0.00000000000E+00  0.45593999997E+02  0.45594000000E+02  0.51100000000E-03 0.  1.
         11   -1    0    0    0    0 -0.00000000000E+00 -0.00000000000E+00 -0.45593999997E+02  0.45594000000E+02  0.51100000000E-03 0. -1.
    9900012    2    1    2    0    0  0.34414050402E+02  0.32718360310E+01  0.21404054865E+02  0.50528863995E+02  0.30000012598E+02 0.  0.
         12    1    1    2    0    0 -0.34414050402E+02 -0.32718360310E+01 -0.21404054865E+02  0.40659136005E+02  0.00000000000E+00 0. -1.
         11    1    3    3    0    0  0.11121757410E+02  0.18633258858E+01 -0.58995593690E+01  0.12726754191E+02  0.51100000000E-03 0. -1.
        -11    1    3    3    0    0  0.17747868086E+02 -0.17748913824E+01  0.25572861856E+02  0.31178651747E+02  0.51100000000E-03 0.  1.
        -12    1    3    3    0    0  0.55444249065E+01  0.31834015276E+01  0.17307523777E+01  0.66234580562E+01  0.00000000000E+00 0.  1.
</event>
<event>
 7    1  0.2942034E-011  0.5052887E+02  0.7816164E-02  0.1300439E+00
        -11   -1    0    0    0    0  0.00000000000E+00  0.00000000000E+00  0.45593999997E+02  0.45594000000E+02  0.51100000000E-03 0.  1.
         11   -1    0    0    0    0 -0.00000000000E+00 -0.00000000000E+00 -0.45593999997E+02  0.45594000000E+02  0.51100000000E-03 0. -1.
    9900012    2    1    2    0    0 -0.33224819749E+02  0.41777009532E+01  0.23061296808E+02  0.50528865195E+02  0.30000016246E+02 0.  0.
         12    1    1    2    0    0  0.33224819749E+02 -0.41777009532E+01 -0.23061296808E+02  0.40659134805E+02  0.00000000000E+00 0. -1.
         11    1    3    3    0    0 -0.11166442983E+02 -0.40807359206E+01 -0.33788940772E+01  0.12359562289E+02  0.51100000000E-03 0. -1.
        -11    1    3    3    0    0 -0.12813891453E+02  0.12476039616E+00  0.21232994489E+02  0.24800230534E+02  0.51100000000E-03 0.  1.
        -12    1    3    3    0    0 -0.92444853130E+01  0.81336764776E+01  0.52071963967E+01  0.13369072371E+02  0.00000000000E+00 0.  1.
</event>
<event>
 7    1  0.2942034E-011  0.5052877E+02  0.7816164E-02  0.1300439E+00
        -11   -1    0    0    0    0  0.00000000000E+00  0.00000000000E+00  0.45593999997E+02  0.45594000000E+02  0.51100000000E-03 0. -1.
         11   -1    0    0    0    0 -0.00000000000E+00 -0.00000000000E+00 -0.45593999997E+02  0.45594000000E+02  0.51100000000E-03 0.  1.
    9900012    2    1    2    0    0 -0.16008172444E+02  0.42471266537E+01 -0.37133181493E+02  0.50528771803E+02  0.29999732371E+02 0.  0.
         12    1    1    2    0    0  0.16008172444E+02 -0.42471266537E+01  0.37133181493E+02  0.40659228197E+02  0.00000000000E+00 0. -1.
         11    1    3    3    0    0 -0.19644086727E+02 -0.13299239113E+01 -0.12458279610E+02  0.23299518709E+02  0.51100000000E-03 0. -1.
        -11    1    3    3    0    0 -0.30622568279E+01  0.29329783932E+01 -0.10664092210E+02  0.11476177153E+02  0.51100000000E-03 0.  1.
         12    1    3    3    0    0  0.66981711117E+01  0.26440721718E+01 -0.14010809673E+02  0.15753075940E+02  0.00000000000E+00 0. -1.
</event>
<event>
 7    1  0.2942034E-011  0.5052886E+02  0.7816164E-02  0.1300439E+00
        -11   -1    0    0    0    0  0.00000000000E+00  0.00000000000E+00  0.45593999997E+02  0.45594000000E+02  0.51100000000E-03 0.  1.
         11   -1    0    0    0    0 -0.00000000000E+00 -0.00000000000E+00 -0.45593999997E+02  0.45594000000E+02  0.51100000000E-03 0. -1.
    9900012    2    1    2    0    0 -0.13392739764E+02 -0.38024717351E+02 -0.52840411217E+01  0.50528859593E+02  0.29999999220E+02 0.  0.
         12    1    1    2    0    0  0.13392739764E+02  0.38024717351E+02  0.52840411217E+01  0.40659140407E+02  0.00000000000E+00 0. -1.
         11    1    3    3    0    0 -0.12957320880E+02 -0.34495051163E+01 -0.80036797146E+00  0.13432491917E+02  0.51100000000E-03 0. -1.
        -11    1    3    3    0    0  0.56238469508E+01 -0.18914912188E+02 -0.66214178773E-01  0.19733371283E+02  0.51100000000E-03 0.  1.
        -12    1    3    3    0    0 -0.60592658344E+01 -0.15660300047E+02 -0.44174589715E+01  0.17362996394E+02  0.00000000000E+00 0.  1.
</event>
<event>
 7    1  0.2942034E-011  0.5052885E+02  0.7816164E-02  0.1300439E+00
        -11   -1    0    0    0    0  0.00000000000E+00  0.00000000000E+00  0.45593999997E+02  0.45594000000E+02  0.51100000000E-03 0. -1.
         11   -1    0    0    0    0 -0.00000000000E+00 -0.00000000000E+00 -0.45593999997E+02  0.45594000000E+02  0.51100000000E-03 0.  1.
    9900012    2    1    2    0    0 -0.26390727440E+02  0.64972808764E+01 -0.30240388652E+02  0.50528852697E+02  0.29999978257E+02 0.  0.
         12    1    1    2    0    0  0.26390727440E+02 -0.64972808764E+01  0.30240388652E+02  0.40659147303E+02  0.00000000000E+00 0. -1.
         11    1    3    3    0    0  0.18389499261E+01  0.10769297872E+01 -0.25274247301E+01  0.33059628892E+01  0.51100000000E-03 0. -1.
        -11    1    3    3    0    0 -0.28031041769E+02  0.11866117000E+02 -0.27082763718E+02  0.40743344563E+02  0.51100000000E-03 0.  1.
        -12    1    3    3    0    0 -0.19863559669E+00 -0.64457659107E+01 -0.63020020411E+00  0.64795452443E+01  0.00000000000E+00 0.  1.
</event>
<event>
 7    1  0.2942034E-011  0.5052887E+02  0.7816164E-02  0.1300439E+00
        -11   -1    0    0    0    0  0.00000000000E+00  0.00000000000E+00  0.45593999997E+02  0.45594000000E+02  0.51100000000E-03 0.  1.
         11   -1    0    0    0    0 -0.00000000000E+00 -0.00000000000E+00 -0.45593999997E+02  0.45594000000E+02  0.51100000000E-03 0. -1.
    9900012    2    1    2    0    0  0.13089621662E+02 -0.14685980264E+02  0.35582984760E+02  0.50528867988E+02  0.30000024735E+02 0.  0.
         12    1    1    2    0    0 -0.13089621662E+02  0.14685980264E+02 -0.35582984760E+02  0.40659132012E+02  0.00000000000E+00 0. -1.
         11    1    3    3    0    0  0.13590332098E+01 -0.11076371897E+00 -0.18980690548E+01  0.23370721565E+01  0.51100000000E-03 0. -1.
        -11    1    3    3    0    0  0.80393966117E+01 -0.13568818555E+02  0.40406579783E+02  0.43375527949E+02  0.51100000000E-03 0.  1.
        -12    1    3    3    0    0  0.36911918408E+01 -0.10063979896E+01 -0.29255259683E+01  0.48162678819E+01  0.00000000000E+00 0.  1.
</event>
<event>
 7    1  0.2942034E-011  0.5052885E+02  0.7816164E-02  0.1300439E+00
        -11   -1    0    0    0    0  0.00000000000E+00  0.00000000000E+00  0.45593999997E+02  0.45594000000E+02  0.51100000000E-03 0.  1.
         11   -1    0    0    0    0 -0.00000000000E+00 -0.00000000000E+00 -0.45593999997E+02  0.45594000000E+02  0.51100000000E-03 0. -1.
    9900012    2    1    2    0    0 -0.35277773531E+02 -0.71784058184E+01  0.18897500082E+02  0.50528851893E+02  0.29999975814E+02 0.  0.
         12    1    1    2    0    0  0.35277773531E+02  0.71784058184E+01 -0.18897500082E+02  0.40659148107E+02  0.00000000000E+00 0. -1.
         11    1    3    3    0    0  0.27423457664E+01 -0.25661356081E+01 -0.22323497868E+01  0.43690843541E+01  0.51100000000E-03 0. -1.
        -11    1    3    3    0    0 -0.36790528288E+02 -0.20039994975E+01  0.15779443067E+02  0.40081789001E+02  0.51100000000E-03 0.  1.
        -12    1    3    3    0    0 -0.12295910095E+01 -0.26082707128E+01  0.53504068022E+01  0.60779785382E+01  0.00000000000E+00 0.  1.
</event>
<event>
 7    1  0.2942034E-011  0.5052886E+02  0.7816164E-02  0.1300439E+00
        -11   -1    0    0    0    0  0.00000000000E+00  0.00000000000E+00  0.45593999997E+02  0.45594000000E+02  0.51100000000E-03 0.  1.
         11   -1    0    0    0    0 -0.00000000000E+00 -0.00000000000E+00 -0.45593999997E+02  0.45594000000E+02  0.51100000000E-03 0. -1.
    9900012    2    1    2    0    0  0.19032008482E+02 -0.35550667597E+02  0.52056421640E+01  0.50528855594E+02  0.29999987065E+02 0.  0.
         12    1    1    2    0    0 -0.19032008482E+02  0.35550667597E+02 -0.52056421640E+01  0.40659144406E+02  0.00000000000E+00 0. -1.
         11    1    3    3    0    0  0.17008221753E+02 -0.19597875809E+02  0.26921363959E+01  0.26088387111E+02  0.51100000000E-03 0. -1.
        -11    1    3    3    0    0 -0.59570132705E+01 -0.14923972658E+02  0.31266371620E+01  0.16370303210E+02  0.51100000000E-03 0.  1.
        -12    1    3    3    0    0  0.79807999989E+01 -0.10288191308E+01 -0.61313139388E+00  0.80701652729E+01  0.00000000000E+00 0.  1.
</event>
<event>
 7    1  0.2942034E-011  0.5052887E+02  0.7816164E-02  0.1300439E+00
        -11   -1    0    0    0    0  0.00000000000E+00  0.00000000000E+00  0.45593999997E+02  0.45594000000E+02  0.51100000000E-03 0.  1.
         11   -1    0    0    0    0 -0.00000000000E+00 -0.00000000000E+00 -0.45593999997E+02  0.45594000000E+02  0.51100000000E-03 0. -1.
    9900012    2    1    2    0    0  0.26556910639E+02  0.14138552572E+02  0.27349532432E+02  0.50528867007E+02  0.30000021755E+02 0.  0.
         12    1    1    2    0    0 -0.26556910639E+02 -0.14138552572E+02 -0.27349532432E+02  0.40659132993E+02  0.00000000000E+00 0. -1.
         11    1    3    3    0    0  0.11004857458E+02  0.16290520705E+02  0.23005851297E+02  0.30261479585E+02  0.51100000000E-03 0. -1.
        -11    1    3    3    0    0  0.53151317422E+01 -0.42276953731E+01  0.67211415253E+01  0.95549870365E+01  0.51100000000E-03 0.  1.
         12    1    3    3    0    0  0.10236921438E+02  0.20757272392E+01 -0.23774603904E+01  0.10712400385E+02  0.00000000000E+00 0. -1.
</event>
<event>
 7    1  0.2942034E-011  0.5052885E+02  0.7816164E-02  0.1300439E+00
        -11   -1    0    0    0    0  0.00000000000E+00  0.00000000000E+00  0.45593999997E+02  0.45594000000E+02  0.51100000000E-03 0. -1.
         11   -1    0    0    0    0 -0.00000000000E+00 -0.00000000000E+00 -0.45593999997E+02  0.45594000000E+02  0.51100000000E-03 0.  1.
    9900012    2    1    2    0    0 -0.26795027500E+02 -0.21947031921E+02 -0.21296022588E+02  0.50528852358E+02  0.29999977229E+02 0.  0.
         12    1    1    2    0    0  0.26795027500E+02  0.21947031921E+02  0.21296022588E+02  0.40659147642E+02  0.00000000000E+00 0. -1.
         11    1    3    3    0    0 -0.16385296538E+02  0.19609777824E+01 -0.15514065676E+01  0.16574988359E+02  0.51100000000E-03 0. -1.
        -11    1    3    3    0    0 -0.11225706158E+02 -0.22388241346E+02 -0.15705970955E+02  0.29562262315E+02  0.51100000000E-03 0.  1.
        -12    1    3    3    0    0  0.81597519624E+00 -0.15197683572E+01 -0.40386450663E+01  0.43916016841E+01  0.00000000000E+00 0.  1.
</event>
<event>
 7    1  0.2942034E-011  0.5052887E+02  0.7816164E-02  0.1300439E+00
        -11   -1    0    0    0    0  0.00000000000E+00  0.00000000000E+00  0.45593999997E+02  0.45594000000E+02  0.51100000000E-03 0. -1.
         11   -1    0    0    0    0 -0.00000000000E+00 -0.00000000000E+00 -0.45593999997E+02  0.45594000000E+02  0.51100000000E-03 0.  1.
    9900012    2    1    2    0    0  0.12499333485E+02 -0.15331639778E+02 -0.35522840757E+02  0.50528871489E+02  0.30000035378E+02 0.  0.
         12    1    1    2    0    0 -0.12499333485E+02  0.15331639778E+02  0.35522840757E+02  0.40659128511E+02  0.00000000000E+00 0. -1.
         11    1    3    3    0    0  0.14291152675E+02  0.29721074862E+01 -0.17540029152E+02  0.22819357804E+02  0.51100000000E-03 0. -1.
        -11    1    3    3    0    0 -0.40153173337E+01 -0.22507986117E+01 -0.59597504304E+01  0.75304377784E+01  0.51100000000E-03 0.  1.
         12    1    3    3    0    0  0.22234981433E+01 -0.16052948653E+02 -0.12023061175E+02  0.20179075907E+02  0.00000000000E+00 0. -1.
</event>
<event>
 7    1  0.2942034E-011  0.5052886E+02  0.7816164E-02  0.1300439E+00
        -11   -1    0    0    0    0  0.00000000000E+00  0.00000000000E+00  0.45593999997E+02  0.45594000000E+02  0.51100000000E-03 0. -1.
         11   -1    0    0    0    0 -0.00000000000E+00 -0.00000000000E+00 -0.45593999997E+02  0.45594000000E+02  0.51100000000E-03 0.  1.
    9900012    2    1    2    0    0  0.39705123099E+02 -0.51671893953E+01  0.70688530812E+01  0.50528864120E+02  0.30000012980E+02 0.  0.
         12    1    1    2    0    0 -0.39705123099E+02  0.51671893953E+01 -0.70688530812E+01  0.40659135880E+02  0.00000000000E+00 0. -1.
         11    1    3    3    0    0  0.17328563740E+01 -0.14968176042E+01  0.67178236568E+01  0.70973522597E+01  0.51100000000E-03 0. -1.
        -11    1    3    3    0    0  0.39824608985E+02 -0.10282729648E+01 -0.11900455992E+01  0.39855652484E+02  0.51100000000E-03 0.  1.
        -12    1    3    3    0    0 -0.18523422598E+01 -0.26420988263E+01  0.15410750236E+01  0.35758593770E+01  0.00000000000E+00 0.  1.
</event>
<event>
 7    1  0.2942034E-011  0.5052885E+02  0.7816164E-02  0.1300439E+00
        -11   -1    0    0    0    0  0.00000000000E+00  0.00000000000E+00  0.45593999997E+02  0.45594000000E+02  0.51100000000E-03 0. -1.
         11   -1    0    0    0    0 -0.00000000000E+00 -0.00000000000E+00 -0.45593999997E+02  0.45594000000E+02  0.51100000000E-03 0.  1.
    9900012    2    1    2    0    0  0.39127924159E+02 -0.85085940791E+01 -0.70552215428E+01  0.50528846378E+02  0.29999959051E+02 0.  0.
         12    1    1    2    0    0 -0.39127924159E+02  0.85085940791E+01  0.70552215428E+01  0.40659153622E+02  0.00000000000E+00 0. -1.
         11    1    3    3    0    0  0.10042652014E+02 -0.24040855843E+00  0.10060169966E+02  0.14216879959E+02  0.51100000000E-03 0. -1.
        -11    1    3    3    0    0  0.25084125886E+02 -0.53956878400E+01 -0.97427045467E+01  0.27445347709E+02  0.51100000000E-03 0.  1.
         12    1    3    3    0    0  0.40011462595E+01 -0.28724976807E+01 -0.73726869622E+01  0.88666187105E+01  0.00000000000E+00 0. -1.
</event>
<event>
 7    1  0.2942034E-011  0.5052886E+02  0.7816164E-02  0.1300439E+00
        -11   -1    0    0    0    0  0.00000000000E+00  0.00000000000E+00  0.45593999997E+02  0.45594000000E+02  0.51100000000E-03 0.  1.
         11   -1    0    0    0    0 -0.00000000000E+00 -0.00000000000E+00 -0.45593999997E+02  0.45594000000E+02  0.51100000000E-03 0. -1.
    9900012    2    1    2    0    0  0.65692767167E+00  0.39716304251E+01  0.40459365179E+02  0.50528860402E+02  0.30000001677E+02 0.  0.
         12    1    1    2    0    0 -0.65692767167E+00 -0.39716304251E+01 -0.40459365179E+02  0.40659139598E+02  0.00000000000E+00 0. -1.
         11    1    3    3    0    0 -0.77770852575E+01  0.43519068748E+01  0.86795651803E+00  0.89540771343E+01  0.51100000000E-03 0. -1.
        -11    1    3    3    0    0  0.12638491965E+01  0.37736751387E+01  0.83003757631E+01  0.92051168875E+01  0.51100000000E-03 0.  1.
         12    1    3    3    0    0  0.71701637327E+01 -0.41539515884E+01  0.31291032898E+02  0.32369666380E+02  0.00000000000E+00 0. -1.
</event>
<event>
 7    1  0.2942034E-011  0.5052886E+02  0.7816164E-02  0.1300439E+00
        -11   -1    0    0    0    0  0.00000000000E+00  0.00000000000E+00  0.45593999997E+02  0.45594000000E+02  0.51100000000E-03 0.  1.
         11   -1    0    0    0    0 -0.00000000000E+00 -0.00000000000E+00 -0.45593999997E+02  0.45594000000E+02  0.51100000000E-03 0. -1.
    9900012    2    1    2    0    0  0.30034577200E+01  0.31633274592E+02  0.25366929329E+02  0.50528856831E+02  0.29999990822E+02 0.  0.
         12    1    1    2    0    0 -0.30034577200E+01 -0.31633274592E+02 -0.25366929329E+02  0.40659143169E+02  0.00000000000E+00 0. -1.
         11    1    3    3    0    0 -0.51906751378E+01  0.15658800045E+02  0.80160257785E+01  0.18341150367E+02  0.51100000000E-03 0. -1.
        -11    1    3    3    0    0  0.99580872211E+01  0.13489792832E+02  0.21358198328E+02  0.27153464748E+02  0.51100000000E-03 0.  1.
        -12    1    3    3    0    0 -0.17639543633E+01  0.24846817154E+01 -0.40072947774E+01  0.50342417161E+01  0.00000000000E+00 0.  1.
</event>
<event>
 7    1  0.2942034E-011  0.5052886E+02  0.7816164E-02  0.1300439E+00
        -11   -1    0    0    0    0  0.00000000000E+00  0.00000000000E+00  0.45593999997E+02  0.45594000000E+02  0.51100000000E-03 0.  1.
         11   -1    0    0    0    0 -0.00000000000E+00 -0.00000000000E+00 -0.45593999997E+02  0.45594000000E+02  0.51100000000E-03 0. -1.
    9900012    2    1    2    0    0  0.17894414188E+02 -0.15950444880E+02  0.32841112688E+02  0.50528862852E+02  0.30000009126E+02 0.  0.
         12    1    1    2    0    0 -0.17894414188E+02  0.15950444880E+02 -0.32841112688E+02  0.40659137148E+02  0.00000000000E+00 0. -1.
         11    1    3    3    0    0 -0.21140111632E+01 -0.10542728888E+01 -0.41919567182E+00  0.23992206640E+01  0.51100000000E-03 0. -1.
        -11    1    3    3    0    0  0.13634953871E+02  0.41104430208E+01  0.17904338986E+02  0.22877348266E+02  0.51100000000E-03 0.  1.
        -12    1    3    3    0    0  0.63734714804E+01 -0.19006615012E+02  0.15355969374E+02  0.25252293922E+02  0.00000000000E+00 0.  1.
</event>
<event>
 7    1  0.2942034E-011  0.5052886E+02  0.7816164E-02  0.1300439E+00
        -11   -1    0    0    0    0  0.00000000000E+00  0.00000000000E+00  0.45593999997E+02  0.45594000000E+02  0.51100000000E-03 0. -1.
         11   -1    0    0    0    0 -0.00000000000E+00 -0.00000000000E+00 -0.45593999997E+02  0.45594000000E+02  0.51100000000E-03 0.  1.
    9900012    2    1    2    0    0 -0.77938518197E+01  0.39811057908E+02  0.27388648132E+01  0.50528857874E+02  0.29999993993E+02 0.  0.
         12    1    1    2    0    0  0.77938518197E+01 -0.39811057908E+02 -0.27388648132E+01  0.40659142126E+02  0.00000000000E+00 0. -1.
         11    1    3    3    0    0 -0.83932138923E+01  0.15900136658E+02 -0.99421552978E+01  0.20545238802E+02  0.51100000000E-03 0. -1.
        -11    1    3    3    0    0 -0.17975666896E+01  0.18923550212E+02  0.35956703152E+01  0.19345822389E+02  0.51100000000E-03 0.  1.
         12    1    3    3    0    0  0.23969287622E+01  0.49873710383E+01  0.90853497958E+01  0.10637796683E+02  0.00000000000E+00 0. -1.
</event>
<event>
 7    1  0.2942034E-011  0.5052885E+02  0.7816164E-02  0.1300439E+00
        -11   -1    0    0    0    0  0.00000000000E+00  0.00000000000E+00  0.45593999997E+02  0.45594000000E+02  0.51100000000E-03 0.  1.
         11   -1    0    0    0    0 -0.00000000000E+00 -0.00000000000E+00 -0.45593999997E+02  0.45594000000E+02  0.51100000000E-03 0. -1.
    9900012    2    1    2    0    0  0.23634098032E+02  0.15095186435E+02  0.29440295880E+02  0.50528852631E+02  0.29999978056E+02 0.  0.
         12    1    1    2    0    0 -0.23634098032E+02 -0.15095186435E+02 -0.29440295880E+02  0.40659147369E+02  0.00000000000E+00 0. -1.
         11    1    3    3    0    0  0.88133509726E+01  0.14254772693E+01 -0.14924186988E+01  0.90517652778E+01  0.51100000000E-03 0. -1.
        -11    1    3    3    0    0  0.17632686042E+02  0.95919668422E+01  0.30489798262E+02  0.36504044204E+02  0.51100000000E-03 0.  1.
        -12    1    3    3    0    0 -0.28119389820E+01  0.40777423234E+01  0.44291631694E+00  0.49730431487E+01  0.00000000000E+00 0.  1.
</event>
<event>
 7    1  0.2942034E-011  0.5052885E+02  0.7816164E-02  0.1300439E+00
        -11   -1    0    0    0    0  0.00000000000E+00  0.00000000000E+00  0.45593999997E+02  0.45594000000E+02  0.51100000000E-03 0.  1.
         11   -1    0    0    0    0 -0.00000000000E+00 -0.00000000000E+00 -0.45593999997E+02  0.45594000000E+02  0.51100000000E-03 0. -1.
    9900012    2    1    2    0    0  0.38718484648E+01  0.15468001047E+02  0.37402085145E+02  0.50528852934E+02  0.29999978977E+02 0.  0.
         12    1    1    2    0    0 -0.38718484648E+01 -0.15468001047E+02 -0.37402085145E+02  0.40659147066E+02  0.00000000000E+00 0. -1.
         11    1    3    3    0    0  0.44011200042E+01  0.21680724075E+02  0.22341399746E+02  0.31441402586E+02  0.51100000000E-03 0. -1.
        -11    1    3    3    0    0 -0.55365579556E+00 -0.82122639362E+01  0.14972555573E+02  0.17085819686E+02  0.51100000000E-03 0.  1.
        -12    1    3    3    0    0  0.24384256157E-01  0.19995409086E+01  0.88129825848E-01  0.20016306611E+01  0.00000000000E+00 0.  1.
</event>
<event>
 7    1  0.2942034E-011  0.5052886E+02  0.7816164E-02  0.1300439E+00
        -11   -1    0    0    0    0  0.00000000000E+00  0.00000000000E+00  0.45593999997E+02  0.45594000000E+02  0.51100000000E-03 0.  1.
         11   -1    0    0    0    0 -0.00000000000E+00 -0.00000000000E+00 -0.45593999997E+02  0.45594000000E+02  0.51100000000E-03 0. -1.
    9900012    2    1    2    0    0  0.69469230392E+01  0.55748866100E+01  0.39671480104E+02  0.50528862846E+02  0.30000009107E+02 0.  0.
         12    1    1    2    0    0 -0.69469230392E+01 -0.55748866100E+01 -0.39671480104E+02  0.40659137154E+02  0.00000000000E+00 0. -1.
         11    1    3    3    0    0 -0.64336820205E+01  0.60051840699E+00  0.70823237911E+01  0.95870849188E+01  0.51100000000E-03 0. -1.
        -11    1    3    3    0    0  0.98807529363E+01  0.10632346435E+02  0.30805772175E+02  0.34053952324E+02  0.51100000000E-03 0.  1.
        -12    1    3    3    0    0  0.34998521233E+01 -0.56579782321E+01  0.17833841382E+01  0.68878256035E+01  0.00000000000E+00 0.  1.
</event>
<event>
 7    1  0.2942034E-011  0.5052878E+02  0.7816164E-02  0.1300439E+00
        -11   -1    0    0    0    0  0.00000000000E+00  0.00000000000E+00  0.45593999997E+02  0.45594000000E+02  0.51100000000E-03 0. -1.
         11   -1    0    0    0    0 -0.00000000000E+00 -0.00000000000E+00 -0.45593999997E+02  0.45594000000E+02  0.51100000000E-03 0.  1.
    9900012    2    1    2    0    0  0.65606960879E+01 -0.37772387363E+02 -0.13541656431E+02  0.50528776703E+02  0.29999747266E+02 0.  0.
         12    1    1    2    0    0 -0.65606960879E+01  0.37772387363E+02  0.13541656431E+02  0.40659223297E+02  0.00000000000E+00 0. -1.
         11    1    3    3    0    0 -0.61230351912E+01 -0.31613726114E+01 -0.49042674248E+01  0.84579947964E+01  0.51100000000E-03 0. -1.
        -11    1    3    3    0    0  0.29228857369E+01 -0.30216997164E+02 -0.50103999146E+01  0.30768722532E+02  0.51100000000E-03 0.  1.
        -12    1    3    3    0    0  0.97608455421E+01 -0.43940175868E+01 -0.36269890914E+01  0.11302059375E+02  0.00000000000E+00 0.  1.
</event>
<event>
 7    1  0.2942034E-011  0.5052893E+02  0.7816164E-02  0.1300439E+00
        -11   -1    0    0    0    0  0.00000000000E+00  0.00000000000E+00  0.45593999997E+02  0.45594000000E+02  0.51100000000E-03 0.  1.
         11   -1    0    0    0    0 -0.00000000000E+00 -0.00000000000E+00 -0.45593999997E+02  0.45594000000E+02  0.51100000000E-03 0. -1.
    9900012    2    1    2    0    0 -0.19976432616E+01  0.39151966052E+02  0.10783927048E+02  0.50528928357E+02  0.30000208232E+02 0.  0.
         12    1    1    2    0    0  0.19976432616E+01 -0.39151966052E+02 -0.10783927048E+02  0.40659071643E+02  0.00000000000E+00 0. -1.
         11    1    3    3    0    0  0.50777349837E+01  0.32442914721E+02  0.41421253928E+01  0.33098086216E+02  0.51100000000E-03 0. -1.
        -11    1    3    3    0    0 -0.99552862475E+01  0.60196587412E+01  0.80544833917E+01  0.14149866381E+02  0.51100000000E-03 0.  1.
        -12    1    3    3    0    0  0.28799080022E+01  0.68939258971E+00 -0.14126817364E+01  0.32809757591E+01  0.00000000000E+00 0.  1.
</event>
<event>
 7    1  0.2942034E-011  0.5052886E+02  0.7816164E-02  0.1300439E+00
        -11   -1    0    0    0    0  0.00000000000E+00  0.00000000000E+00  0.45593999997E+02  0.45594000000E+02  0.51100000000E-03 0. -1.
         11   -1    0    0    0    0 -0.00000000000E+00 -0.00000000000E+00 -0.45593999997E+02  0.45594000000E+02  0.51100000000E-03 0.  1.
    9900012    2    1    2    0    0  0.70781072808E+00 -0.23594603728E+02 -0.33105280486E+02  0.50528856906E+02  0.29999991052E+02 0.  0.
         12    1    1    2    0    0 -0.70781072808E+00  0.23594603728E+02  0.33105280486E+02  0.40659143094E+02  0.00000000000E+00 0. -1.
         11    1    3    3    0    0  0.90932673188E+00  0.31381085648E+01 -0.17778233125E+02  0.18075955681E+02  0.51100000000E-03 0. -1.
        -11    1    3    3    0    0  0.69951910688E+00 -0.17290137227E+02 -0.41529198551E+01  0.17795643172E+02  0.51100000000E-03 0.  1.
         12    1    3    3    0    0 -0.90103511069E+00 -0.94425750652E+01 -0.11174127506E+02  0.14657258054E+02  0.00000000000E+00 0. -1.
</event>
<event>
 7    1  0.2942034E-011  0.5052885E+02  0.7816164E-02  0.1300439E+00
        -11   -1    0    0    0    0  0.00000000000E+00  0.00000000000E+00  0.45593999997E+02  0.45594000000E+02  0.51100000000E-03 0. -1.
         11   -1    0    0    0    0 -0.00000000000E+00 -0.00000000000E+00 -0.45593999997E+02  0.45594000000E+02  0.51100000000E-03 0.  1.
    9900012    2    1    2    0    0 -0.28784225774E+02 -0.15688455688E+01 -0.28673571218E+02  0.50528848310E+02  0.29999964922E+02 0.  0.
         12    1    1    2    0    0  0.28784225774E+02  0.15688455688E+01  0.28673571218E+02  0.40659151690E+02  0.00000000000E+00 0. -1.
         11    1    3    3    0    0 -0.83286763112E+01 -0.85131068231E+01 -0.21803080748E+02  0.24843795347E+02  0.51100000000E-03 0. -1.
        -11    1    3    3    0    0 -0.21298847133E+02  0.70617411864E+01 -0.83793751662E+01  0.23952515655E+02  0.51100000000E-03 0.  1.
         12    1    3    3    0    0  0.84329767056E+00 -0.11747993209E+00  0.15088846962E+01  0.17325373076E+01  0.00000000000E+00 0. -1.
</event>
<event>
 7    1  0.2942034E-011  0.5052887E+02  0.7816164E-02  0.1300439E+00
        -11   -1    0    0    0    0  0.00000000000E+00  0.00000000000E+00  0.45593999997E+02  0.45594000000E+02  0.51100000000E-03 0.  1.
         11   -1    0    0    0    0 -0.00000000000E+00 -0.00000000000E+00 -0.45593999997E+02  0.45594000000E+02  0.51100000000E-03 0. -1.
    9900012    2    1    2    0    0 -0.41812759290E+01 -0.13134366217E+02  0.38251410158E+02  0.50528867897E+02  0.30000024459E+02 0.  0.
         12    1    1    2    0    0  0.41812759290E+01  0.13134366217E+02 -0.38251410158E+02  0.40659132103E+02  0.00000000000E+00 0. -1.
         11    1    3    3    0    0 -0.40533955585E+01  0.53357239836E+01 -0.56036620668E+00  0.67241338869E+01  0.51100000000E-03 0. -1.
        -11    1    3    3    0    0  0.30019110432E+01 -0.13428630230E+02  0.31596975421E+02  0.34463146052E+02  0.51100000000E-03 0.  1.
        -12    1    3    3    0    0 -0.31297914137E+01 -0.50414599706E+01  0.72148009434E+01  0.93415879582E+01  0.00000000000E+00 0.  1.
</event>
<event>
 7    1  0.2942034E-011  0.5052886E+02  0.7816164E-02  0.1300439E+00
        -11   -1    0    0    0    0  0.00000000000E+00  0.00000000000E+00  0.45593999997E+02  0.45594000000E+02  0.51100000000E-03 0.  1.
         11   -1    0    0    0    0 -0.00000000000E+00 -0.00000000000E+00 -0.45593999997E+02  0.45594000000E+02  0.51100000000E-03 0. -1.
    9900012    2    1    2    0    0 -0.14653011566E+02  0.25498139257E+00  0.37926111671E+02  0.50528859454E+02  0.29999998796E+02 0.  0.
         12    1    1    2    0    0  0.14653011566E+02 -0.25498139257E+00 -0.37926111671E+02  0.40659140546E+02  0.00000000000E+00 0. -1.
         11    1    3    3    0    0 -0.33043807796E+01  0.98586610204E+01  0.56901217770E+01  0.11852831541E+02  0.51100000000E-03 0. -1.
        -11    1    3    3    0    0 -0.67876332895E+01 -0.13352634666E+02  0.26523473201E+02  0.30460785431E+02  0.51100000000E-03 0.  1.
        -12    1    3    3    0    0 -0.45609974968E+01  0.37489550386E+01  0.57125166937E+01  0.82152424811E+01  0.00000000000E+00 0.  1.
</event>
<event>
 7    1  0.2942034E-011  0.5052890E+02  0.7816164E-02  0.1300439E+00
        -11   -1    0    0    0    0  0.00000000000E+00  0.00000000000E+00  0.45593999997E+02  0.45594000000E+02  0.51100000000E-03 0.  1.
         11   -1    0    0    0    0 -0.00000000000E+00 -0.00000000000E+00 -0.45593999997E+02  0.45594000000E+02  0.51100000000E-03 0. -1.
    9900012    2    1    2    0    0  0.28430197283E+02  0.16490544190E+02  0.23936340321E+02  0.50528898273E+02  0.30000116792E+02 0.  0.
         12    1    1    2    0    0 -0.28430197283E+02 -0.16490544190E+02 -0.23936340321E+02  0.40659101727E+02  0.00000000000E+00 0. -1.
         11    1    3    3    0    0 -0.80458095798E+00 -0.58596094058E+00  0.47504070339E+01  0.48535624021E+01  0.51100000000E-03 0. -1.
        -11    1    3    3    0    0  0.26790552983E+02  0.15684821458E+02  0.24576671639E+02  0.39594950971E+02  0.51100000000E-03 0.  1.
        -12    1    3    3    0    0  0.24442252586E+01  0.13916836720E+01 -0.53907383518E+01  0.60803849002E+01  0.00000000000E+00 0.  1.
</event>
<event>
 7    1  0.2942034E-011  0.5052887E+02  0.7816164E-02  0.1300439E+00
        -11   -1    0    0    0    0  0.00000000000E+00  0.00000000000E+00  0.45593999997E+02  0.45594000000E+02  0.51100000000E-03 0.  1.
         11   -1    0    0    0    0 -0.00000000000E+00 -0.00000000000E+00 -0.45593999997E+02  0.45594000000E+02  0.51100000000E-03 0. -1.
    9900012    2    1    2    0    0 -0.29789954526E+02 -0.56315985947E+01  0.27092599664E+02  0.50528865111E+02  0.30000015992E+02 0.  0.
         12    1    1    2    0    0  0.29789954526E+02  0.56315985947E+01 -0.27092599664E+02  0.40659134889E+02  0.00000000000E+00 0. -1.
         11    1    3    3    0    0 -0.10221799095E+02 -0.75860719567E+00 -0.22452123914E+01  0.10492932887E+02  0.51100000000E-03 0. -1.
        -11    1    3    3    0    0 -0.77510961621E+01  0.69027356635E+01  0.13538238476E+02  0.17059048996E+02  0.51100000000E-03 0.  1.
        -12    1    3    3    0    0 -0.11817059268E+02 -0.11775727063E+02  0.15799573579E+02  0.22976883228E+02  0.00000000000E+00 0.  1.
</event>
<event>
 7    1  0.2942034E-011  0.5052885E+02  0.7816164E-02  0.1300439E+00
        -11   -1    0    0    0    0  0.00000000000E+00  0.00000000000E+00  0.45593999997E+02  0.45594000000E+02  0.51100000000E-03 0.  1.
         11   -1    0    0    0    0 -0.00000000000E+00 -0.00000000000E+00 -0.45593999997E+02  0.45594000000E+02  0.51100000000E-03 0. -1.
    9900012    2    1    2    0    0 -0.29963127109E+01  0.23078135418E+02  0.33340485925E+02  0.50528853109E+02  0.29999979509E+02 0.  0.
         12    1    1    2    0    0  0.29963127109E+01 -0.23078135418E+02 -0.33340485925E+02  0.40659146891E+02  0.00000000000E+00 0. -1.
         11    1    3    3    0    0 -0.11747691517E+02  0.10330450142E+02  0.10382836685E+02  0.18775775723E+02  0.51100000000E-03 0. -1.
        -11    1    3    3    0    0  0.66023917897E+01  0.11772338990E+02  0.25142912310E+02  0.28536740920E+02  0.51100000000E-03 0.  1.
         12    1    3    3    0    0  0.21489870161E+01  0.97534628657E+00 -0.21852630704E+01  0.32163364657E+01  0.00000000000E+00 0. -1.
</event>
<event>
 7    1  0.2942034E-011  0.5052887E+02  0.7816164E-02  0.1300439E+00
        -11   -1    0    0    0    0  0.00000000000E+00  0.00000000000E+00  0.45593999997E+02  0.45594000000E+02  0.51100000000E-03 0.  1.
         11   -1    0    0    0    0 -0.00000000000E+00 -0.00000000000E+00 -0.45593999997E+02  0.45594000000E+02  0.51100000000E-03 0. -1.
    9900012    2    1    2    0    0  0.17817974481E+02 -0.35649426260E+02 -0.80500574618E+01  0.50528865326E+02  0.30000016645E+02 0.  0.
         12    1    1    2    0    0 -0.17817974481E+02  0.35649426260E+02  0.80500574618E+01  0.40659134674E+02  0.00000000000E+00 0. -1.
         11    1    3    3    0    0  0.29330737589E+00 -0.14874694032E+02 -0.89999343545E+01  0.17387966253E+02  0.51100000000E-03 0. -1.
        -11    1    3    3    0    0  0.20173821450E+02 -0.22298524718E+02  0.78373807339E+00  0.30080251364E+02  0.51100000000E-03 0.  1.
         12    1    3    3    0    0 -0.26491543444E+01  0.15237924896E+01  0.16613881936E+00  0.30606477091E+01  0.00000000000E+00 0. -1.
</event>
<event>
 7    1  0.2942034E-011  0.5052886E+02  0.7816164E-02  0.1300439E+00
        -11   -1    0    0    0    0  0.00000000000E+00  0.00000000000E+00  0.45593999997E+02  0.45594000000E+02  0.51100000000E-03 0. -1.
         11   -1    0    0    0    0 -0.00000000000E+00 -0.00000000000E+00 -0.45593999997E+02  0.45594000000E+02  0.51100000000E-03 0.  1.
    9900012    2    1    2    0    0 -0.12987623823E+02  0.20795857617E+02 -0.32434853178E+02  0.50528858749E+02  0.29999996653E+02 0.  0.
         12    1    1    2    0    0  0.12987623823E+02 -0.20795857617E+02  0.32434853178E+02  0.40659141251E+02  0.00000000000E+00 0. -1.
         11    1    3    3    0    0  0.33827269298E+01  0.98516453196E+01 -0.48320210217E+01  0.11482429377E+02  0.51100000000E-03 0. -1.
        -11    1    3    3    0    0 -0.78466693359E+01 -0.50424774937E+01 -0.11504050076E+02  0.14810130565E+02  0.51100000000E-03 0.  1.
        -12    1    3    3    0    0 -0.85236814173E+01  0.15986689792E+02 -0.16098782079E+02  0.24236298806E+02  0.00000000000E+00 0.  1.
</event>
<event>
 7    1  0.2942034E-011  0.5052886E+02  0.7816164E-02  0.1300439E+00
        -11   -1    0    0    0    0  0.00000000000E+00  0.00000000000E+00  0.45593999997E+02  0.45594000000E+02  0.51100000000E-03 0. -1.
         11   -1    0    0    0    0 -0.00000000000E+00 -0.00000000000E+00 -0.45593999997E+02  0.45594000000E+02  0.51100000000E-03 0.  1.
    9900012    2    1    2    0    0 -0.32794275855E+02  0.11099996074E+02 -0.21318793052E+02  0.50528863524E+02  0.30000011169E+02 0.  0.
         12    1    1    2    0    0  0.32794275855E+02 -0.11099996074E+02  0.21318793052E+02  0.40659136476E+02  0.00000000000E+00 0. -1.
         11    1    3    3    0    0 -0.90514664880E+01 -0.80710251983E+01 -0.10312603828E+02  0.15919179982E+02  0.51100000000E-03 0. -1.
        -11    1    3    3    0    0 -0.97639806880E+01  0.14949770263E+02 -0.85685827896E+01  0.19805341731E+02  0.51100000000E-03 0.  1.
         12    1    3    3    0    0 -0.13978828679E+02  0.42212510090E+01 -0.24376064351E+01  0.14804341811E+02  0.00000000000E+00 0. -1.
</event>
<event>
 7    1  0.2942034E-011  0.5052888E+02  0.7816164E-02  0.1300439E+00
        -11   -1    0    0    0    0  0.00000000000E+00  0.00000000000E+00  0.45593999997E+02  0.45594000000E+02  0.51100000000E-03 0.  1.
         11   -1    0    0    0    0 -0.00000000000E+00 -0.00000000000E+00 -0.45593999997E+02  0.45594000000E+02  0.51100000000E-03 0. -1.
    9900012    2    1    2    0    0  0.27194369295E+02  0.24306440867E+02  0.17967405315E+02  0.50528875038E+02  0.30000046164E+02 0.  0.
         12    1    1    2    0    0 -0.27194369295E+02 -0.24306440867E+02 -0.17967405315E+02  0.40659124962E+02  0.00000000000E+00 0. -1.
         11    1    3    3    0    0  0.11687719515E+02  0.18059485271E+02  0.21355631245E+02  0.30311891757E+02  0.51100000000E-03 0. -1.
        -11    1    3    3    0    0  0.70272720621E+01  0.85313341286E+01 -0.28730551672E+01  0.11420186553E+02  0.51100000000E-03 0.  1.
         12    1    3    3    0    0  0.84793777175E+01 -0.22843785331E+01 -0.51517076293E+00  0.87967967280E+01  0.00000000000E+00 0. -1.
</event>
<event>
 7    1  0.2942034E-011  0.5052886E+02  0.7816164E-02  0.1300439E+00
        -11   -1    0    0    0    0  0.00000000000E+00  0.00000000000E+00  0.45593999997E+02  0.45594000000E+02  0.51100000000E-03 0. -1.
         11   -1    0    0    0    0 -0.00000000000E+00 -0.00000000000E+00 -0.45593999997E+02  0.45594000000E+02  0.51100000000E-03 0.  1.
    9900012    2    1    2    0    0  0.57666698684E+01 -0.66661211822E+01 -0.39692236347E+02  0.50528864751E+02  0.30000014896E+02 0.  0.
         12    1    1    2    0    0 -0.57666698684E+01  0.66661211822E+01  0.39692236347E+02  0.40659135249E+02  0.00000000000E+00 0. -1.
         11    1    3    3    0    0 -0.10449886668E+00 -0.12475004444E+02 -0.25992380455E+02  0.28831241699E+02  0.51100000000E-03 0. -1.
        -11    1    3    3    0    0  0.28626310075E+01  0.10690363594E+02 -0.95726552216E+01  0.14632643586E+02  0.51100000000E-03 0.  1.
        -12    1    3    3    0    0  0.30085377275E+01 -0.48814803314E+01 -0.41272006701E+01  0.70649794661E+01  0.00000000000E+00 0.  1.
</event>
<event>
 7    1  0.2942034E-011  0.5052894E+02  0.7816164E-02  0.1300439E+00
        -11   -1    0    0    0    0  0.00000000000E+00  0.00000000000E+00  0.45593999997E+02  0.45594000000E+02  0.51100000000E-03 0.  1.
         11   -1    0    0    0    0 -0.00000000000E+00 -0.00000000000E+00 -0.45593999997E+02  0.45594000000E+02  0.51100000000E-03 0. -1.
    9900012    2    1    2    0    0 -0.18537638408E+00 -0.21900312060E+02  0.34256405588E+02  0.50528937584E+02  0.30000236280E+02 0.  0.
         12    1    1    2    0    0  0.18537638408E+00  0.21900312060E+02 -0.34256405588E+02  0.40659062416E+02  0.00000000000E+00 0. -1.
         11    1    3    3    0    0 -0.14840949085E+01  0.66957281346E+00  0.34630700260E+00  0.16645702902E+01  0.51100000000E-03 0. -1.
        -11    1    3    3    0    0 -0.55238869943E+01 -0.26388572379E+02  0.22977360245E+02  0.35423567915E+02  0.51100000000E-03 0.  1.
        -12    1    3    3    0    0  0.68226055188E+01  0.38186875055E+01  0.10932738340E+02  0.13440799379E+02  0.00000000000E+00 0.  1.
</event>
<event>
 7    1  0.2942034E-011  0.5052888E+02  0.7816164E-02  0.1300439E+00
        -11   -1    0    0    0    0  0.00000000000E+00  0.00000000000E+00  0.45593999997E+02  0.45594000000E+02  0.51100000000E-03 0.  1.
         11   -1    0    0    0    0 -0.00000000000E+00 -0.00000000000E+00 -0.45593999997E+02  0.45594000000E+02  0.51100000000E-03 0. -1.
    9900012    2    1    2    0    0  0.25319609431E+02  0.20160606532E+02  0.24609573441E+02  0.50528883157E+02  0.30000070844E+02 0.  0.
         12    1    1    2    0    0 -0.25319609431E+02 -0.20160606532E+02 -0.24609573441E+02  0.40659116843E+02  0.00000000000E+00 0. -1.
         11    1    3    3    0    0  0.28203038863E+01  0.51460655063E+01  0.38930081503E+01  0.70421315612E+01  0.51100000000E-03 0. -1.
        -11    1    3    3    0    0  0.20605280214E+01  0.95568215727E+01 -0.43379346794E+01  0.10695620218E+02  0.51100000000E-03 0.  1.
        -12    1    3    3    0    0  0.20438777523E+02  0.54577194535E+01  0.25054499970E+02  0.32791131378E+02  0.00000000000E+00 0.  1.
</event>
<event>
 7    1  0.2942034E-011  0.5052886E+02  0.7816164E-02  0.1300439E+00
        -11   -1    0    0    0    0  0.00000000000E+00  0.00000000000E+00  0.45593999997E+02  0.45594000000E+02  0.51100000000E-03 0. -1.
         11   -1    0    0    0    0 -0.00000000000E+00 -0.00000000000E+00 -0.45593999997E+02  0.45594000000E+02  0.51100000000E-03 0.  1.
    9900012    2    1    2    0    0  0.24576843851E+02  0.15371151214E+00 -0.32390128460E+02  0.50528864464E+02  0.30000014024E+02 0.  0.
         12    1    1    2    0    0 -0.24576843851E+02 -0.15371151214E+00  0.32390128460E+02  0.40659135536E+02  0.00000000000E+00 0. -1.
         11    1    3    3    0    0 -0.53220054391E+01  0.56512228823E+01 -0.69706543641E+01  0.10433124387E+02  0.51100000000E-03 0.  1.
        -11    1    3    3    0    0  0.16765289973E+02 -0.52333511994E+01 -0.17300581386E+02  0.24653053142E+02  0.51100000000E-03 0. -1.
         12    1    3    3    0    0  0.13133559317E+02 -0.26416017080E+00 -0.81188927102E+01  0.15442686935E+02  0.00000000000E+00 0. -1.
</event>
<event>
 7    1  0.2942034E-011  0.5052886E+02  0.7816164E-02  0.1300439E+00
        -11   -1    0    0    0    0  0.00000000000E+00  0.00000000000E+00  0.45593999997E+02  0.45594000000E+02  0.51100000000E-03 0.  1.
         11   -1    0    0    0    0 -0.00000000000E+00 -0.00000000000E+00 -0.45593999997E+02  0.45594000000E+02  0.51100000000E-03 0. -1.
    9900012    2    1    2    0    0 -0.30724857403E+02  0.24571393047E+02  0.10266219093E+02  0.50528862366E+02  0.30000007647E+02 0.  0.
         12    1    1    2    0    0  0.30724857403E+02 -0.24571393047E+02 -0.10266219093E+02  0.40659137634E+02  0.00000000000E+00 0. -1.
         11    1    3    3    0    0  0.61470222061E+00  0.14506534913E+02  0.73306425358E+01  0.16265169359E+02  0.51100000000E-03 0. -1.
        -11    1    3    3    0    0 -0.23718646589E+02  0.64025164650E+01  0.59663272047E+01  0.25281682572E+02  0.51100000000E-03 0.  1.
         12    1    3    3    0    0 -0.76209130340E+01  0.36623416688E+01 -0.30307506475E+01  0.89820104352E+01  0.00000000000E+00 0. -1.
</event>
<event>
 7    1  0.2942034E-011  0.5052885E+02  0.7816164E-02  0.1300439E+00
        -11   -1    0    0    0    0  0.00000000000E+00  0.00000000000E+00  0.45593999997E+02  0.45594000000E+02  0.51100000000E-03 0. -1.
         11   -1    0    0    0    0 -0.00000000000E+00 -0.00000000000E+00 -0.45593999997E+02  0.45594000000E+02  0.51100000000E-03 0.  1.
    9900012    2    1    2    0    0 -0.10077063189E+02 -0.22855348929E+02 -0.32081962992E+02  0.50528849411E+02  0.29999968270E+02 0.  0.
         12    1    1    2    0    0  0.10077063189E+02  0.22855348929E+02  0.32081962992E+02  0.40659150589E+02  0.00000000000E+00 0. -1.
         11    1    3    3    0    0 -0.98694337672E+01  0.21281540274E+01 -0.10776244137E+02  0.14766929282E+02  0.51100000000E-03 0. -1.
        -11    1    3    3    0    0 -0.36777789514E+01 -0.18414842940E+02 -0.21215415375E+02  0.28332425740E+02  0.51100000000E-03 0.  1.
        -12    1    3    3    0    0  0.34701495293E+01 -0.65686600156E+01 -0.90303480334E-01  0.74294943889E+01  0.00000000000E+00 0.  1.
</event>
<event>
 7    1  0.2942034E-011  0.5052887E+02  0.7816164E-02  0.1300439E+00
        -11   -1    0    0    0    0  0.00000000000E+00  0.00000000000E+00  0.45593999997E+02  0.45594000000E+02  0.51100000000E-03 0. -1.
         11   -1    0    0    0    0 -0.00000000000E+00 -0.00000000000E+00 -0.45593999997E+02  0.45594000000E+02  0.51100000000E-03 0.  1.
    9900012    2    1    2    0    0 -0.24748469304E+02  0.31923557592E+02  0.46437663201E+01  0.50528870301E+02  0.30000031768E+02 0.  0.
         12    1    1    2    0    0  0.24748469304E+02 -0.31923557592E+02 -0.46437663201E+01  0.40659129699E+02  0.00000000000E+00 0. -1.
         11    1    3    3    0    0 -0.13798646674E+01  0.68959726413E+00  0.78277773269E+01  0.79783249513E+01  0.51100000000E-03 0. -1.
        -11    1    3    3    0    0 -0.25676426688E+02  0.28727805032E+02 -0.10777143350E+01  0.38545131182E+02  0.51100000000E-03 0.  1.
        -12    1    3    3    0    0  0.23078220513E+01  0.25061552959E+01 -0.21062966718E+01  0.40054141680E+01  0.00000000000E+00 0.  1.
</event>
<event>
 7    1  0.2942034E-011  0.5052886E+02  0.7816164E-02  0.1300439E+00
        -11   -1    0    0    0    0  0.00000000000E+00  0.00000000000E+00  0.45593999997E+02  0.45594000000E+02  0.51100000000E-03 0. -1.
         11   -1    0    0    0    0 -0.00000000000E+00 -0.00000000000E+00 -0.45593999997E+02  0.45594000000E+02  0.51100000000E-03 0.  1.
    9900012    2    1    2    0    0  0.10772141625E+02 -0.91209646715E+01 -0.38130493876E+02  0.50528860868E+02  0.30000003093E+02 0.  0.
         12    1    1    2    0    0 -0.10772141625E+02  0.91209646715E+01  0.38130493876E+02  0.40659139132E+02  0.00000000000E+00 0. -1.
         11    1    3    3    0    0  0.79240351929E+01 -0.91794809571E-01 -0.25601598290E+02  0.26800011106E+02  0.51100000000E-03 0.  1.
        -11    1    3    3    0    0 -0.63560271606E+01 -0.72501872945E+01 -0.24171846836E+01  0.99401750049E+01  0.51100000000E-03 0. -1.
        -12    1    3    3    0    0  0.92041335924E+01 -0.17789825675E+01 -0.10111710903E+02  0.13788674757E+02  0.00000000000E+00 0.  1.
</event>
<event>
 7    1  0.2942034E-011  0.5052886E+02  0.7816164E-02  0.1300439E+00
        -11   -1    0    0    0    0  0.00000000000E+00  0.00000000000E+00  0.45593999997E+02  0.45594000000E+02  0.51100000000E-03 0.  1.
         11   -1    0    0    0    0 -0.00000000000E+00 -0.00000000000E+00 -0.45593999997E+02  0.45594000000E+02  0.51100000000E-03 0. -1.
    9900012    2    1    2    0    0 -0.12552720829E+02  0.10716275508E+01  0.38658069534E+02  0.50528861717E+02  0.30000005674E+02 0.  0.
         12    1    1    2    0    0  0.12552720829E+02 -0.10716275508E+01 -0.38658069534E+02  0.40659138283E+02  0.00000000000E+00 0. -1.
         11    1    3    3    0    0 -0.13534810389E+02  0.94178885334E+00  0.62713366441E+01  0.14946829834E+02  0.51100000000E-03 0. -1.
        -11    1    3    3    0    0 -0.35293526413E+01  0.22639618205E+01  0.29540728166E+02  0.29836830831E+02  0.51100000000E-03 0.  1.
        -12    1    3    3    0    0  0.45114422012E+01 -0.21341231230E+01  0.28460047238E+01  0.57452010519E+01  0.00000000000E+00 0.  1.
</event>
<event>
 7    1  0.2942034E-011  0.5052883E+02  0.7816164E-02  0.1300439E+00
        -11   -1    0    0    0    0  0.00000000000E+00  0.00000000000E+00  0.45593999997E+02  0.45594000000E+02  0.51100000000E-03 0.  1.
         11   -1    0    0    0    0 -0.00000000000E+00 -0.00000000000E+00 -0.45593999997E+02  0.45594000000E+02  0.51100000000E-03 0. -1.
    9900012    2    1    2    0    0 -0.24309194828E+02  0.28955779616E+02  0.14959744566E+02  0.50528830262E+02  0.29999910063E+02 0.  0.
         12    1    1    2    0    0  0.24309194828E+02 -0.28955779616E+02 -0.14959744566E+02  0.40659169738E+02  0.00000000000E+00 0. -1.
         11    1    3    3    0    0 -0.88046182764E+01 -0.32675099875E+01  0.26775637157E+00  0.93951912300E+01  0.51100000000E-03 0. -1.
        -11    1    3    3    0    0 -0.15590194254E+02  0.23132939462E+02  0.59539552178E+01  0.28524316434E+02  0.51100000000E-03 0.  1.
         12    1    3    3    0    0  0.85617702253E-01  0.90903501409E+01  0.87380329764E+01  0.12609322598E+02  0.00000000000E+00 0. -1.
</event>
<event>
 7    1  0.2942034E-011  0.5052886E+02  0.7816164E-02  0.1300439E+00
        -11   -1    0    0    0    0  0.00000000000E+00  0.00000000000E+00  0.45593999997E+02  0.45594000000E+02  0.51100000000E-03 0.  1.
         11   -1    0    0    0    0 -0.00000000000E+00 -0.00000000000E+00 -0.45593999997E+02  0.45594000000E+02  0.51100000000E-03 0. -1.
    9900012    2    1    2    0    0  0.24602441078E+02  0.22299062627E+02  0.23465656036E+02  0.50528864320E+02  0.30000013587E+02 0.  0.
         12    1    1    2    0    0 -0.24602441078E+02 -0.22299062627E+02 -0.23465656036E+02  0.40659135680E+02  0.00000000000E+00 0. -1.
         11    1    3    3    0    0  0.14517189873E+02  0.16725545874E+01  0.33455074033E+01  0.14991286159E+02  0.51100000000E-03 0. -1.
        -11    1    3    3    0    0  0.12184792613E+02  0.20583010113E+02  0.22162386835E+02  0.32608294448E+02  0.51100000000E-03 0.  1.
         12    1    3    3    0    0 -0.20995414082E+01  0.43497926819E-01 -0.20422382024E+01  0.29292837127E+01  0.00000000000E+00 0. -1.
</event>
<event>
 7    1  0.2942034E-011  0.5052886E+02  0.7816164E-02  0.1300439E+00
        -11   -1    0    0    0    0  0.00000000000E+00  0.00000000000E+00  0.45593999997E+02  0.45594000000E+02  0.51100000000E-03 0.  1.
         11   -1    0    0    0    0 -0.00000000000E+00 -0.00000000000E+00 -0.45593999997E+02  0.45594000000E+02  0.51100000000E-03 0. -1.
    9900012    2    1    2    0    0 -0.40011305929E+02  0.41205977165E+01 -0.59398607040E+01  0.50528857450E+02  0.29999992705E+02 0.  0.
         12    1    1    2    0    0  0.40011305929E+02 -0.41205977165E+01  0.59398607040E+01  0.40659142550E+02  0.00000000000E+00 0. -1.
         11    1    3    3    0    0  0.23253797768E+01  0.95374387405E+00 -0.16269602704E+01  0.29939970718E+01  0.51100000000E-03 0. -1.
        -11    1    3    3    0    0 -0.24174501385E+02  0.61133147252E+01  0.70454871741E+01  0.25911735255E+02  0.51100000000E-03 0.  1.
        -12    1    3    3    0    0 -0.18162184321E+02 -0.29464608828E+01 -0.11358387608E+02  0.21623125123E+02  0.00000000000E+00 0.  1.
</event>
<event>
 7    1  0.2942034E-011  0.5052887E+02  0.7816164E-02  0.1300439E+00
        -11   -1    0    0    0    0  0.00000000000E+00  0.00000000000E+00  0.45593999997E+02  0.45594000000E+02  0.51100000000E-03 0.  1.
         11   -1    0    0    0    0 -0.00000000000E+00 -0.00000000000E+00 -0.45593999997E+02  0.45594000000E+02  0.51100000000E-03 0. -1.
    9900012    2    1    2    0    0  0.24270959697E+02 -0.10162433931E+02  0.30996941162E+02  0.50528869298E+02  0.30000028719E+02 0.  0.
         12    1    1    2    0    0 -0.24270959697E+02  0.10162433931E+02 -0.30996941162E+02  0.40659130702E+02  0.00000000000E+00 0. -1.
         11    1    3    3    0    0  0.14401984630E+02  0.63516984447E+01  0.35717248453E+01  0.16140584037E+02  0.51100000000E-03 0. -1.
        -11    1    3    3    0    0  0.11143896601E+02 -0.13752528246E+02  0.23634965896E+02  0.29528462164E+02  0.51100000000E-03 0.  1.
         12    1    3    3    0    0 -0.12749215337E+01 -0.27616041300E+01  0.37902504213E+01  0.48598230980E+01  0.00000000000E+00 0. -1.
</event>
<event>
 7    1  0.2942034E-011  0.5052886E+02  0.7816164E-02  0.1300439E+00
        -11   -1    0    0    0    0  0.00000000000E+00  0.00000000000E+00  0.45593999997E+02  0.45594000000E+02  0.51100000000E-03 0.  1.
         11   -1    0    0    0    0 -0.00000000000E+00 -0.00000000000E+00 -0.45593999997E+02  0.45594000000E+02  0.51100000000E-03 0. -1.
    9900012    2    1    2    0    0 -0.26477842076E+02  0.54756644257E+01  0.30366213158E+02  0.50528856828E+02  0.29999990813E+02 0.  0.
         12    1    1    2    0    0  0.26477842076E+02 -0.54756644257E+01 -0.30366213158E+02  0.40659143172E+02  0.00000000000E+00 0. -1.
         11    1    3    3    0    0  0.20619947337E+01 -0.31098822452E+01  0.12304197564E+02  0.12857545171E+02  0.51100000000E-03 0. -1.
        -11    1    3    3    0    0 -0.27555153419E+02  0.11375253785E+02  0.17753633450E+02  0.34696892939E+02  0.51100000000E-03 0.  1.
        -12    1    3    3    0    0 -0.98468339078E+00 -0.27897071144E+01  0.30838214399E+00  0.29744187182E+01  0.00000000000E+00 0.  1.
</event>
<event>
 7    1  0.2942034E-011  0.5052886E+02  0.7816164E-02  0.1300439E+00
        -11   -1    0    0    0    0  0.00000000000E+00  0.00000000000E+00  0.45593999997E+02  0.45594000000E+02  0.51100000000E-03 0.  1.
         11   -1    0    0    0    0 -0.00000000000E+00 -0.00000000000E+00 -0.45593999997E+02  0.45594000000E+02  0.51100000000E-03 0. -1.
    9900012    2    1    2    0    0  0.17810538023E+02 -0.14138186270E+02  0.33705524354E+02  0.50528856531E+02  0.29999989912E+02 0.  0.
         12    1    1    2    0    0 -0.17810538023E+02  0.14138186270E+02 -0.33705524354E+02  0.40659143469E+02  0.00000000000E+00 0. -1.
         11    1    3    3    0    0  0.20282311994E+02 -0.85028678162E+01  0.13957690948E+02  0.26047803704E+02  0.51100000000E-03 0. -1.
        -11    1    3    3    0    0 -0.78799960926E+01 -0.36686208723E+01  0.12534866849E+02  0.15253721012E+02  0.51100000000E-03 0.  1.
        -12    1    3    3    0    0  0.54082221211E+01 -0.19666975816E+01  0.72129665568E+01  0.92273318158E+01  0.00000000000E+00 0.  1.
</event>
<event>
 7    1  0.2942034E-011  0.5052886E+02  0.7816164E-02  0.1300439E+00
        -11   -1    0    0    0    0  0.00000000000E+00  0.00000000000E+00  0.45593999997E+02  0.45594000000E+02  0.51100000000E-03 0.  1.
         11   -1    0    0    0    0 -0.00000000000E+00 -0.00000000000E+00 -0.45593999997E+02  0.45594000000E+02  0.51100000000E-03 0. -1.
    9900012    2    1    2    0    0  0.17336889928E+02 -0.59238595346E+01  0.36297460680E+02  0.50528861840E+02  0.30000006048E+02 0.  0.
         12    1    1    2    0    0 -0.17336889928E+02  0.59238595346E+01 -0.36297460680E+02  0.40659138160E+02  0.00000000000E+00 0. -1.
         11    1    3    3    0    0 -0.36705443361E+01 -0.17356763789E+01 -0.92025584804E-01  0.40612728528E+01  0.51100000000E-03 0. -1.
        -11    1    3    3    0    0  0.22217619395E+02 -0.46012085835E+01  0.38092641833E+02  0.44337829154E+02  0.51100000000E-03 0.  1.
         12    1    3    3    0    0 -0.12101851314E+01  0.41302542777E+00 -0.17031555685E+01  0.21297598332E+01  0.00000000000E+00 0. -1.
</event>
<event>
 7    1  0.2942034E-011  0.5052886E+02  0.7816164E-02  0.1300439E+00
        -11   -1    0    0    0    0  0.00000000000E+00  0.00000000000E+00  0.45593999997E+02  0.45594000000E+02  0.51100000000E-03 0.  1.
         11   -1    0    0    0    0 -0.00000000000E+00 -0.00000000000E+00 -0.45593999997E+02  0.45594000000E+02  0.51100000000E-03 0. -1.
    9900012    2    1    2    0    0 -0.15591708339E+02 -0.33102388758E+02  0.17728401675E+02  0.50528859129E+02  0.29999997808E+02 0.  0.
         12    1    1    2    0    0  0.15591708339E+02  0.33102388758E+02 -0.17728401675E+02  0.40659140871E+02  0.00000000000E+00 0. -1.
         11    1    3    3    0    0  0.71881483812E+01 -0.16281709819E+02  0.66942651541E+01  0.19015171258E+02  0.51100000000E-03 0. -1.
        -11    1    3    3    0    0 -0.80617266116E+01 -0.11099553041E+02  0.55297110779E+01  0.14790849149E+02  0.51100000000E-03 0.  1.
         12    1    3    3    0    0 -0.14718130109E+02 -0.57211258982E+01  0.55044254427E+01  0.16722838721E+02  0.00000000000E+00 0. -1.
</event>
<event>
 7    1  0.2942034E-011  0.5052881E+02  0.7816164E-02  0.1300439E+00
        -11   -1    0    0    0    0  0.00000000000E+00  0.00000000000E+00  0.45593999997E+02  0.45594000000E+02  0.51100000000E-03 0. -1.
         11   -1    0    0    0    0 -0.00000000000E+00 -0.00000000000E+00 -0.45593999997E+02  0.45594000000E+02  0.51100000000E-03 0.  1.
    9900012    2    1    2    0    0  0.87915560536E+01  0.37918388872E+02 -0.11750508737E+02  0.50528805123E+02  0.29999833650E+02 0.  0.
         12    1    1    2    0    0 -0.87915560536E+01 -0.37918388872E+02  0.11750508737E+02  0.40659194877E+02  0.00000000000E+00 0. -1.
         11    1    3    3    0    0  0.63021817513E+01  0.16268834261E+02 -0.15644621535E+02  0.23433878174E+02  0.51100000000E-03 0. -1.
        -11    1    3    3    0    0 -0.46854867112E+01  0.12666400945E+02  0.69644558099E+01  0.15195234240E+02  0.51100000000E-03 0.  1.
        -12    1    3    3    0    0  0.71748610135E+01  0.89831536663E+01 -0.30703430122E+01  0.11899692709E+02  0.00000000000E+00 0.  1.
</event>
<event>
 7    1  0.2942034E-011  0.5052885E+02  0.7816164E-02  0.1300439E+00
        -11   -1    0    0    0    0  0.00000000000E+00  0.00000000000E+00  0.45593999997E+02  0.45594000000E+02  0.51100000000E-03 0. -1.
         11   -1    0    0    0    0 -0.00000000000E+00 -0.00000000000E+00 -0.45593999997E+02  0.45594000000E+02  0.51100000000E-03 0.  1.
    9900012    2    1    2    0    0  0.21382751142E+02 -0.34410018386E+02 -0.34488980656E+01  0.50528852080E+02  0.29999976382E+02 0.  0.
         12    1    1    2    0    0 -0.21382751142E+02  0.34410018386E+02  0.34488980656E+01  0.40659147920E+02  0.00000000000E+00 0. -1.
         11    1    3    3    0    0 -0.36178518552E+00 -0.14778893754E+02 -0.58640908345E+01  0.15903903631E+02  0.51100000000E-03 0. -1.
        -11    1    3    3    0    0  0.22282181022E+02 -0.20177375482E+02  0.62593955967E+01  0.30705082738E+02  0.51100000000E-03 0.  1.
        -12    1    3    3    0    0 -0.53764469437E+00  0.54625085119E+00 -0.38442028279E+01  0.39198657109E+01  0.00000000000E+00 0.  1.
</event>
<event>
 7    1  0.2942034E-011  0.5052885E+02  0.7816164E-02  0.1300439E+00
        -11   -1    0    0    0    0  0.00000000000E+00  0.00000000000E+00  0.45593999997E+02  0.45594000000E+02  0.51100000000E-03 0.  1.
         11   -1    0    0    0    0 -0.00000000000E+00 -0.00000000000E+00 -0.45593999997E+02  0.45594000000E+02  0.51100000000E-03 0. -1.
    9900012    2    1    2    0    0  0.49654939800E+01 -0.38142210240E+02  0.13178851094E+02  0.50528850370E+02  0.29999971184E+02 0.  0.
         12    1    1    2    0    0 -0.49654939800E+01  0.38142210240E+02 -0.13178851094E+02  0.40659149630E+02  0.00000000000E+00 0. -1.
         11    1    3    3    0    0  0.14616205127E+02 -0.10803807351E+02  0.43709939834E+01  0.18693883873E+02  0.51100000000E-03 0. -1.
        -11    1    3    3    0    0 -0.65053284255E+01 -0.25421896190E+02  0.53457644272E+01  0.26780016829E+02  0.51100000000E-03 0.  1.
        -12    1    3    3    0    0 -0.31453827212E+01 -0.19165066993E+01  0.34620926835E+01  0.50549496674E+01  0.00000000000E+00 0.  1.
</event>
<event>
 7    1  0.2942034E-011  0.5052890E+02  0.7816164E-02  0.1300439E+00
        -11   -1    0    0    0    0  0.00000000000E+00  0.00000000000E+00  0.45593999997E+02  0.45594000000E+02  0.51100000000E-03 0.  1.
         11   -1    0    0    0    0 -0.00000000000E+00 -0.00000000000E+00 -0.45593999997E+02  0.45594000000E+02  0.51100000000E-03 0. -1.
    9900012    2    1    2    0    0 -0.94461538143E+01 -0.49476251874E+00  0.39543496698E+02  0.50528895940E+02  0.30000109699E+02 0.  0.
         12    1    1    2    0    0  0.94461538143E+01  0.49476251874E+00 -0.39543496698E+02  0.40659104060E+02  0.00000000000E+00 0. -1.
         11    1    3    3    0    0 -0.12771635448E+02  0.83706900378E+01  0.10769961763E+02  0.18686230234E+02  0.51100000000E-03 0. -1.
        -11    1    3    3    0    0  0.20520375554E+01 -0.41949799072E+00  0.17868084591E+02  0.17990422005E+02  0.51100000000E-03 0.  1.
        -12    1    3    3    0    0  0.12734440784E+01 -0.84459545658E+01  0.10905450344E+02  0.13852243701E+02  0.00000000000E+00 0.  1.
</event>
<event>
 7    1  0.2942034E-011  0.5052886E+02  0.7816164E-02  0.1300439E+00
        -11   -1    0    0    0    0  0.00000000000E+00  0.00000000000E+00  0.45593999997E+02  0.45594000000E+02  0.51100000000E-03 0.  1.
         11   -1    0    0    0    0 -0.00000000000E+00 -0.00000000000E+00 -0.45593999997E+02  0.45594000000E+02  0.51100000000E-03 0. -1.
    9900012    2    1    2    0    0 -0.34491831505E+02 -0.70230940301E+01  0.20350798049E+02  0.50528864845E+02  0.30000015184E+02 0.  0.
         12    1    1    2    0    0  0.34491831505E+02  0.70230940301E+01 -0.20350798049E+02  0.40659135155E+02  0.00000000000E+00 0. -1.
         11    1    3    3    0    0 -0.21616847743E+02 -0.34855010811E+01  0.77404591389E+01  0.23223943078E+02  0.51100000000E-03 0. -1.
        -11    1    3    3    0    0 -0.11819199753E+02 -0.75243854986E+01  0.16492804706E+02  0.21640759396E+02  0.51100000000E-03 0.  1.
        -12    1    3    3    0    0 -0.10557840088E+01  0.39867925497E+01 -0.38824657959E+01  0.56641623709E+01  0.00000000000E+00 0.  1.
</event>
<event>
 7    1  0.2942034E-011  0.5052887E+02  0.7816164E-02  0.1300439E+00
        -11   -1    0    0    0    0  0.00000000000E+00  0.00000000000E+00  0.45593999997E+02  0.45594000000E+02  0.51100000000E-03 0. -1.
         11   -1    0    0    0    0 -0.00000000000E+00 -0.00000000000E+00 -0.45593999997E+02  0.45594000000E+02  0.51100000000E-03 0.  1.
    9900012    2    1    2    0    0 -0.35923646112E+02 -0.18443816411E+02 -0.47415754948E+01  0.50528865086E+02  0.30000015916E+02 0.  0.
         12    1    1    2    0    0  0.35923646112E+02  0.18443816411E+02  0.47415754948E+01  0.40659134914E+02  0.00000000000E+00 0. -1.
         11    1    3    3    0    0 -0.33324809995E+02 -0.17274617040E+02  0.46791008126E+01  0.37826569230E+02  0.51100000000E-03 0. -1.
        -11    1    3    3    0    0 -0.54353503082E+01 -0.17996185519E+00 -0.68660238557E+01  0.87588642580E+01  0.51100000000E-03 0.  1.
         12    1    3    3    0    0  0.28365141911E+01 -0.98923751578E+00 -0.25546524517E+01  0.39434315980E+01  0.00000000000E+00 0. -1.
</event>
<event>
 7    1  0.2942034E-011  0.5052890E+02  0.7816164E-02  0.1300439E+00
        -11   -1    0    0    0    0  0.00000000000E+00  0.00000000000E+00  0.45593999997E+02  0.45594000000E+02  0.51100000000E-03 0.  1.
         11   -1    0    0    0    0 -0.00000000000E+00 -0.00000000000E+00 -0.45593999997E+02  0.45594000000E+02  0.51100000000E-03 0. -1.
    9900012    2    1    2    0    0  0.10185836947E+02  0.36227941730E+02  0.15393106803E+02  0.50528895567E+02  0.30000108564E+02 0.  0.
         12    1    1    2    0    0 -0.10185836947E+02 -0.36227941730E+02 -0.15393106803E+02  0.40659104433E+02  0.00000000000E+00 0. -1.
         11    1    3    3    0    0  0.57026396953E+01 -0.24665245365E+01 -0.22101607564E-01  0.62132384089E+01  0.51100000000E-03 0. -1.
        -11    1    3    3    0    0  0.43345746139E+01  0.37658802192E+02  0.10562582789E+02  0.39351519349E+02  0.51100000000E-03 0.  1.
        -12    1    3    3    0    0  0.14862263757E+00  0.10356640740E+01  0.48526256215E+01  0.49641378088E+01  0.00000000000E+00 0.  1.
</event>
<event>
 7    1  0.2942034E-011  0.5052886E+02  0.7816164E-02  0.1300439E+00
        -11   -1    0    0    0    0  0.00000000000E+00  0.00000000000E+00  0.45593999997E+02  0.45594000000E+02  0.51100000000E-03 0. -1.
         11   -1    0    0    0    0 -0.00000000000E+00 -0.00000000000E+00 -0.45593999997E+02  0.45594000000E+02  0.51100000000E-03 0.  1.
    9900012    2    1    2    0    0  0.34081241180E+02 -0.21832533135E+02 -0.38697335644E+01  0.50528863987E+02  0.30000012575E+02 0.  0.
         12    1    1    2    0    0 -0.34081241180E+02  0.21832533135E+02  0.38697335644E+01  0.40659136013E+02  0.00000000000E+00 0. -1.
         11    1    3    3    0    0  0.27112663866E+02 -0.70324074753E+01  0.71345065774E+01  0.28904194871E+02  0.51100000000E-03 0. -1.
        -11    1    3    3    0    0  0.45330893427E+01 -0.85901498121E+01 -0.11358145763E+02  0.14944800040E+02  0.51100000000E-03 0.  1.
         12    1    3    3    0    0  0.24354879718E+01 -0.62099758474E+01  0.35390562166E+00  0.66798690762E+01  0.00000000000E+00 0. -1.
</event>
<event>
 7    1  0.2942034E-011  0.5052885E+02  0.7816164E-02  0.1300439E+00
        -11   -1    0    0    0    0  0.00000000000E+00  0.00000000000E+00  0.45593999997E+02  0.45594000000E+02  0.51100000000E-03 0.  1.
         11   -1    0    0    0    0 -0.00000000000E+00 -0.00000000000E+00 -0.45593999997E+02  0.45594000000E+02  0.51100000000E-03 0. -1.
    9900012    2    1    2    0    0 -0.13631621195E+01  0.39373684693E+02  0.10050914119E+02  0.50528854265E+02  0.29999983025E+02 0.  0.
         12    1    1    2    0    0  0.13631621195E+01 -0.39373684693E+02 -0.10050914119E+02  0.40659145735E+02  0.00000000000E+00 0. -1.
         11    1    3    3    0    0 -0.92911301931E+01  0.11857561168E+01  0.39128063551E+01  0.10150919745E+02  0.51100000000E-03 0. -1.
        -11    1    3    3    0    0  0.77257713022E+01  0.35737000713E+02  0.34350597446E+01  0.36723567336E+02  0.51100000000E-03 0.  1.
         12    1    3    3    0    0  0.20219677133E+00  0.24509278627E+01  0.27030480196E+01  0.36543671844E+01  0.00000000000E+00 0. -1.
</event>
<event>
 7    1  0.2942034E-011  0.5052886E+02  0.7816164E-02  0.1300439E+00
        -11   -1    0    0    0    0  0.00000000000E+00  0.00000000000E+00  0.45593999997E+02  0.45594000000E+02  0.51100000000E-03 0.  1.
         11   -1    0    0    0    0 -0.00000000000E+00 -0.00000000000E+00 -0.45593999997E+02  0.45594000000E+02  0.51100000000E-03 0. -1.
    9900012    2    1    2    0    0  0.22099949062E+02  0.38635970692E+01  0.33909149656E+02  0.50528861282E+02  0.30000004354E+02 0.  0.
         12    1    1    2    0    0 -0.22099949062E+02 -0.38635970692E+01 -0.33909149656E+02  0.40659138718E+02  0.00000000000E+00 0. -1.
         11    1    3    3    0    0  0.64543030009E+01  0.97567318784E+01  0.22572729997E+02  0.25424004090E+02  0.51100000000E-03 0. -1.
        -11    1    3    3    0    0  0.13471195257E+02  0.25214727120E+01  0.71492774782E+01  0.15457784285E+02  0.51100000000E-03 0.  1.
         12    1    3    3    0    0  0.21744508049E+01 -0.84146075211E+01  0.41871421805E+01  0.96470729072E+01  0.00000000000E+00 0. -1.
</event>
<event>
 7    1  0.2942034E-011  0.5052886E+02  0.7816164E-02  0.1300439E+00
        -11   -1    0    0    0    0  0.00000000000E+00  0.00000000000E+00  0.45593999997E+02  0.45594000000E+02  0.51100000000E-03 0. -1.
         11   -1    0    0    0    0 -0.00000000000E+00 -0.00000000000E+00 -0.45593999997E+02  0.45594000000E+02  0.51100000000E-03 0.  1.
    9900012    2    1    2    0    0  0.23544385207E+02 -0.29993281662E+02 -0.14114916110E+02  0.50528857407E+02  0.29999992573E+02 0.  0.
         12    1    1    2    0    0 -0.23544385207E+02  0.29993281662E+02  0.14114916110E+02  0.40659142593E+02  0.00000000000E+00 0. -1.
         11    1    3    3    0    0  0.15585788005E+02 -0.31965116124E+02 -0.13236386755E+02  0.37945847877E+02  0.51100000000E-03 0.  1.
        -11    1    3    3    0    0  0.85883528936E+01  0.27906087816E+01  0.22348168220E+01  0.93027796537E+01  0.51100000000E-03 0. -1.
        -12    1    3    3    0    0 -0.62975569187E+00 -0.81877432010E+00 -0.31133461767E+01  0.32802298753E+01  0.00000000000E+00 0.  1.
</event>
<event>
 7    1  0.2942034E-011  0.5052887E+02  0.7816164E-02  0.1300439E+00
        -11   -1    0    0    0    0  0.00000000000E+00  0.00000000000E+00  0.45593999997E+02  0.45594000000E+02  0.51100000000E-03 0.  1.
         11   -1    0    0    0    0 -0.00000000000E+00 -0.00000000000E+00 -0.45593999997E+02  0.45594000000E+02  0.51100000000E-03 0. -1.
    9900012    2    1    2    0    0  0.53572448092E+01 -0.32274926868E+02  0.24141120434E+02  0.50528872217E+02  0.30000037591E+02 0.  0.
         12    1    1    2    0    0 -0.53572448092E+01  0.32274926868E+02 -0.24141120434E+02  0.40659127783E+02  0.00000000000E+00 0. -1.
         11    1    3    3    0    0  0.14805213535E+02 -0.12824624871E+02  0.55974532699E+01  0.20371471088E+02  0.51100000000E-03 0. -1.
        -11    1    3    3    0    0 -0.12542154921E+01 -0.13660035395E+02  0.99374606363E+01  0.16938794162E+02  0.51100000000E-03 0.  1.
         12    1    3    3    0    0 -0.81937532339E+01 -0.57902666020E+01  0.86062065274E+01  0.13218606968E+02  0.00000000000E+00 0. -1.
</event>
<event>
 7    1  0.2942034E-011  0.5052887E+02  0.7816164E-02  0.1300439E+00
        -11   -1    0    0    0    0  0.00000000000E+00  0.00000000000E+00  0.45593999997E+02  0.45594000000E+02  0.51100000000E-03 0.  1.
         11   -1    0    0    0    0 -0.00000000000E+00 -0.00000000000E+00 -0.45593999997E+02  0.45594000000E+02  0.51100000000E-03 0. -1.
    9900012    2    1    2    0    0  0.12945664649E+02  0.90735682634E+01  0.37459911974E+02  0.50528869668E+02  0.30000029843E+02 0.  0.
         12    1    1    2    0    0 -0.12945664649E+02 -0.90735682634E+01 -0.37459911974E+02  0.40659130332E+02  0.00000000000E+00 0. -1.
         11    1    3    3    0    0  0.40497703976E+01 -0.48403901746E+01  0.52596596913E+01  0.82154754972E+01  0.51100000000E-03 0. -1.
        -11    1    3    3    0    0 -0.17176055816E+01  0.11081926085E+02  0.28654033220E+02  0.30770324580E+02  0.51100000000E-03 0.  1.
        -12    1    3    3    0    0  0.10613499833E+02  0.28320323529E+01  0.35462190627E+01  0.11543069591E+02  0.00000000000E+00 0.  1.
</event>
<event>
 7    1  0.2942034E-011  0.5052888E+02  0.7816164E-02  0.1300439E+00
        -11   -1    0    0    0    0  0.00000000000E+00  0.00000000000E+00  0.45593999997E+02  0.45594000000E+02  0.51100000000E-03 0.  1.
         11   -1    0    0    0    0 -0.00000000000E+00 -0.00000000000E+00 -0.45593999997E+02  0.45594000000E+02  0.51100000000E-03 0. -1.
    9900012    2    1    2    0    0 -0.35749698006E+02 -0.69372279404E+01  0.18083082092E+02  0.50528881748E+02  0.30000066563E+02 0.  0.
         12    1    1    2    0    0  0.35749698006E+02  0.69372279404E+01 -0.18083082092E+02  0.40659118252E+02  0.00000000000E+00 0. -1.
         11    1    3    3    0    0 -0.52788135741E+01 -0.46585260345E+01  0.91123270182E+01  0.11515304664E+02  0.51100000000E-03 0.  1.
        -11    1    3    3    0    0 -0.20156579296E+02 -0.76225757680E+01 -0.36543338413E+01  0.21857390200E+02  0.51100000000E-03 0. -1.
        -12    1    3    3    0    0 -0.10314305136E+02  0.53438738621E+01  0.12625088915E+02  0.17156186884E+02  0.00000000000E+00 0.  1.
</event>
<event>
 7    1  0.2942034E-011  0.5052886E+02  0.7816164E-02  0.1300439E+00
        -11   -1    0    0    0    0  0.00000000000E+00  0.00000000000E+00  0.45593999997E+02  0.45594000000E+02  0.51100000000E-03 0. -1.
         11   -1    0    0    0    0 -0.00000000000E+00 -0.00000000000E+00 -0.45593999997E+02  0.45594000000E+02  0.51100000000E-03 0.  1.
    9900012    2    1    2    0    0 -0.20045594344E+02  0.30656608063E+02 -0.17649703670E+02  0.50528861910E+02  0.30000006262E+02 0.  0.
         12    1    1    2    0    0  0.20045594344E+02 -0.30656608063E+02  0.17649703670E+02  0.40659138090E+02  0.00000000000E+00 0. -1.
         11    1    3    3    0    0 -0.16784439746E+02  0.21294032324E+02 -0.24463547593E+00  0.27114812870E+02  0.51100000000E-03 0. -1.
        -11    1    3    3    0    0 -0.92550245677E+00 -0.12838555342E+01 -0.10259778526E+02  0.10381131706E+02  0.51100000000E-03 0.  1.
        -12    1    3    3    0    0 -0.23356521414E+01  0.10646431273E+02 -0.71452896683E+01  0.13032917334E+02  0.00000000000E+00 0.  1.
</event>
<event>
 7    1  0.2942034E-011  0.5052885E+02  0.7816164E-02  0.1300439E+00
        -11   -1    0    0    0    0  0.00000000000E+00  0.00000000000E+00  0.45593999997E+02  0.45594000000E+02  0.51100000000E-03 0.  1.
         11   -1    0    0    0    0 -0.00000000000E+00 -0.00000000000E+00 -0.45593999997E+02  0.45594000000E+02  0.51100000000E-03 0. -1.
    9900012    2    1    2    0    0  0.10300298933E+02 -0.14512535578E+02  0.36557577169E+02  0.50528852253E+02  0.29999976909E+02 0.  0.
         12    1    1    2    0    0 -0.10300298933E+02  0.14512535578E+02 -0.36557577169E+02  0.40659147747E+02  0.00000000000E+00 0. -1.
         11    1    3    3    0    0 -0.28482544505E+01  0.43368142626E+01  0.14416286507E+01  0.53850538336E+01  0.51100000000E-03 0. -1.
        -11    1    3    3    0    0  0.12602574172E+02 -0.19568153735E+02  0.36619337070E+02  0.43390245034E+02  0.51100000000E-03 0.  1.
        -12    1    3    3    0    0  0.54597921153E+00  0.71880389468E+00 -0.15033885520E+01  0.17535533858E+01  0.00000000000E+00 0.  1.
</event>
<event>
 7    1  0.2942034E-011  0.5052886E+02  0.7816164E-02  0.1300439E+00
        -11   -1    0    0    0    0  0.00000000000E+00  0.00000000000E+00  0.45593999997E+02  0.45594000000E+02  0.51100000000E-03 0. -1.
         11   -1    0    0    0    0 -0.00000000000E+00 -0.00000000000E+00 -0.45593999997E+02  0.45594000000E+02  0.51100000000E-03 0.  1.
    9900012    2    1    2    0    0 -0.25816442160E+02 -0.15838924283E+02 -0.27125740378E+02  0.50528855896E+02  0.29999987980E+02 0.  0.
         12    1    1    2    0    0  0.25816442160E+02  0.15838924283E+02  0.27125740378E+02  0.40659144104E+02  0.00000000000E+00 0. -1.
         11    1    3    3    0    0  0.16510495426E+01  0.31241268747E+01 -0.36131096369E+01  0.50537802515E+01  0.51100000000E-03 0. -1.
        -11    1    3    3    0    0 -0.25533146379E+02 -0.67830215890E+01 -0.17989956317E+02  0.31962313346E+02  0.51100000000E-03 0.  1.
        -12    1    3    3    0    0 -0.19343453238E+01 -0.12180029568E+02 -0.55226744241E+01  0.13512762298E+02  0.00000000000E+00 0.  1.
</event>
<event>
 7    1  0.2942034E-011  0.5052886E+02  0.7816164E-02  0.1300439E+00
        -11   -1    0    0    0    0  0.00000000000E+00  0.00000000000E+00  0.45593999997E+02  0.45594000000E+02  0.51100000000E-03 0.  1.
         11   -1    0    0    0    0 -0.00000000000E+00 -0.00000000000E+00 -0.45593999997E+02  0.45594000000E+02  0.51100000000E-03 0. -1.
    9900012    2    1    2    0    0  0.34276172944E+02  0.18159869738E+02  0.12187225186E+02  0.50528863778E+02  0.30000011940E+02 0.  0.
         12    1    1    2    0    0 -0.34276172944E+02 -0.18159869738E+02 -0.12187225186E+02  0.40659136222E+02  0.00000000000E+00 0. -1.
         11    1    3    3    0    0  0.28774549114E+01 -0.41829679601E+01  0.24126158987E+01  0.56211816781E+01  0.51100000000E-03 0. -1.
        -11    1    3    3    0    0  0.25466264578E+02  0.19580014034E+02  0.15989370477E+02  0.35882691505E+02  0.51100000000E-03 0.  1.
        -12    1    3    3    0    0  0.59324534540E+01  0.27628236646E+01 -0.62147611902E+01  0.90249905948E+01  0.00000000000E+00 0.  1.
</event>
<event>
 7    1  0.2942034E-011  0.5052886E+02  0.7816164E-02  0.1300439E+00
        -11   -1    0    0    0    0  0.00000000000E+00  0.00000000000E+00  0.45593999997E+02  0.45594000000E+02  0.51100000000E-03 0.  1.
         11   -1    0    0    0    0 -0.00000000000E+00 -0.00000000000E+00 -0.45593999997E+02  0.45594000000E+02  0.51100000000E-03 0. -1.
    9900012    2    1    2    0    0  0.15275186196E+02  0.33570546288E+02  0.17112949943E+02  0.50528856537E+02  0.29999989929E+02 0.  0.
         12    1    1    2    0    0 -0.15275186196E+02 -0.33570546288E+02 -0.17112949943E+02  0.40659143463E+02  0.00000000000E+00 0. -1.
         11    1    3    3    0    0  0.68153198356E+01  0.14419669759E+02 -0.59550506630E+01  0.17024631834E+02  0.51100000000E-03 0. -1.
        -11    1    3    3    0    0 -0.12338201071E+01  0.10926767507E+02  0.70802939051E+01  0.13078498471E+02  0.51100000000E-03 0.  1.
         12    1    3    3    0    0  0.96936864670E+01  0.82241090228E+01  0.15987706701E+02  0.20425726232E+02  0.00000000000E+00 0. -1.
</event>
<event>
 7    1  0.2942034E-011  0.5052887E+02  0.7816164E-02  0.1300439E+00
        -11   -1    0    0    0    0  0.00000000000E+00  0.00000000000E+00  0.45593999997E+02  0.45594000000E+02  0.51100000000E-03 0. -1.
         11   -1    0    0    0    0 -0.00000000000E+00 -0.00000000000E+00 -0.45593999997E+02  0.45594000000E+02  0.51100000000E-03 0.  1.
    9900012    2    1    2    0    0 -0.23035948351E+02 -0.33281697829E+02 -0.38521172455E+01  0.50528866536E+02  0.30000020322E+02 0.  0.
         12    1    1    2    0    0  0.23035948351E+02  0.33281697829E+02  0.38521172455E+01  0.40659133464E+02  0.00000000000E+00 0. -1.
         11    1    3    3    0    0 -0.32042950099E+01 -0.12536857172E+01 -0.10448663052E+02  0.11000626992E+02  0.51100000000E-03 0. -1.
        -11    1    3    3    0    0 -0.17387591077E+01 -0.38198101570E+01 -0.23933015078E+01  0.48313688783E+01  0.51100000000E-03 0.  1.
         12    1    3    3    0    0 -0.18092894234E+02 -0.28208201955E+02  0.89898473138E+01  0.34696870666E+02  0.00000000000E+00 0. -1.
</event>
<event>
 7    1  0.2942034E-011  0.5052887E+02  0.7816164E-02  0.1300439E+00
        -11   -1    0    0    0    0  0.00000000000E+00  0.00000000000E+00  0.45593999997E+02  0.45594000000E+02  0.51100000000E-03 0. -1.
         11   -1    0    0    0    0 -0.00000000000E+00 -0.00000000000E+00 -0.45593999997E+02  0.45594000000E+02  0.51100000000E-03 0.  1.
    9900012    2    1    2    0    0  0.18332609678E+02  0.17387444203E+02 -0.31855257512E+02  0.50528865421E+02  0.30000016934E+02 0.  0.
         12    1    1    2    0    0 -0.18332609678E+02 -0.17387444203E+02  0.31855257512E+02  0.40659134579E+02  0.00000000000E+00 0. -1.
         11    1    3    3    0    0 -0.57233720242E+01  0.90372616152E+00  0.10926441971E+01  0.58964039808E+01  0.51100000000E-03 0. -1.
        -11    1    3    3    0    0  0.18842205088E+02  0.15950149914E+02 -0.28911704850E+02  0.38017399339E+02  0.51100000000E-03 0.  1.
         12    1    3    3    0    0  0.52137766140E+01  0.53356812814E+00 -0.40361968588E+01  0.66150621018E+01  0.00000000000E+00 0. -1.
</event>
<event>
 7    1  0.2942034E-011  0.5052887E+02  0.7816164E-02  0.1300439E+00
        -11   -1    0    0    0    0  0.00000000000E+00  0.00000000000E+00  0.45593999997E+02  0.45594000000E+02  0.51100000000E-03 0.  1.
         11   -1    0    0    0    0 -0.00000000000E+00 -0.00000000000E+00 -0.45593999997E+02  0.45594000000E+02  0.51100000000E-03 0. -1.
    9900012    2    1    2    0    0  0.27533394295E+02  0.14146749910E+02  0.26361845879E+02  0.50528865078E+02  0.30000015892E+02 0.  0.
         12    1    1    2    0    0 -0.27533394295E+02 -0.14146749910E+02 -0.26361845879E+02  0.40659134922E+02  0.00000000000E+00 0. -1.
         11    1    3    3    0    0 -0.57326430862E+00  0.13188925183E-02  0.65226505332E+00  0.86837990990E+00  0.51100000000E-03 0. -1.
        -11    1    3    3    0    0  0.22915198383E+02  0.17503305493E+02  0.30399730607E+02  0.41900067319E+02  0.51100000000E-03 0.  1.
        -12    1    3    3    0    0  0.51914602211E+01 -0.33578744761E+01 -0.46901497810E+01  0.77604178491E+01  0.00000000000E+00 0.  1.
</event>
<event>
 7    1  0.2942034E-011  0.5052884E+02  0.7816164E-02  0.1300439E+00
        -11   -1    0    0    0    0  0.00000000000E+00  0.00000000000E+00  0.45593999997E+02  0.45594000000E+02  0.51100000000E-03 0. -1.
         11   -1    0    0    0    0 -0.00000000000E+00 -0.00000000000E+00 -0.45593999997E+02  0.45594000000E+02  0.51100000000E-03 0.  1.
    9900012    2    1    2    0    0 -0.19757698949E+02  0.30615077399E+02 -0.18042111555E+02  0.50528838409E+02  0.29999934829E+02 0.  0.
         12    1    1    2    0    0  0.19757698949E+02 -0.30615077399E+02  0.18042111555E+02  0.40659161591E+02  0.00000000000E+00 0. -1.
         11    1    3    3    0    0 -0.11839429500E+02  0.78904987539E+01  0.27107511371E+01  0.14483792095E+02  0.51100000000E-03 0. -1.
        -11    1    3    3    0    0 -0.10872045227E+02  0.22802203910E+02 -0.14495030453E+02  0.29124693623E+02  0.51100000000E-03 0.  1.
         12    1    3    3    0    0  0.29537757779E+01 -0.77625264920E-01 -0.62578322398E+01  0.69203526911E+01  0.00000000000E+00 0. -1.
</event>
<event>
 7    1  0.2942034E-011  0.5052887E+02  0.7816164E-02  0.1300439E+00
        -11   -1    0    0    0    0  0.00000000000E+00  0.00000000000E+00  0.45593999997E+02  0.45594000000E+02  0.51100000000E-03 0.  1.
         11   -1    0    0    0    0 -0.00000000000E+00 -0.00000000000E+00 -0.45593999997E+02  0.45594000000E+02  0.51100000000E-03 0. -1.
    9900012    2    1    2    0    0  0.89047409436E+01  0.33423293429E+02  0.21371803852E+02  0.50528868740E+02  0.30000027023E+02 0.  0.
         12    1    1    2    0    0 -0.89047409436E+01 -0.33423293429E+02 -0.21371803852E+02  0.40659131260E+02  0.00000000000E+00 0. -1.
         11    1    3    3    0    0 -0.23191377348E+01  0.60662107073E+01 -0.34061159054E+01  0.73334124390E+01  0.51100000000E-03 0. -1.
        -11    1    3    3    0    0  0.32052228454E+01 -0.11174137209E+01  0.91069267136E+01  0.97189598898E+01  0.51100000000E-03 0.  1.
        -12    1    3    3    0    0  0.80186558331E+01  0.28474496442E+02  0.15670993044E+02  0.33476496412E+02  0.00000000000E+00 0.  1.
</event>
<event>
 7    1  0.2942034E-011  0.5052884E+02  0.7816164E-02  0.1300439E+00
        -11   -1    0    0    0    0  0.00000000000E+00  0.00000000000E+00  0.45593999997E+02  0.45594000000E+02  0.51100000000E-03 0.  1.
         11   -1    0    0    0    0 -0.00000000000E+00 -0.00000000000E+00 -0.45593999997E+02  0.45594000000E+02  0.51100000000E-03 0. -1.
    9900012    2    1    2    0    0 -0.13117477529E+01  0.14510686237E+02  0.37959010650E+02  0.50528841293E+02  0.29999943594E+02 0.  0.
         12    1    1    2    0    0  0.13117477529E+01 -0.14510686237E+02 -0.37959010650E+02  0.40659158707E+02  0.00000000000E+00 0. -1.
         11    1    3    3    0    0 -0.52707891961E+01  0.13309702045E+02  0.41991596436E+01  0.14918523025E+02  0.51100000000E-03 0. -1.
        -11    1    3    3    0    0  0.50563993426E-01 -0.43242357222E+01  0.16857277158E+02  0.17403142381E+02  0.51100000000E-03 0.  1.
         12    1    3    3    0    0  0.39084774497E+01  0.55252199138E+01  0.16902573848E+02  0.18207175887E+02  0.00000000000E+00 0. -1.
</event>
<event>
 7    1  0.2942034E-011  0.5052886E+02  0.7816164E-02  0.1300439E+00
        -11   -1    0    0    0    0  0.00000000000E+00  0.00000000000E+00  0.45593999997E+02  0.45594000000E+02  0.51100000000E-03 0. -1.
         11   -1    0    0    0    0 -0.00000000000E+00 -0.00000000000E+00 -0.45593999997E+02  0.45594000000E+02  0.51100000000E-03 0.  1.
    9900012    2    1    2    0    0 -0.97932132573E+01 -0.20462590955E+02 -0.33742273222E+02  0.50528860109E+02  0.30000000789E+02 0.  0.
         12    1    1    2    0    0  0.97932132573E+01  0.20462590955E+02  0.33742273222E+02  0.40659139891E+02  0.00000000000E+00 0. -1.
         11    1    3    3    0    0  0.66500168988E+00 -0.15086716779E+02 -0.60859198382E+01  0.16281574585E+02  0.51100000000E-03 0. -1.
        -11    1    3    3    0    0 -0.69852619436E+01 -0.67540603189E+01 -0.28755334173E+02  0.30352602176E+02  0.51100000000E-03 0.  1.
        -12    1    3    3    0    0 -0.34729530036E+01  0.13781861435E+01  0.10989807892E+01  0.38946833487E+01  0.00000000000E+00 0.  1.
</event>
<event>
 7    1  0.2942034E-011  0.5052893E+02  0.7816164E-02  0.1300439E+00
        -11   -1    0    0    0    0  0.00000000000E+00  0.00000000000E+00  0.45593999997E+02  0.45594000000E+02  0.51100000000E-03 0.  1.
         11   -1    0    0    0    0 -0.00000000000E+00 -0.00000000000E+00 -0.45593999997E+02  0.45594000000E+02  0.51100000000E-03 0. -1.
    9900012    2    1    2    0    0  0.28175933602E+02 -0.11941375544E+02  0.26770880699E+02  0.50528932897E+02  0.30000222034E+02 0.  0.
         12    1    1    2    0    0 -0.28175933602E+02  0.11941375544E+02 -0.26770880699E+02  0.40659067103E+02  0.00000000000E+00 0. -1.
         11    1    3    3    0    0  0.87378330898E+01 -0.13136063948E+02  0.84208615109E+01  0.17883422827E+02  0.51100000000E-03 0. -1.
        -11    1    3    3    0    0  0.17178265005E+02  0.68873738232E+01  0.18953741805E+02  0.26490999140E+02  0.51100000000E-03 0.  1.
        -12    1    3    3    0    0  0.22598355080E+01 -0.56926854191E+01 -0.60372261645E+00  0.61545109311E+01  0.00000000000E+00 0.  1.
</event>
<event>
 7    1  0.2942034E-011  0.5052884E+02  0.7816164E-02  0.1300439E+00
        -11   -1    0    0    0    0  0.00000000000E+00  0.00000000000E+00  0.45593999997E+02  0.45594000000E+02  0.51100000000E-03 0.  1.
         11   -1    0    0    0    0 -0.00000000000E+00 -0.00000000000E+00 -0.45593999997E+02  0.45594000000E+02  0.51100000000E-03 0. -1.
    9900012    2    1    2    0    0 -0.39370618566E+02 -0.10016275633E+02 -0.16720243478E+01  0.50528842984E+02  0.29999948735E+02 0.  0.
         12    1    1    2    0    0  0.39370618566E+02  0.10016275633E+02  0.16720243478E+01  0.40659157016E+02  0.00000000000E+00 0. -1.
         11    1    3    3    0    0 -0.35171341913E+01 -0.30932095083E+00  0.95637508614E+01  0.10194667389E+02  0.51100000000E-03 0. -1.
        -11    1    3    3    0    0 -0.28444012244E+02 -0.11568789266E+02 -0.66327455253E+01  0.31414837753E+02  0.51100000000E-03 0.  1.
         12    1    3    3    0    0 -0.74094721304E+01  0.18618345835E+01 -0.46030296839E+01  0.89193378419E+01  0.00000000000E+00 0. -1.
</event>
<event>
 7    1  0.2942034E-011  0.5052888E+02  0.7816164E-02  0.1300439E+00
        -11   -1    0    0    0    0  0.00000000000E+00  0.00000000000E+00  0.45593999997E+02  0.45594000000E+02  0.51100000000E-03 0. -1.
         11   -1    0    0    0    0 -0.00000000000E+00 -0.00000000000E+00 -0.45593999997E+02  0.45594000000E+02  0.51100000000E-03 0.  1.
    9900012    2    1    2    0    0  0.35775662645E+02 -0.48549320910E+01 -0.18700160470E+02  0.50528875502E+02  0.30000047577E+02 0.  0.
         12    1    1    2    0    0 -0.35775662645E+02  0.48549320910E+01  0.18700160470E+02  0.40659124498E+02  0.00000000000E+00 0. -1.
         11    1    3    3    0    0  0.25127720748E+02  0.55802878450E+01 -0.25397757656E+01  0.25864887852E+02  0.51100000000E-03 0. -1.
        -11    1    3    3    0    0  0.89261144700E+01 -0.64791973573E+01 -0.17003810132E+02  0.20267833560E+02  0.51100000000E-03 0.  1.
         12    1    3    3    0    0  0.17218274272E+01 -0.39560225788E+01  0.84342542788E+00  0.43961540903E+01  0.00000000000E+00 0. -1.
</event>
<event>
 7    1  0.2942034E-011  0.5052889E+02  0.7816164E-02  0.1300439E+00
        -11   -1    0    0    0    0  0.00000000000E+00  0.00000000000E+00  0.45593999997E+02  0.45594000000E+02  0.51100000000E-03 0.  1.
         11   -1    0    0    0    0 -0.00000000000E+00 -0.00000000000E+00 -0.45593999997E+02  0.45594000000E+02  0.51100000000E-03 0. -1.
    9900012    2    1    2    0    0  0.31947715163E+01  0.32486638715E+02  0.24239940308E+02  0.50528893195E+02  0.30000101354E+02 0.  0.
         12    1    1    2    0    0 -0.31947715163E+01 -0.32486638715E+02 -0.24239940308E+02  0.40659106805E+02  0.00000000000E+00 0. -1.
         11    1    3    3    0    0 -0.60926005609E+01  0.20137436939E+02  0.13327523106E+02  0.24904999909E+02  0.51100000000E-03 0.  1.
        -11    1    3    3    0    0  0.11105660351E+02  0.60902301289E+01  0.13590296996E+02  0.18577480118E+02  0.51100000000E-03 0. -1.
        -12    1    3    3    0    0 -0.18182882738E+01  0.62589716476E+01 -0.26778797938E+01  0.70464131671E+01  0.00000000000E+00 0.  1.
</event>
<event>
 7    1  0.2942034E-011  0.5052886E+02  0.7816164E-02  0.1300439E+00
        -11   -1    0    0    0    0  0.00000000000E+00  0.00000000000E+00  0.45593999997E+02  0.45594000000E+02  0.51100000000E-03 0. -1.
         11   -1    0    0    0    0 -0.00000000000E+00 -0.00000000000E+00 -0.45593999997E+02  0.45594000000E+02  0.51100000000E-03 0.  1.
    9900012    2    1    2    0    0  0.29946238846E+02 -0.16629790131E+02 -0.21905209242E+02  0.50528864093E+02  0.30000012896E+02 0.  0.
         12    1    1    2    0    0 -0.29946238846E+02  0.16629790131E+02  0.21905209242E+02  0.40659135907E+02  0.00000000000E+00 0. -1.
         11    1    3    3    0    0  0.13913889085E+02 -0.76336881558E+01 -0.54237597111E+01  0.16771603203E+02  0.51100000000E-03 0.  1.
        -11    1    3    3    0    0 -0.50839404457E+01  0.12027168475E+01 -0.23601955469E+00  0.52295969025E+01  0.51100000000E-03 0. -1.
        -12    1    3    3    0    0  0.21116290206E+02 -0.10198818823E+02 -0.16245429976E+02  0.28527663987E+02  0.00000000000E+00 0.  1.
</event>
<event>
 7    1  0.2942034E-011  0.5052887E+02  0.7816164E-02  0.1300439E+00
        -11   -1    0    0    0    0  0.00000000000E+00  0.00000000000E+00  0.45593999997E+02  0.45594000000E+02  0.51100000000E-03 0.  1.
         11   -1    0    0    0    0 -0.00000000000E+00 -0.00000000000E+00 -0.45593999997E+02  0.45594000000E+02  0.51100000000E-03 0. -1.
    9900012    2    1    2    0    0  0.20327102264E+02 -0.27753929230E+02  0.21672402237E+02  0.50528871961E+02  0.30000036812E+02 0.  0.
         12    1    1    2    0    0 -0.20327102264E+02  0.27753929230E+02 -0.21672402237E+02  0.40659128039E+02  0.00000000000E+00 0. -1.
         11    1    3    3    0    0  0.29245602740E+01  0.24697810891E+01  0.18884156177E+01  0.42683703249E+01  0.51100000000E-03 0. -1.
        -11    1    3    3    0    0  0.10797655462E+02 -0.19200724498E+02  0.24151064304E+02  0.32688393842E+02  0.51100000000E-03 0.  1.
        -12    1    3    3    0    0  0.66048865279E+01 -0.11022985822E+02 -0.43670776840E+01  0.13572107794E+02  0.00000000000E+00 0.  1.
</event>
<event>
 7    1  0.2942034E-011  0.5052885E+02  0.7816164E-02  0.1300439E+00
        -11   -1    0    0    0    0  0.00000000000E+00  0.00000000000E+00  0.45593999997E+02  0.45594000000E+02  0.51100000000E-03 0.  1.
         11   -1    0    0    0    0 -0.00000000000E+00 -0.00000000000E+00 -0.45593999997E+02  0.45594000000E+02  0.51100000000E-03 0. -1.
    9900012    2    1    2    0    0 -0.22435661827E+02 -0.28857121960E+02  0.17806580011E+02  0.50528847265E+02  0.29999961745E+02 0.  0.
         12    1    1    2    0    0  0.22435661827E+02  0.28857121960E+02 -0.17806580011E+02  0.40659152735E+02  0.00000000000E+00 0. -1.
         11    1    3    3    0    0  0.24206567952E+01 -0.17022822853E+02  0.10070250348E+02  0.19926013639E+02  0.51100000000E-03 0. -1.
        -11    1    3    3    0    0 -0.15987586850E+02 -0.41675186981E+01 -0.63482228796E-01  0.16521960405E+02  0.51100000000E-03 0.  1.
         12    1    3    3    0    0 -0.88687317728E+01 -0.76667804094E+01  0.77998118918E+01  0.14080873220E+02  0.00000000000E+00 0. -1.
</event>
<event>
 7    1  0.2942034E-011  0.5052886E+02  0.7816164E-02  0.1300439E+00
        -11   -1    0    0    0    0  0.00000000000E+00  0.00000000000E+00  0.45593999997E+02  0.45594000000E+02  0.51100000000E-03 0.  1.
         11   -1    0    0    0    0 -0.00000000000E+00 -0.00000000000E+00 -0.45593999997E+02  0.45594000000E+02  0.51100000000E-03 0. -1.
    9900012    2    1    2    0    0  0.32776796292E+02 -0.17878908514E+02  0.16099437337E+02  0.50528860469E+02  0.30000001882E+02 0.  0.
         12    1    1    2    0    0 -0.32776796292E+02  0.17878908514E+02 -0.16099437337E+02  0.40659139531E+02  0.00000000000E+00 0. -1.
         11    1    3    3    0    0  0.23002228484E+02 -0.74136917235E+01  0.58998228067E+01  0.24877163215E+02  0.51100000000E-03 0. -1.
        -11    1    3    3    0    0 -0.14605904808E+01  0.40759253781E+01  0.48745368808E+01  0.65197854492E+01  0.51100000000E-03 0.  1.
        -12    1    3    3    0    0  0.11235158289E+02 -0.14541142169E+02  0.53250776492E+01  0.19131911805E+02  0.00000000000E+00 0.  1.
</event>
<event>
 7    1  0.2942034E-011  0.5052886E+02  0.7816164E-02  0.1300439E+00
        -11   -1    0    0    0    0  0.00000000000E+00  0.00000000000E+00  0.45593999997E+02  0.45594000000E+02  0.51100000000E-03 0.  1.
         11   -1    0    0    0    0 -0.00000000000E+00 -0.00000000000E+00 -0.45593999997E+02  0.45594000000E+02  0.51100000000E-03 0. -1.
    9900012    2    1    2    0    0  0.25353744283E+02  0.29135882783E+02  0.12706451822E+02  0.50528856716E+02  0.29999990473E+02 0.  0.
         12    1    1    2    0    0 -0.25353744283E+02 -0.29135882783E+02 -0.12706451822E+02  0.40659143284E+02  0.00000000000E+00 0. -1.
         11    1    3    3    0    0  0.21619555304E+02  0.83502225747E+01  0.14176853802E+02  0.27168264070E+02  0.51100000000E-03 0. -1.
        -11    1    3    3    0    0 -0.31337955040E+01  0.85090767846E+01  0.83362152548E+00  0.91060412417E+01  0.51100000000E-03 0.  1.
        -12    1    3    3    0    0  0.68679844832E+01  0.12276583423E+02 -0.23040235057E+01  0.14254551404E+02  0.00000000000E+00 0.  1.
</event>
<event>
 7    1  0.2942034E-011  0.5052886E+02  0.7816164E-02  0.1300439E+00
        -11   -1    0    0    0    0  0.00000000000E+00  0.00000000000E+00  0.45593999997E+02  0.45594000000E+02  0.51100000000E-03 0.  1.
         11   -1    0    0    0    0 -0.00000000000E+00 -0.00000000000E+00 -0.45593999997E+02  0.45594000000E+02  0.51100000000E-03 0. -1.
    9900012    2    1    2    0    0 -0.67536418700E+01 -0.64237808581E+01  0.39576369746E+02  0.50528859806E+02  0.29999999866E+02 0.  0.
         12    1    1    2    0    0  0.67536418700E+01  0.64237808581E+01 -0.39576369746E+02  0.40659140194E+02  0.00000000000E+00 0. -1.
         11    1    3    3    0    0 -0.18256779814E+01  0.49792589876E+00  0.13744267301E+00  0.18973457887E+01  0.51100000000E-03 0. -1.
        -11    1    3    3    0    0  0.33115881514E+01  0.86636522271E+01  0.66799096762E+01  0.11430077845E+02  0.51100000000E-03 0.  1.
        -12    1    3    3    0    0 -0.82395520400E+01 -0.15585358984E+02  0.32759017397E+02  0.37201436173E+02  0.00000000000E+00 0.  1.
</event>
<event>
 7    1  0.2942034E-011  0.5052885E+02  0.7816164E-02  0.1300439E+00
        -11   -1    0    0    0    0  0.00000000000E+00  0.00000000000E+00  0.45593999997E+02  0.45594000000E+02  0.51100000000E-03 0.  1.
         11   -1    0    0    0    0 -0.00000000000E+00 -0.00000000000E+00 -0.45593999997E+02  0.45594000000E+02  0.51100000000E-03 0. -1.
    9900012    2    1    2    0    0  0.14428423598E+01 -0.12855441611E+02  0.38546360671E+02  0.50528854731E+02  0.29999984439E+02 0.  0.
         12    1    1    2    0    0 -0.14428423598E+01  0.12855441611E+02 -0.38546360671E+02  0.40659145269E+02  0.00000000000E+00 0. -1.
         11    1    3    3    0    0  0.17459229865E+01 -0.13114268235E+02  0.41319207382E+01  0.13860196523E+02  0.51100000000E-03 0. -1.
        -11    1    3    3    0    0  0.31193491201E+01 -0.20921708780E+01  0.31179985377E+02  0.31405397725E+02  0.51100000000E-03 0.  1.
        -12    1    3    3    0    0 -0.34224297468E+01  0.23509975024E+01  0.32344545555E+01  0.52632604818E+01  0.00000000000E+00 0.  1.
</event>
<event>
 7    1  0.2942034E-011  0.5052886E+02  0.7816164E-02  0.1300439E+00
        -11   -1    0    0    0    0  0.00000000000E+00  0.00000000000E+00  0.45593999997E+02  0.45594000000E+02  0.51100000000E-03 0. -1.
         11   -1    0    0    0    0 -0.00000000000E+00 -0.00000000000E+00 -0.45593999997E+02  0.45594000000E+02  0.51100000000E-03 0.  1.
    9900012    2    1    2    0    0  0.21269565281E+02  0.34549376035E+02 -0.26668236367E+01  0.50528859085E+02  0.29999997674E+02 0.  0.
         12    1    1    2    0    0 -0.21269565281E+02 -0.34549376035E+02  0.26668236367E+01  0.40659140915E+02  0.00000000000E+00 0. -1.
         11    1    3    3    0    0  0.27411527405E+02  0.27732276051E+02 -0.77023783374E+01  0.39746667809E+02  0.51100000000E-03 0. -1.
        -11    1    3    3    0    0 -0.32889529684E+01  0.53386680108E+01  0.27969259273E+01  0.68659582478E+01  0.51100000000E-03 0.  1.
         12    1    3    3    0    0 -0.28530091552E+01  0.14784319734E+01  0.22386287734E+01  0.39162330274E+01  0.00000000000E+00 0. -1.
</event>
<event>
 7    1  0.2942034E-011  0.5052886E+02  0.7816164E-02  0.1300439E+00
        -11   -1    0    0    0    0  0.00000000000E+00  0.00000000000E+00  0.45593999997E+02  0.45594000000E+02  0.51100000000E-03 0. -1.
         11   -1    0    0    0    0 -0.00000000000E+00 -0.00000000000E+00 -0.45593999997E+02  0.45594000000E+02  0.51100000000E-03 0.  1.
    9900012    2    1    2    0    0 -0.38771115400E+02 -0.10471434255E+02 -0.63494482093E+01  0.50528858134E+02  0.29999994785E+02 0.  0.
         12    1    1    2    0    0  0.38771115400E+02  0.10471434255E+02  0.63494482093E+01  0.40659141866E+02  0.00000000000E+00 0. -1.
         11    1    3    3    0    0 -0.32524894996E+01  0.60046727035E+01  0.43385055467E+01  0.80905755581E+01  0.51100000000E-03 0. -1.
        -11    1    3    3    0    0 -0.19547196449E+02 -0.23347732501E+01 -0.61967178958E+01  0.20638395482E+02  0.51100000000E-03 0.  1.
         12    1    3    3    0    0 -0.15971429451E+02 -0.14141333708E+02 -0.44912358602E+01  0.21799887094E+02  0.00000000000E+00 0. -1.
</event>
<event>
 7    1  0.2942034E-011  0.5052887E+02  0.7816164E-02  0.1300439E+00
        -11   -1    0    0    0    0  0.00000000000E+00  0.00000000000E+00  0.45593999997E+02  0.45594000000E+02  0.51100000000E-03 0.  1.
         11   -1    0    0    0    0 -0.00000000000E+00 -0.00000000000E+00 -0.45593999997E+02  0.45594000000E+02  0.51100000000E-03 0. -1.
    9900012    2    1    2    0    0  0.13321373895E+02  0.92712861425E+01  0.37279343471E+02  0.50528865739E+02  0.30000017901E+02 0.  0.
         12    1    1    2    0    0 -0.13321373895E+02 -0.92712861425E+01 -0.37279343471E+02  0.40659134261E+02  0.00000000000E+00 0. -1.
         11    1    3    3    0    0  0.32470962165E+01 -0.10070125214E+02  0.10918019926E+02  0.15203756609E+02  0.51100000000E-03 0. -1.
        -11    1    3    3    0    0  0.53213252486E+01  0.40914010794E+01  0.12444965356E+02  0.14139774686E+02  0.51100000000E-03 0.  1.
         12    1    3    3    0    0  0.47529524296E+01  0.15250010277E+02  0.13916358190E+02  0.21185334444E+02  0.00000000000E+00 0. -1.
</event>
<event>
 7    1  0.2942034E-011  0.5052886E+02  0.7816164E-02  0.1300439E+00
        -11   -1    0    0    0    0  0.00000000000E+00  0.00000000000E+00  0.45593999997E+02  0.45594000000E+02  0.51100000000E-03 0. -1.
         11   -1    0    0    0    0 -0.00000000000E+00 -0.00000000000E+00 -0.45593999997E+02  0.45594000000E+02  0.51100000000E-03 0.  1.
    9900012    2    1    2    0    0 -0.35010406038E+02 -0.19219227368E+02 -0.76196349763E+01  0.50528855042E+02  0.29999985386E+02 0.  0.
         12    1    1    2    0    0  0.35010406038E+02  0.19219227368E+02  0.76196349763E+01  0.40659144958E+02  0.00000000000E+00 0. -1.
         11    1    3    3    0    0 -0.65234594962E+01 -0.65536613134E+01  0.56283275312E+01  0.10825159189E+02  0.51100000000E-03 0. -1.
        -11    1    3    3    0    0 -0.80452552916E+01  0.29726656209E+00 -0.13243299323E+02  0.15498370151E+02  0.51100000000E-03 0.  1.
        -12    1    3    3    0    0 -0.20441691250E+02 -0.12962832617E+02 -0.46631846922E-02  0.24205325702E+02  0.00000000000E+00 0.  1.
</event>
<event>
 7    1  0.2942034E-011  0.5052886E+02  0.7816164E-02  0.1300439E+00
        -11   -1    0    0    0    0  0.00000000000E+00  0.00000000000E+00  0.45593999997E+02  0.45594000000E+02  0.51100000000E-03 0.  1.
         11   -1    0    0    0    0 -0.00000000000E+00 -0.00000000000E+00 -0.45593999997E+02  0.45594000000E+02  0.51100000000E-03 0. -1.
    9900012    2    1    2    0    0 -0.28089364110E+02 -0.16195022763E-01  0.29396473033E+02  0.50528864923E+02  0.30000015421E+02 0.  0.
         12    1    1    2    0    0  0.28089364110E+02  0.16195022763E-01 -0.29396473033E+02  0.40659135077E+02  0.00000000000E+00 0. -1.
         11    1    3    3    0    0  0.82911202803E+00 -0.85813605483E+01  0.91299103090E+01  0.12557166803E+02  0.51100000000E-03 0. -1.
        -11    1    3    3    0    0 -0.27405038760E+02  0.56925907875E+01  0.14924670975E+02  0.31720459380E+02  0.51100000000E-03 0.  1.
        -12    1    3    3    0    0 -0.15134373782E+01  0.28725747380E+01  0.53418917494E+01  0.62512387401E+01  0.00000000000E+00 0.  1.
</event>
<event>
 7    1  0.2942034E-011  0.5052886E+02  0.7816164E-02  0.1300439E+00
        -11   -1    0    0    0    0  0.00000000000E+00  0.00000000000E+00  0.45593999997E+02  0.45594000000E+02  0.51100000000E-03 0. -1.
         11   -1    0    0    0    0 -0.00000000000E+00 -0.00000000000E+00 -0.45593999997E+02  0.45594000000E+02  0.51100000000E-03 0.  1.
    9900012    2    1    2    0    0  0.91669890188E+01 -0.30211976290E+02 -0.25619684625E+02  0.50528862782E+02  0.30000008911E+02 0.  0.
         12    1    1    2    0    0 -0.91669890188E+01  0.30211976290E+02  0.25619684625E+02  0.40659137218E+02  0.00000000000E+00 0. -1.
         11    1    3    3    0    0  0.10162995749E+02 -0.75722431649E+01 -0.59280037072E+00  0.12687661789E+02  0.51100000000E-03 0. -1.
        -11    1    3    3    0    0 -0.38726719868E+01 -0.15832259655E+02 -0.58962911831E+01  0.17332751775E+02  0.51100000000E-03 0.  1.
         12    1    3    3    0    0  0.28766652566E+01 -0.68074734702E+01 -0.19130593072E+02  0.20508449218E+02  0.00000000000E+00 0. -1.
</event>
<event>
 7    1  0.2942034E-011  0.5052885E+02  0.7816164E-02  0.1300439E+00
        -11   -1    0    0    0    0  0.00000000000E+00  0.00000000000E+00  0.45593999997E+02  0.45594000000E+02  0.51100000000E-03 0. -1.
         11   -1    0    0    0    0 -0.00000000000E+00 -0.00000000000E+00 -0.45593999997E+02  0.45594000000E+02  0.51100000000E-03 0.  1.
    9900012    2    1    2    0    0 -0.15195512015E+02 -0.36774812334E+02 -0.83591910304E+01  0.50528849957E+02  0.29999969928E+02 0.  0.
         12    1    1    2    0    0  0.15195512015E+02  0.36774812334E+02  0.83591910304E+01  0.40659150043E+02  0.00000000000E+00 0. -1.
         11    1    3    3    0    0 -0.42906095595E+01 -0.45593677475E+01  0.91344311741E+01  0.11074068710E+02  0.51100000000E-03 0. -1.
        -11    1    3    3    0    0 -0.19374760107E+01 -0.45565116335E+01 -0.69341212816E+01  0.85204254452E+01  0.51100000000E-03 0.  1.
         12    1    3    3    0    0 -0.89674264447E+01 -0.27658932953E+02 -0.10559500923E+02  0.30934355802E+02  0.00000000000E+00 0. -1.
</event>
<event>
 7    1  0.2942034E-011  0.5052886E+02  0.7816164E-02  0.1300439E+00
        -11   -1    0    0    0    0  0.00000000000E+00  0.00000000000E+00  0.45593999997E+02  0.45594000000E+02  0.51100000000E-03 0. -1.
         11   -1    0    0    0    0 -0.00000000000E+00 -0.00000000000E+00 -0.45593999997E+02  0.45594000000E+02  0.51100000000E-03 0.  1.
    9900012    2    1    2    0    0 -0.25312155243E+02  0.19403123800E+02 -0.25218628197E+02  0.50528860506E+02  0.30000001994E+02 0.  0.
         12    1    1    2    0    0  0.25312155243E+02 -0.19403123800E+02  0.25218628197E+02  0.40659139494E+02  0.00000000000E+00 0. -1.
         11    1    3    3    0    0  0.54113920898E+00  0.52777523984E+01 -0.89248478501E+01  0.10382697695E+02  0.51100000000E-03 0. -1.
        -11    1    3    3    0    0 -0.19788481686E+02  0.15974355384E+02 -0.32439846800E+01  0.25637618342E+02  0.51100000000E-03 0.  1.
        -12    1    3    3    0    0 -0.60648127660E+01 -0.18489839821E+01 -0.13049795667E+02  0.14508544469E+02  0.00000000000E+00 0.  1.
</event>
<event>
 7    1  0.2942034E-011  0.5052886E+02  0.7816164E-02  0.1300439E+00
        -11   -1    0    0    0    0  0.00000000000E+00  0.00000000000E+00  0.45593999997E+02  0.45594000000E+02  0.51100000000E-03 0.  1.
         11   -1    0    0    0    0 -0.00000000000E+00 -0.00000000000E+00 -0.45593999997E+02  0.45594000000E+02  0.51100000000E-03 0. -1.
    9900012    2    1    2    0    0 -0.69649888878E+01  0.29811989190E+02  0.26756308415E+02  0.50528858227E+02  0.29999995068E+02 0.  0.
         12    1    1    2    0    0  0.69649888878E+01 -0.29811989190E+02 -0.26756308415E+02  0.40659141773E+02  0.00000000000E+00 0. -1.
         11    1    3    3    0    0 -0.47101719311E+01  0.28604291368E+02  0.87689200758E+01  0.30286715963E+02  0.51100000000E-03 0. -1.
        -11    1    3    3    0    0  0.19288937374E+01  0.27871585635E+00  0.14731914159E+02  0.14860269467E+02  0.51100000000E-03 0.  1.
        -12    1    3    3    0    0 -0.41837106941E+01  0.92898196576E+00  0.32554741808E+01  0.53818727973E+01  0.00000000000E+00 0.  1.
</event>
<event>
 7    1  0.2942034E-011  0.5052883E+02  0.7816164E-02  0.1300439E+00
        -11   -1    0    0    0    0  0.00000000000E+00  0.00000000000E+00  0.45593999997E+02  0.45594000000E+02  0.51100000000E-03 0.  1.
         11   -1    0    0    0    0 -0.00000000000E+00 -0.00000000000E+00 -0.45593999997E+02  0.45594000000E+02  0.51100000000E-03 0. -1.
    9900012    2    1    2    0    0  0.19436980828E+02  0.16847584317E+02  0.31488582471E+02  0.50528829484E+02  0.29999907700E+02 0.  0.
         12    1    1    2    0    0 -0.19436980828E+02 -0.16847584317E+02 -0.31488582471E+02  0.40659170516E+02  0.00000000000E+00 0. -1.
         11    1    3    3    0    0 -0.21344937985E+01 -0.81804867145E+00 -0.38535519600E+01  0.44805279125E+01  0.51100000000E-03 0. -1.
        -11    1    3    3    0    0  0.82392770093E+01  0.93433182991E+01  0.89792300934E+01  0.15356101582E+02  0.51100000000E-03 0.  1.
         12    1    3    3    0    0  0.13332197617E+02  0.83223146890E+01  0.26362904338E+02  0.30692199989E+02  0.00000000000E+00 0. -1.
</event>
<event>
 7    1  0.2942034E-011  0.5052885E+02  0.7816164E-02  0.1300439E+00
        -11   -1    0    0    0    0  0.00000000000E+00  0.00000000000E+00  0.45593999997E+02  0.45594000000E+02  0.51100000000E-03 0.  1.
         11   -1    0    0    0    0 -0.00000000000E+00 -0.00000000000E+00 -0.45593999997E+02  0.45594000000E+02  0.51100000000E-03 0. -1.
    9900012    2    1    2    0    0 -0.33851837969E+01 -0.30905170823E+02  0.26202626109E+02  0.50528847674E+02  0.29999962988E+02 0.  0.
         12    1    1    2    0    0  0.33851837969E+01  0.30905170823E+02 -0.26202626109E+02  0.40659152326E+02  0.00000000000E+00 0. -1.
         11    1    3    3    0    0  0.29043423073E+01  0.18716976964E+00  0.16360990756E+02  0.16617829447E+02  0.51100000000E-03 0. -1.
        -11    1    3    3    0    0 -0.61985241726E+01 -0.22841309077E+02  0.99119467997E+01  0.25659185332E+02  0.51100000000E-03 0.  1.
         12    1    3    3    0    0 -0.91001931649E-01 -0.82510315150E+01 -0.70311447066E-01  0.82518328941E+01  0.00000000000E+00 0. -1.
</event>
<event>
 7    1  0.2942034E-011  0.5052883E+02  0.7816164E-02  0.1300439E+00
        -11   -1    0    0    0    0  0.00000000000E+00  0.00000000000E+00  0.45593999997E+02  0.45594000000E+02  0.51100000000E-03 0. -1.
         11   -1    0    0    0    0 -0.00000000000E+00 -0.00000000000E+00 -0.45593999997E+02  0.45594000000E+02  0.51100000000E-03 0.  1.
    9900012    2    1    2    0    0  0.24443298920E+02 -0.10906459919E+02 -0.30606248172E+02  0.50528829359E+02  0.29999907318E+02 0.  0.
         12    1    1    2    0    0 -0.24443298920E+02  0.10906459919E+02  0.30606248172E+02  0.40659170641E+02  0.00000000000E+00 0. -1.
         11    1    3    3    0    0  0.87226789293E+01 -0.41515059702E+01 -0.62887343681E+01  0.11526851684E+02  0.51100000000E-03 0. -1.
        -11    1    3    3    0    0 -0.23287813909E+01 -0.11256474630E+02 -0.12406737029E+02  0.16913266031E+02  0.51100000000E-03 0.  1.
        -12    1    3    3    0    0  0.18049401382E+02  0.45015206816E+01 -0.11910776775E+02  0.22088711644E+02  0.00000000000E+00 0.  1.
</event>
<event>
 7    1  0.2942034E-011  0.5052885E+02  0.7816164E-02  0.1300439E+00
        -11   -1    0    0    0    0  0.00000000000E+00  0.00000000000E+00  0.45593999997E+02  0.45594000000E+02  0.51100000000E-03 0.  1.
         11   -1    0    0    0    0 -0.00000000000E+00 -0.00000000000E+00 -0.45593999997E+02  0.45594000000E+02  0.51100000000E-03 0. -1.
    9900012    2    1    2    0    0  0.15460113125E+01  0.67811928815E+01  0.40059855988E+02  0.50528846176E+02  0.29999958437E+02 0.  0.
         12    1    1    2    0    0 -0.15460113125E+01 -0.67811928815E+01 -0.40059855988E+02  0.40659153824E+02  0.00000000000E+00 0. -1.
         11    1    3    3    0    0  0.50219866811E+01  0.10049057557E+02  0.50214200704E+01  0.12305225223E+02  0.51100000000E-03 0. -1.
        -11    1    3    3    0    0 -0.26844299537E+01 -0.90336362500E+01  0.22845550373E+02  0.24712990919E+02  0.51100000000E-03 0.  1.
        -12    1    3    3    0    0 -0.79154541483E+00  0.57657715742E+01  0.12192885545E+02  0.13510630033E+02  0.00000000000E+00 0.  1.
</event>
<event>
 7    1  0.2942034E-011  0.5052886E+02  0.7816164E-02  0.1300439E+00
        -11   -1    0    0    0    0  0.00000000000E+00  0.00000000000E+00  0.45593999997E+02  0.45594000000E+02  0.51100000000E-03 0. -1.
         11   -1    0    0    0    0 -0.00000000000E+00 -0.00000000000E+00 -0.45593999997E+02  0.45594000000E+02  0.51100000000E-03 0.  1.
    9900012    2    1    2    0    0 -0.79062597228E+01  0.37893031605E+02  0.12440847067E+02  0.50528862493E+02  0.30000008034E+02 0.  0.
         12    1    1    2    0    0  0.79062597228E+01 -0.37893031605E+02 -0.12440847067E+02  0.40659137507E+02  0.00000000000E+00 0. -1.
         11    1    3    3    0    0 -0.27120705185E+01 -0.18125385689E+01 -0.40896321185E+01  0.52312248744E+01  0.51100000000E-03 0.  1.
        -11    1    3    3    0    0 -0.23647796222E+01  0.38837425037E+02  0.16680787112E+02  0.42334222860E+02  0.51100000000E-03 0. -1.
         12    1    3    3    0    0 -0.28294095821E+01  0.86814513714E+00 -0.15030792655E+00  0.29634147592E+01  0.00000000000E+00 0. -1.
</event>
<event>
 7    1  0.2942034E-011  0.5052887E+02  0.7816164E-02  0.1300439E+00
        -11   -1    0    0    0    0  0.00000000000E+00  0.00000000000E+00  0.45593999997E+02  0.45594000000E+02  0.51100000000E-03 0. -1.
         11   -1    0    0    0    0 -0.00000000000E+00 -0.00000000000E+00 -0.45593999997E+02  0.45594000000E+02  0.51100000000E-03 0.  1.
    9900012    2    1    2    0    0  0.73044182375E+01 -0.16040463184E+02 -0.36640326237E+02  0.50528874435E+02  0.30000044332E+02 0.  0.
         12    1    1    2    0    0 -0.73044182375E+01  0.16040463184E+02  0.36640326237E+02  0.40659125565E+02  0.00000000000E+00 0. -1.
         11    1    3    3    0    0  0.76758156124E+01  0.31511166107E+01 -0.36334721633E+01  0.90581345449E+01  0.51100000000E-03 0. -1.
        -11    1    3    3    0    0 -0.76913790794E+01 -0.13594830288E+02 -0.23616465707E+02  0.28314557660E+02  0.51100000000E-03 0.  1.
        -12    1    3    3    0    0  0.73199817045E+01 -0.55967495066E+01 -0.93903883667E+01  0.13156182230E+02  0.00000000000E+00 0.  1.
</event>
<event>
 7    1  0.2942034E-011  0.5052886E+02  0.7816164E-02  0.1300439E+00
        -11   -1    0    0    0    0  0.00000000000E+00  0.00000000000E+00  0.45593999997E+02  0.45594000000E+02  0.51100000000E-03 0.  1.
         11   -1    0    0    0    0 -0.00000000000E+00 -0.00000000000E+00 -0.45593999997E+02  0.45594000000E+02  0.51100000000E-03 0. -1.
    9900012    2    1    2    0    0  0.80936952727E+01  0.39302847432E+02 -0.65531463934E+01  0.50528862687E+02  0.30000008623E+02 0.  0.
         12    1    1    2    0    0 -0.80936952727E+01 -0.39302847432E+02  0.65531463934E+01  0.40659137313E+02  0.00000000000E+00 0. -1.
         11    1    3    3    0    0  0.14483625496E+02  0.21028777990E+02 -0.84701614140E+01  0.26902203365E+02  0.51100000000E-03 0. -1.
        -11    1    3    3    0    0 -0.55997117896E+00  0.17637694836E+02  0.20150046280E+01  0.17761252511E+02  0.51100000000E-03 0.  1.
        -12    1    3    3    0    0 -0.58299590439E+01  0.63637460555E+00 -0.97989607381E-01  0.58654068107E+01  0.00000000000E+00 0.  1.
</event>
<event>
 7    1  0.2942034E-011  0.5052886E+02  0.7816164E-02  0.1300439E+00
        -11   -1    0    0    0    0  0.00000000000E+00  0.00000000000E+00  0.45593999997E+02  0.45594000000E+02  0.51100000000E-03 0.  1.
         11   -1    0    0    0    0 -0.00000000000E+00 -0.00000000000E+00 -0.45593999997E+02  0.45594000000E+02  0.51100000000E-03 0. -1.
    9900012    2    1    2    0    0  0.28812336020E+02  0.15357790145E+01  0.28647093694E+02  0.50528864480E+02  0.30000014073E+02 0.  0.
         12    1    1    2    0    0 -0.28812336020E+02 -0.15357790145E+01 -0.28647093694E+02  0.40659135520E+02  0.00000000000E+00 0. -1.
         11    1    3    3    0    0  0.50285655861E+01  0.81269138446E+01  0.76776166648E+00  0.95876305065E+01  0.51100000000E-03 0. -1.
        -11    1    3    3    0    0  0.22302241918E+02 -0.11303880191E+02  0.24027686415E+02  0.34677044520E+02  0.51100000000E-03 0.  1.
        -12    1    3    3    0    0  0.14815285165E+01  0.47127453611E+01  0.38516456122E+01  0.62641894532E+01  0.00000000000E+00 0.  1.
</event>
<event>
 7    1  0.2942034E-011  0.5052884E+02  0.7816164E-02  0.1300439E+00
        -11   -1    0    0    0    0  0.00000000000E+00  0.00000000000E+00  0.45593999997E+02  0.45594000000E+02  0.51100000000E-03 0.  1.
         11   -1    0    0    0    0 -0.00000000000E+00 -0.00000000000E+00 -0.45593999997E+02  0.45594000000E+02  0.51100000000E-03 0. -1.
    9900012    2    1    2    0    0 -0.32472084028E+02 -0.19820757404E+02  0.14348111024E+02  0.50528844141E+02  0.29999952251E+02 0.  0.
         12    1    1    2    0    0  0.32472084028E+02  0.19820757404E+02 -0.14348111024E+02  0.40659155859E+02  0.00000000000E+00 0. -1.
         11    1    3    3    0    0 -0.28285922313E+02 -0.14077590231E+02 -0.97107736814E+00  0.31610361265E+02  0.51100000000E-03 0. -1.
        -11    1    3    3    0    0  0.10999104887E+01 -0.24974681396E+01  0.11065691747E+02  0.11397222657E+02  0.51100000000E-03 0.  1.
        -12    1    3    3    0    0 -0.52860722042E+01 -0.32456990334E+01  0.42534966449E+01  0.75212602183E+01  0.00000000000E+00 0.  1.
</event>
<event>
 7    1  0.2942034E-011  0.5052887E+02  0.7816164E-02  0.1300439E+00
        -11   -1    0    0    0    0  0.00000000000E+00  0.00000000000E+00  0.45593999997E+02  0.45594000000E+02  0.51100000000E-03 0.  1.
         11   -1    0    0    0    0 -0.00000000000E+00 -0.00000000000E+00 -0.45593999997E+02  0.45594000000E+02  0.51100000000E-03 0. -1.
    9900012    2    1    2    0    0  0.14532375476E+02 -0.40296250303E+00  0.37971210865E+02  0.50528866090E+02  0.30000018967E+02 0.  0.
         12    1    1    2    0    0 -0.14532375476E+02  0.40296250303E+00 -0.37971210865E+02  0.40659133910E+02  0.00000000000E+00 0. -1.
         11    1    3    3    0    0  0.10520022960E+02  0.48872983776E+01  0.63271633302E+01  0.13213234448E+02  0.51100000000E-03 0. -1.
        -11    1    3    3    0    0  0.56581769773E+01 -0.10782052787E+02  0.27971961276E+02  0.30507347425E+02  0.51100000000E-03 0.  1.
        -12    1    3    3    0    0 -0.16458244611E+01  0.54917919060E+01  0.36720862587E+01  0.68082842175E+01  0.00000000000E+00 0.  1.
</event>
<event>
 7    1  0.2942034E-011  0.5052886E+02  0.7816164E-02  0.1300439E+00
        -11   -1    0    0    0    0  0.00000000000E+00  0.00000000000E+00  0.45593999997E+02  0.45594000000E+02  0.51100000000E-03 0.  1.
         11   -1    0    0    0    0 -0.00000000000E+00 -0.00000000000E+00 -0.45593999997E+02  0.45594000000E+02  0.51100000000E-03 0. -1.
    9900012    2    1    2    0    0  0.13138917089E+02  0.33702293213E+02  0.18565829244E+02  0.50528859261E+02  0.29999998210E+02 0.  0.
         12    1    1    2    0    0 -0.13138917089E+02 -0.33702293213E+02 -0.18565829244E+02  0.40659140739E+02  0.00000000000E+00 0. -1.
         11    1    3    3    0    0  0.10917171345E+02  0.12051323742E+02  0.36684034821E+01  0.16669619626E+02  0.51100000000E-03 0. -1.
        -11    1    3    3    0    0 -0.49674734707E+01  0.10303922672E+02  0.16766676642E+02  0.20296996354E+02  0.51100000000E-03 0.  1.
         12    1    3    3    0    0  0.71892192146E+01  0.11347046798E+02 -0.18692508794E+01  0.13562243281E+02  0.00000000000E+00 0. -1.
</event>
<event>
 7    1  0.2942034E-011  0.5052885E+02  0.7816164E-02  0.1300439E+00
        -11   -1    0    0    0    0  0.00000000000E+00  0.00000000000E+00  0.45593999997E+02  0.45594000000E+02  0.51100000000E-03 0. -1.
         11   -1    0    0    0    0 -0.00000000000E+00 -0.00000000000E+00 -0.45593999997E+02  0.45594000000E+02  0.51100000000E-03 0.  1.
    9900012    2    1    2    0    0  0.14235586785E+01 -0.39442719214E+02  0.97678881314E+01  0.50528852729E+02  0.29999978354E+02 0.  0.
         12    1    1    2    0    0 -0.14235586785E+01  0.39442719214E+02 -0.97678881314E+01  0.40659147271E+02  0.00000000000E+00 0. -1.
         11    1    3    3    0    0  0.98886021928E+01 -0.67581576807E+01  0.14554935193E+01  0.12065471819E+02  0.51100000000E-03 0. -1.
        -11    1    3    3    0    0 -0.10292797118E+02 -0.33547673229E+02  0.63788553605E+01  0.35666200352E+02  0.51100000000E-03 0.  1.
        -12    1    3    3    0    0  0.18277536034E+01  0.86311169616E+00  0.19335392516E+01  0.27971805577E+01  0.00000000000E+00 0.  1.
</event>
<event>
 7    1  0.2942034E-011  0.5052886E+02  0.7816164E-02  0.1300439E+00
        -11   -1    0    0    0    0  0.00000000000E+00  0.00000000000E+00  0.45593999997E+02  0.45594000000E+02  0.51100000000E-03 0. -1.
         11   -1    0    0    0    0 -0.00000000000E+00 -0.00000000000E+00 -0.45593999997E+02  0.45594000000E+02  0.51100000000E-03 0.  1.
    9900012    2    1    2    0    0  0.12434232595E+02  0.38433656785E+02  0.46270774684E+01  0.50528856379E+02  0.29999989450E+02 0.  0.
         12    1    1    2    0    0 -0.12434232595E+02 -0.38433656785E+02 -0.46270774684E+01  0.40659143621E+02  0.00000000000E+00 0. -1.
         11    1    3    3    0    0 -0.49322535268E+01  0.49446554166E+01 -0.25311127587E+01  0.74285445479E+01  0.51100000000E-03 0. -1.
        -11    1    3    3    0    0  0.11134372617E+02  0.31161031873E+02  0.11640730087E+02  0.35078351703E+02  0.51100000000E-03 0.  1.
        -12    1    3    3    0    0  0.62321135043E+01  0.23279694951E+01 -0.44825398603E+01  0.80219601283E+01  0.00000000000E+00 0.  1.
</event>
<event>
 7    1  0.2942034E-011  0.5052886E+02  0.7816164E-02  0.1300439E+00
        -11   -1    0    0    0    0  0.00000000000E+00  0.00000000000E+00  0.45593999997E+02  0.45594000000E+02  0.51100000000E-03 0.  1.
         11   -1    0    0    0    0 -0.00000000000E+00 -0.00000000000E+00 -0.45593999997E+02  0.45594000000E+02  0.51100000000E-03 0. -1.
    9900012    2    1    2    0    0 -0.26205861129E+01 -0.36745115762E+02  0.17207397064E+02  0.50528861818E+02  0.30000005983E+02 0.  0.
         12    1    1    2    0    0  0.26205861129E+01  0.36745115762E+02 -0.17207397064E+02  0.40659138182E+02  0.00000000000E+00 0. -1.
         11    1    3    3    0    0  0.15286990293E+01  0.31845426711E+01 -0.35977863533E+01  0.50420531186E+01  0.51100000000E-03 0. -1.
        -11    1    3    3    0    0 -0.26667214193E+01 -0.22078634033E+02  0.87658242172E+01  0.23904333464E+02  0.51100000000E-03 0.  1.
         12    1    3    3    0    0 -0.14825637229E+01 -0.17851024400E+02  0.12039359201E+02  0.21582475235E+02  0.00000000000E+00 0. -1.
</event>
<event>
 7    1  0.2942034E-011  0.5052886E+02  0.7816164E-02  0.1300439E+00
        -11   -1    0    0    0    0  0.00000000000E+00  0.00000000000E+00  0.45593999997E+02  0.45594000000E+02  0.51100000000E-03 0.  1.
         11   -1    0    0    0    0 -0.00000000000E+00 -0.00000000000E+00 -0.45593999997E+02  0.45594000000E+02  0.51100000000E-03 0. -1.
    9900012    2    1    2    0    0  0.22166817114E+02 -0.13251221720E+02  0.31403874061E+02  0.50528856329E+02  0.29999989297E+02 0.  0.
         12    1    1    2    0    0 -0.22166817114E+02  0.13251221720E+02 -0.31403874061E+02  0.40659143671E+02  0.00000000000E+00 0. -1.
         11    1    3    3    0    0  0.17992843021E+02  0.18754012190E+01  0.44510081387E+01  0.18629841744E+02  0.51100000000E-03 0. -1.
        -11    1    3    3    0    0 -0.18556394792E+01 -0.32886444385E+01  0.59002485952E+01  0.70051062708E+01  0.51100000000E-03 0.  1.
         12    1    3    3    0    0  0.60296135724E+01 -0.11837978500E+02  0.21052617327E+02  0.24893908314E+02  0.00000000000E+00 0. -1.
</event>
<event>
 7    1  0.2942034E-011  0.5052886E+02  0.7816164E-02  0.1300439E+00
        -11   -1    0    0    0    0  0.00000000000E+00  0.00000000000E+00  0.45593999997E+02  0.45594000000E+02  0.51100000000E-03 0.  1.
         11   -1    0    0    0    0 -0.00000000000E+00 -0.00000000000E+00 -0.45593999997E+02  0.45594000000E+02  0.51100000000E-03 0. -1.
    9900012    2    1    2    0    0  0.11339800795E+01 -0.16409238809E+02  0.37183550900E+02  0.50528862200E+02  0.30000007144E+02 0.  0.
         12    1    1    2    0    0 -0.11339800795E+01  0.16409238809E+02 -0.37183550900E+02  0.40659137800E+02  0.00000000000E+00 0. -1.
         11    1    3    3    0    0 -0.26456918218E+01 -0.10735647792E+02  0.13745253639E+01  0.11141954002E+02  0.51100000000E-03 0. -1.
        -11    1    3    3    0    0  0.83690326100E+01  0.86412156167E+00  0.18126634000E+02  0.19984050473E+02  0.51100000000E-03 0.  1.
         12    1    3    3    0    0 -0.45893607087E+01 -0.65377125788E+01  0.17682391536E+02  0.19402857725E+02  0.00000000000E+00 0. -1.
</event>
<event>
 7    1  0.2942034E-011  0.5052884E+02  0.7816164E-02  0.1300439E+00
        -11   -1    0    0    0    0  0.00000000000E+00  0.00000000000E+00  0.45593999997E+02  0.45594000000E+02  0.51100000000E-03 0.  1.
         11   -1    0    0    0    0 -0.00000000000E+00 -0.00000000000E+00 -0.45593999997E+02  0.45594000000E+02  0.51100000000E-03 0. -1.
    9900012    2    1    2    0    0  0.33567034536E+02 -0.96604647774E+01 -0.20810971911E+02  0.50528844338E+02  0.29999952850E+02 0.  0.
         12    1    1    2    0    0 -0.33567034536E+02  0.96604647774E+01  0.20810971911E+02  0.40659155662E+02  0.00000000000E+00 0. -1.
         11    1    3    3    0    0  0.12677606456E+02  0.77425112538E+01 -0.15390595331E+02  0.21390152194E+02  0.51100000000E-03 0. -1.
        -11    1    3    3    0    0  0.10840250397E+02 -0.34814513858E+01 -0.31957613734E+01  0.11825583429E+02  0.51100000000E-03 0.  1.
         12    1    3    3    0    0  0.10049177683E+02 -0.13921524645E+02 -0.22246152066E+01  0.17313108715E+02  0.00000000000E+00 0. -1.
</event>
<event>
 7    1  0.2942034E-011  0.5052885E+02  0.7816164E-02  0.1300439E+00
        -11   -1    0    0    0    0  0.00000000000E+00  0.00000000000E+00  0.45593999997E+02  0.45594000000E+02  0.51100000000E-03 0.  1.
         11   -1    0    0    0    0 -0.00000000000E+00 -0.00000000000E+00 -0.45593999997E+02  0.45594000000E+02  0.51100000000E-03 0. -1.
    9900012    2    1    2    0    0 -0.24654747300E+02  0.21581274179E+02  0.24074018915E+02  0.50528851628E+02  0.29999975009E+02 0.  0.
         12    1    1    2    0    0  0.24654747300E+02 -0.21581274179E+02 -0.24074018915E+02  0.40659148372E+02  0.00000000000E+00 0. -1.
         11    1    3    3    0    0 -0.29942742286E+01  0.14507799300E+02 -0.81630796463E+00  0.14836046563E+02  0.51100000000E-03 0. -1.
        -11    1    3    3    0    0 -0.89888769358E+01 -0.28142577959E+01  0.77738877283E+01  0.12212832848E+02  0.51100000000E-03 0.  1.
         12    1    3    3    0    0 -0.12671596135E+02  0.98877326757E+01  0.17116439151E+02  0.23479972216E+02  0.00000000000E+00 0. -1.
</event>
<event>
 7    1  0.2942034E-011  0.5052887E+02  0.7816164E-02  0.1300439E+00
        -11   -1    0    0    0    0  0.00000000000E+00  0.00000000000E+00  0.45593999997E+02  0.45594000000E+02  0.51100000000E-03 0.  1.
         11   -1    0    0    0    0 -0.00000000000E+00 -0.00000000000E+00 -0.45593999997E+02  0.45594000000E+02  0.51100000000E-03 0. -1.
    9900012    2    1    2    0    0 -0.37907578122E+02 -0.28662391075E+01  0.14420987021E+02  0.50528872213E+02  0.30000037579E+02 0.  0.
         12    1    1    2    0    0  0.37907578122E+02  0.28662391075E+01 -0.14420987021E+02  0.40659127787E+02  0.00000000000E+00 0. -1.
         11    1    3    3    0    0 -0.21603597814E+01  0.43524834148E+01  0.12966881997E+02  0.13847429193E+02  0.51100000000E-03 0. -1.
        -11    1    3    3    0    0 -0.10883031648E+02 -0.38768227250E+01  0.89323271456E+00  0.11587406838E+02  0.51100000000E-03 0.  1.
         12    1    3    3    0    0 -0.24864186694E+02 -0.33418997973E+01  0.56087230913E+00  0.25094036183E+02  0.00000000000E+00 0. -1.
</event>
<event>
 7    1  0.2942034E-011  0.5052886E+02  0.7816164E-02  0.1300439E+00
        -11   -1    0    0    0    0  0.00000000000E+00  0.00000000000E+00  0.45593999997E+02  0.45594000000E+02  0.51100000000E-03 0.  1.
         11   -1    0    0    0    0 -0.00000000000E+00 -0.00000000000E+00 -0.45593999997E+02  0.45594000000E+02  0.51100000000E-03 0. -1.
    9900012    2    1    2    0    0  0.39487519561E+02  0.63737241775E+01  0.72991073843E+01  0.50528861672E+02  0.30000005538E+02 0.  0.
         12    1    1    2    0    0 -0.39487519561E+02 -0.63737241775E+01 -0.72991073843E+01  0.40659138328E+02  0.00000000000E+00 0. -1.
         11    1    3    3    0    0  0.28346985228E+02  0.12789156326E+02  0.91824453748E+01  0.32425782865E+02  0.51100000000E-03 0. -1.
        -11    1    3    3    0    0 -0.76783451918E+00 -0.10070231374E+01  0.36786771856E+01  0.38905438623E+01  0.51100000000E-03 0.  1.
         12    1    3    3    0    0  0.11908368852E+02 -0.54084090109E+01 -0.55620151760E+01  0.14212534945E+02  0.00000000000E+00 0. -1.
</event>
<event>
 7    1  0.2942034E-011  0.5052886E+02  0.7816164E-02  0.1300439E+00
        -11   -1    0    0    0    0  0.00000000000E+00  0.00000000000E+00  0.45593999997E+02  0.45594000000E+02  0.51100000000E-03 0.  1.
         11   -1    0    0    0    0 -0.00000000000E+00 -0.00000000000E+00 -0.45593999997E+02  0.45594000000E+02  0.51100000000E-03 0. -1.
    9900012    2    1    2    0    0 -0.80377927173E+01  0.35831656704E+02 -0.17454279461E+02  0.50528860739E+02  0.30000002704E+02 0.  0.
         12    1    1    2    0    0  0.80377927173E+01 -0.35831656704E+02  0.17454279461E+02  0.40659139261E+02  0.00000000000E+00 0. -1.
         11    1    3    3    0    0  0.45164715033E+01  0.89607337956E+01 -0.37187994764E+01  0.10701529554E+02  0.51100000000E-03 0. -1.
        -11    1    3    3    0    0 -0.56264574528E+01 -0.14435986409E+01  0.26536938562E+01  0.63861640950E+01  0.51100000000E-03 0.  1.
        -12    1    3    3    0    0 -0.69278067678E+01  0.28314521549E+02 -0.16389173841E+02  0.33441167090E+02  0.00000000000E+00 0.  1.
</event>
<event>
 7    1  0.2942034E-011  0.5052886E+02  0.7816164E-02  0.1300439E+00
        -11   -1    0    0    0    0  0.00000000000E+00  0.00000000000E+00  0.45593999997E+02  0.45594000000E+02  0.51100000000E-03 0. -1.
         11   -1    0    0    0    0 -0.00000000000E+00 -0.00000000000E+00 -0.45593999997E+02  0.45594000000E+02  0.51100000000E-03 0.  1.
    9900012    2    1    2    0    0  0.28924853581E+02 -0.24069457572E+02 -0.15400642158E+02  0.50528859313E+02  0.29999998369E+02 0.  0.
         12    1    1    2    0    0 -0.28924853581E+02  0.24069457572E+02  0.15400642158E+02  0.40659140687E+02  0.00000000000E+00 0. -1.
         11    1    3    3    0    0 -0.77363835588E+00 -0.16460543685E+02 -0.63832701713E+01  0.17671846339E+02  0.51100000000E-03 0. -1.
        -11    1    3    3    0    0  0.16154324387E+02 -0.34207779946E+01 -0.93721959065E+00  0.16539114224E+02  0.51100000000E-03 0.  1.
         12    1    3    3    0    0  0.13544167550E+02 -0.41881358929E+01 -0.80801523966E+01  0.16317898750E+02  0.00000000000E+00 0. -1.
</event>
<event>
 7    1  0.2942034E-011  0.5052886E+02  0.7816164E-02  0.1300439E+00
        -11   -1    0    0    0    0  0.00000000000E+00  0.00000000000E+00  0.45593999997E+02  0.45594000000E+02  0.51100000000E-03 0.  1.
         11   -1    0    0    0    0 -0.00000000000E+00 -0.00000000000E+00 -0.45593999997E+02  0.45594000000E+02  0.51100000000E-03 0. -1.
    9900012    2    1    2    0    0  0.74964874910E+01  0.95583450461E+01  0.38802144275E+02  0.50528859760E+02  0.29999999727E+02 0.  0.
         12    1    1    2    0    0 -0.74964874910E+01 -0.95583450461E+01 -0.38802144275E+02  0.40659140240E+02  0.00000000000E+00 0. -1.
         11    1    3    3    0    0 -0.68267900596E+00  0.32672229809E+01  0.10238233104E+02  0.10768575300E+02  0.51100000000E-03 0. -1.
        -11    1    3    3    0    0  0.15253675346E+02 -0.16094983633E+01  0.23364107223E+02  0.27949000038E+02  0.51100000000E-03 0.  1.
        -12    1    3    3    0    0 -0.70745088489E+01  0.79006204285E+01  0.51998039478E+01  0.11811284422E+02  0.00000000000E+00 0.  1.
</event>
<event>
 7    1  0.2942034E-011  0.5052886E+02  0.7816164E-02  0.1300439E+00
        -11   -1    0    0    0    0  0.00000000000E+00  0.00000000000E+00  0.45593999997E+02  0.45594000000E+02  0.51100000000E-03 0.  1.
         11   -1    0    0    0    0 -0.00000000000E+00 -0.00000000000E+00 -0.45593999997E+02  0.45594000000E+02  0.51100000000E-03 0. -1.
    9900012    2    1    2    0    0 -0.29768922323E+02  0.24579804782E+00  0.27693256913E+02  0.50528860420E+02  0.30000001732E+02 0.  0.
         12    1    1    2    0    0  0.29768922323E+02 -0.24579804782E+00 -0.27693256913E+02  0.40659139580E+02  0.00000000000E+00 0. -1.
         11    1    3    3    0    0  0.60251826421E+00  0.42827545873E+01  0.82569320224E+01  0.93210483208E+01  0.51100000000E-03 0.  1.
        -11    1    3    3    0    0 -0.25518447435E+02 -0.11009333379E+02  0.13965340477E+02  0.31103493628E+02  0.51100000000E-03 0. -1.
         12    1    3    3    0    0 -0.48529931522E+01  0.69723768390E+01  0.54709844136E+01  0.10104318472E+02  0.00000000000E+00 0. -1.
</event>
<event>
 7    1  0.2942034E-011  0.5052886E+02  0.7816164E-02  0.1300439E+00
        -11   -1    0    0    0    0  0.00000000000E+00  0.00000000000E+00  0.45593999997E+02  0.45594000000E+02  0.51100000000E-03 0. -1.
         11   -1    0    0    0    0 -0.00000000000E+00 -0.00000000000E+00 -0.45593999997E+02  0.45594000000E+02  0.51100000000E-03 0.  1.
    9900012    2    1    2    0    0  0.30920149772E+02  0.97522980924E+01 -0.24535750480E+02  0.50528855498E+02  0.29999986772E+02 0.  0.
         12    1    1    2    0    0 -0.30920149772E+02 -0.97522980924E+01  0.24535750480E+02  0.40659144502E+02  0.00000000000E+00 0. -1.
         11    1    3    3    0    0  0.15520197786E+02  0.14570464335E+02 -0.23116681268E+02  0.31425402517E+02  0.51100000000E-03 0. -1.
        -11    1    3    3    0    0  0.10049990953E+02 -0.33122486129E+00 -0.50291346238E+01  0.11242963283E+02  0.51100000000E-03 0.  1.
         12    1    3    3    0    0  0.53499610329E+01 -0.44869413808E+01  0.36100654122E+01  0.78604896978E+01  0.00000000000E+00 0. -1.
</event>
<event>
 7    1  0.2942034E-011  0.5052886E+02  0.7816164E-02  0.1300439E+00
        -11   -1    0    0    0    0  0.00000000000E+00  0.00000000000E+00  0.45593999997E+02  0.45594000000E+02  0.51100000000E-03 0.  1.
         11   -1    0    0    0    0 -0.00000000000E+00 -0.00000000000E+00 -0.45593999997E+02  0.45594000000E+02  0.51100000000E-03 0. -1.
    9900012    2    1    2    0    0 -0.31330615480E+02 -0.16870845703E+02  0.19670605010E+02  0.50528860775E+02  0.30000002812E+02 0.  0.
         12    1    1    2    0    0  0.31330615480E+02  0.16870845703E+02 -0.19670605010E+02  0.40659139225E+02  0.00000000000E+00 0. -1.
         11    1    3    3    0    0 -0.18038896826E+02 -0.24147067100E+02  0.85978817847E+01  0.31343360057E+02  0.51100000000E-03 0. -1.
        -11    1    3    3    0    0 -0.77199025342E+01  0.47650216136E+01  0.88737158484E+01  0.12690356943E+02  0.51100000000E-03 0.  1.
         12    1    3    3    0    0 -0.55718161196E+01  0.25111997830E+01  0.21990073764E+01  0.64951437754E+01  0.00000000000E+00 0. -1.
</event>
<event>
 7    1  0.2942034E-011  0.5052887E+02  0.7816164E-02  0.1300439E+00
        -11   -1    0    0    0    0  0.00000000000E+00  0.00000000000E+00  0.45593999997E+02  0.45594000000E+02  0.51100000000E-03 0.  1.
         11   -1    0    0    0    0 -0.00000000000E+00 -0.00000000000E+00 -0.45593999997E+02  0.45594000000E+02  0.51100000000E-03 0. -1.
    9900012    2    1    2    0    0  0.11771039892E+01 -0.90317337106E+01  0.39625840843E+02  0.50528867568E+02  0.30000023460E+02 0.  0.
         12    1    1    2    0    0 -0.11771039892E+01  0.90317337106E+01 -0.39625840843E+02  0.40659132432E+02  0.00000000000E+00 0. -1.
         11    1    3    3    0    0 -0.40081265105E+01  0.11286384492E+00 -0.14164868119E+01  0.42525582326E+01  0.51100000000E-03 0. -1.
        -11    1    3    3    0    0  0.11487348332E+02 -0.80726723551E+01  0.21183482610E+02  0.25413916392E+02  0.51100000000E-03 0.  1.
         12    1    3    3    0    0 -0.63021178318E+01 -0.10719252004E+01  0.19858845045E+02  0.20862392943E+02  0.00000000000E+00 0. -1.
</event>
<event>
 7    1  0.2942034E-011  0.5052889E+02  0.7816164E-02  0.1300439E+00
        -11   -1    0    0    0    0  0.00000000000E+00  0.00000000000E+00  0.45593999997E+02  0.45594000000E+02  0.51100000000E-03 0. -1.
         11   -1    0    0    0    0 -0.00000000000E+00 -0.00000000000E+00 -0.45593999997E+02  0.45594000000E+02  0.51100000000E-03 0.  1.
    9900012    2    1    2    0    0  0.24497236090E+02  0.12205949364E+02 -0.30067648762E+02  0.50528889361E+02  0.30000089700E+02 0.  0.
         12    1    1    2    0    0 -0.24497236090E+02 -0.12205949364E+02  0.30067648762E+02  0.40659110639E+02  0.00000000000E+00 0. -1.
         11    1    3    3    0    0  0.17484290937E+02  0.13737361623E+02 -0.34942108824E+01  0.22508332765E+02  0.51100000000E-03 0. -1.
        -11    1    3    3    0    0  0.48357873473E+01 -0.32709260381E+01 -0.14532240381E+02  0.15661092145E+02  0.51100000000E-03 0.  1.
        -12    1    3    3    0    0  0.21771578056E+01  0.17395137788E+01 -0.12041197499E+02  0.12359464450E+02  0.00000000000E+00 0.  1.
</event>
<event>
 7    1  0.2942034E-011  0.5052886E+02  0.7816164E-02  0.1300439E+00
        -11   -1    0    0    0    0  0.00000000000E+00  0.00000000000E+00  0.45593999997E+02  0.45594000000E+02  0.51100000000E-03 0. -1.
         11   -1    0    0    0    0 -0.00000000000E+00 -0.00000000000E+00 -0.45593999997E+02  0.45594000000E+02  0.51100000000E-03 0.  1.
    9900012    2    1    2    0    0  0.51513973957E+01  0.26369434671E+02 -0.30516905967E+02  0.50528861669E+02  0.30000005530E+02 0.  0.
         12    1    1    2    0    0 -0.51513973957E+01 -0.26369434671E+02  0.30516905967E+02  0.40659138331E+02  0.00000000000E+00 0. -1.
         11    1    3    3    0    0  0.94591108962E+01  0.34480542376E+01 -0.14215669687E+02  0.17419791098E+02  0.51100000000E-03 0. -1.
        -11    1    3    3    0    0  0.24571164874E-01  0.24224510665E+02 -0.12870456552E+02  0.27431299146E+02  0.51100000000E-03 0.  1.
         12    1    3    3    0    0 -0.43322846654E+01 -0.13031302315E+01 -0.34307797279E+01  0.56777714258E+01  0.00000000000E+00 0. -1.
</event>
<event>
 7    1  0.2942034E-011  0.5052886E+02  0.7816164E-02  0.1300439E+00
        -11   -1    0    0    0    0  0.00000000000E+00  0.00000000000E+00  0.45593999997E+02  0.45594000000E+02  0.51100000000E-03 0. -1.
         11   -1    0    0    0    0 -0.00000000000E+00 -0.00000000000E+00 -0.45593999997E+02  0.45594000000E+02  0.51100000000E-03 0.  1.
    9900012    2    1    2    0    0 -0.11114691578E+02  0.37946089647E+02 -0.94722535441E+01  0.50528859877E+02  0.30000000081E+02 0.  0.
         12    1    1    2    0    0  0.11114691578E+02 -0.37946089647E+02  0.94722535441E+01  0.40659140123E+02  0.00000000000E+00 0. -1.
         11    1    3    3    0    0 -0.64447455483E+01  0.78784532968E+01  0.58844042674E+01  0.11757167404E+02  0.51100000000E-03 0. -1.
        -11    1    3    3    0    0 -0.80490687338E+01  0.27865914391E+02 -0.17823753532E+02  0.34043837659E+02  0.51100000000E-03 0.  1.
        -12    1    3    3    0    0  0.33791227042E+01  0.22017219592E+01  0.24670957209E+01  0.47278548129E+01  0.00000000000E+00 0.  1.
</event>
<event>
 7    1  0.2942034E-011  0.5052886E+02  0.7816164E-02  0.1300439E+00
        -11   -1    0    0    0    0  0.00000000000E+00  0.00000000000E+00  0.45593999997E+02  0.45594000000E+02  0.51100000000E-03 0.  1.
         11   -1    0    0    0    0 -0.00000000000E+00 -0.00000000000E+00 -0.45593999997E+02  0.45594000000E+02  0.51100000000E-03 0. -1.
    9900012    2    1    2    0    0  0.23062288992E+02  0.33068468339E+02  0.52699899444E+01  0.50528861226E+02  0.30000004181E+02 0.  0.
         12    1    1    2    0    0 -0.23062288992E+02 -0.33068468339E+02 -0.52699899444E+01  0.40659138774E+02  0.00000000000E+00 0. -1.
         11    1    3    3    0    0 -0.26460882011E+01  0.16025783404E+02  0.37852186396E+01  0.16677991393E+02  0.51100000000E-03 0. -1.
        -11    1    3    3    0    0  0.19847039661E+02  0.53937413245E+01 -0.93358501935E+00  0.20588079319E+02  0.51100000000E-03 0.  1.
         12    1    3    3    0    0  0.58613375314E+01  0.11648943611E+02  0.24183563242E+01  0.13262790514E+02  0.00000000000E+00 0. -1.
</event>
<event>
 7    1  0.2942034E-011  0.5052887E+02  0.7816164E-02  0.1300439E+00
        -11   -1    0    0    0    0  0.00000000000E+00  0.00000000000E+00  0.45593999997E+02  0.45594000000E+02  0.51100000000E-03 0. -1.
         11   -1    0    0    0    0 -0.00000000000E+00 -0.00000000000E+00 -0.45593999997E+02  0.45594000000E+02  0.51100000000E-03 0.  1.
    9900012    2    1    2    0    0  0.23190619353E+02 -0.33389720084E+02  0.69772031467E+00  0.50528867607E+02  0.30000023579E+02 0.  0.
         12    1    1    2    0    0 -0.23190619353E+02  0.33389720084E+02 -0.69772031467E+00  0.40659132393E+02  0.00000000000E+00 0. -1.
         11    1    3    3    0    0  0.16392490275E+02 -0.16688839306E+02  0.13559714356E+02  0.27038804494E+02  0.51100000000E-03 0. -1.
        -11    1    3    3    0    0  0.54226763985E+01 -0.10735652025E+02 -0.39138396153E+01  0.12648232466E+02  0.51100000000E-03 0.  1.
         12    1    3    3    0    0  0.13754526793E+01 -0.59652287535E+01 -0.89481544257E+01  0.10841830647E+02  0.00000000000E+00 0. -1.
</event>
<event>
 7    1  0.2942034E-011  0.5052886E+02  0.7816164E-02  0.1300439E+00
        -11   -1    0    0    0    0  0.00000000000E+00  0.00000000000E+00  0.45593999997E+02  0.45594000000E+02  0.51100000000E-03 0. -1.
         11   -1    0    0    0    0 -0.00000000000E+00 -0.00000000000E+00 -0.45593999997E+02  0.45594000000E+02  0.51100000000E-03 0.  1.
    9900012    2    1    2    0    0 -0.30646992469E+02  0.23401190336E+02 -0.12896204489E+02  0.50528856542E+02  0.29999989946E+02 0.  0.
         12    1    1    2    0    0  0.30646992469E+02 -0.23401190336E+02  0.12896204489E+02  0.40659143458E+02  0.00000000000E+00 0. -1.
         11    1    3    3    0    0  0.76680419233E-01 -0.46465586779E+01 -0.52010312721E+01  0.69747483101E+01  0.51100000000E-03 0. -1.
        -11    1    3    3    0    0 -0.30500928708E+02  0.28870066005E+02 -0.77231838495E+01  0.42701697065E+02  0.51100000000E-03 0.  1.
        -12    1    3    3    0    0 -0.22274417977E+00 -0.82231699078E+00  0.28010633032E-01  0.85241116752E+00  0.00000000000E+00 0.  1.
</event>
<event>
 7    1  0.2942034E-011  0.5052887E+02  0.7816164E-02  0.1300439E+00
        -11   -1    0    0    0    0  0.00000000000E+00  0.00000000000E+00  0.45593999997E+02  0.45594000000E+02  0.51100000000E-03 0.  1.
         11   -1    0    0    0    0 -0.00000000000E+00 -0.00000000000E+00 -0.45593999997E+02  0.45594000000E+02  0.51100000000E-03 0. -1.
    9900012    2    1    2    0    0 -0.89871694992E+00 -0.36655693889E+02  0.17570361171E+02  0.50528865991E+02  0.30000018667E+02 0.  0.
         12    1    1    2    0    0  0.89871694992E+00  0.36655693889E+02 -0.17570361171E+02  0.40659134009E+02  0.00000000000E+00 0. -1.
         11    1    3    3    0    0 -0.12640070202E+02 -0.92407254943E+01  0.22246760224E+01  0.15814915935E+02  0.51100000000E-03 0. -1.
        -11    1    3    3    0    0  0.12225138084E+02 -0.21376009685E+02  0.98087457443E+01  0.26506589455E+02  0.51100000000E-03 0.  1.
         12    1    3    3    0    0 -0.48378483166E+00 -0.60389587098E+01  0.55369394043E+01  0.82073606007E+01  0.00000000000E+00 0. -1.
</event>
<event>
 7    1  0.2942034E-011  0.5052886E+02  0.7816164E-02  0.1300439E+00
        -11   -1    0    0    0    0  0.00000000000E+00  0.00000000000E+00  0.45593999997E+02  0.45594000000E+02  0.51100000000E-03 0. -1.
         11   -1    0    0    0    0 -0.00000000000E+00 -0.00000000000E+00 -0.45593999997E+02  0.45594000000E+02  0.51100000000E-03 0.  1.
    9900012    2    1    2    0    0  0.99759436653E+01 -0.37212504949E+02 -0.12995229868E+02  0.50528856183E+02  0.29999988854E+02 0.  0.
         12    1    1    2    0    0 -0.99759436653E+01  0.37212504949E+02  0.12995229868E+02  0.40659143817E+02  0.00000000000E+00 0. -1.
         11    1    3    3    0    0  0.53077235735E+01 -0.20491671708E+02  0.24736466219E+01  0.21311955959E+02  0.51100000000E-03 0. -1.
        -11    1    3    3    0    0  0.71911834881E+01 -0.27463276290E+00 -0.86063769798E+01  0.11218657143E+02  0.51100000000E-03 0.  1.
        -12    1    3    3    0    0 -0.25229633963E+01 -0.16446200478E+02 -0.68624995101E+01  0.17998243081E+02  0.00000000000E+00 0.  1.
</event>
<event>
 7    1  0.2942034E-011  0.5052886E+02  0.7816164E-02  0.1300439E+00
        -11   -1    0    0    0    0  0.00000000000E+00  0.00000000000E+00  0.45593999997E+02  0.45594000000E+02  0.51100000000E-03 0.  1.
         11   -1    0    0    0    0 -0.00000000000E+00 -0.00000000000E+00 -0.45593999997E+02  0.45594000000E+02  0.51100000000E-03 0. -1.
    9900012    2    1    2    0    0  0.25915368170E+02 -0.27065109564E+02  0.15780981146E+02  0.50528857989E+02  0.29999994344E+02 0.  0.
         12    1    1    2    0    0 -0.25915368170E+02  0.27065109564E+02 -0.15780981146E+02  0.40659142011E+02  0.00000000000E+00 0. -1.
         11    1    3    3    0    0 -0.44292839765E+01 -0.13945983272E+02  0.33085733676E+01  0.15001855351E+02  0.51100000000E-03 0. -1.
        -11    1    3    3    0    0  0.14009460211E+02 -0.66603571945E+01  0.77351051175E+01  0.17333700840E+02  0.51100000000E-03 0.  1.
        -12    1    3    3    0    0  0.16335191935E+02 -0.64587690973E+01  0.47373026608E+01  0.18193301798E+02  0.00000000000E+00 0.  1.
</event>
<event>
 7    1  0.2942034E-011  0.5052886E+02  0.7816164E-02  0.1300439E+00
        -11   -1    0    0    0    0  0.00000000000E+00  0.00000000000E+00  0.45593999997E+02  0.45594000000E+02  0.51100000000E-03 0. -1.
         11   -1    0    0    0    0 -0.00000000000E+00 -0.00000000000E+00 -0.45593999997E+02  0.45594000000E+02  0.51100000000E-03 0.  1.
    9900012    2    1    2    0    0 -0.17588976512E+02 -0.17857175211E+02 -0.32014289094E+02  0.50528861944E+02  0.30000006366E+02 0.  0.
         12    1    1    2    0    0  0.17588976512E+02  0.17857175211E+02  0.32014289094E+02  0.40659138056E+02  0.00000000000E+00 0. -1.
         11    1    3    3    0    0  0.14183542131E+01  0.18149987904E+01 -0.91762000800E+01  0.94608983427E+01  0.51100000000E-03 0. -1.
        -11    1    3    3    0    0 -0.18081066873E+02 -0.41202165046E+01 -0.12853582432E+02  0.22563593351E+02  0.51100000000E-03 0.  1.
        -12    1    3    3    0    0 -0.92626385256E+00 -0.15551957497E+02 -0.99845065818E+01  0.18504370251E+02  0.00000000000E+00 0.  1.
</event>
<event>
 7    1  0.2942034E-011  0.5052892E+02  0.7816164E-02  0.1300439E+00
        -11   -1    0    0    0    0  0.00000000000E+00  0.00000000000E+00  0.45593999997E+02  0.45594000000E+02  0.51100000000E-03 0.  1.
         11   -1    0    0    0    0 -0.00000000000E+00 -0.00000000000E+00 -0.45593999997E+02  0.45594000000E+02  0.51100000000E-03 0. -1.
    9900012    2    1    2    0    0 -0.10190094424E+02  0.39073500381E+02 -0.47522563566E+01  0.50528924791E+02  0.30000197393E+02 0.  0.
         12    1    1    2    0    0  0.10190094424E+02 -0.39073500381E+02  0.47522563566E+01  0.40659075209E+02  0.00000000000E+00 0. -1.
         11    1    3    3    0    0 -0.95541673735E+00 -0.39221889760E+01  0.20099586019E+01  0.45095810613E+01  0.51100000000E-03 0. -1.
        -11    1    3    3    0    0 -0.22313577711E+01  0.29294918741E+02 -0.43690681037E+00  0.29383024169E+02  0.51100000000E-03 0.  1.
         12    1    3    3    0    0 -0.70033199157E+01  0.13700770617E+02 -0.63253081482E+01  0.16636319560E+02  0.00000000000E+00 0. -1.
</event>
<event>
 7    1  0.2942034E-011  0.5052888E+02  0.7816164E-02  0.1300439E+00
        -11   -1    0    0    0    0  0.00000000000E+00  0.00000000000E+00  0.45593999997E+02  0.45594000000E+02  0.51100000000E-03 0. -1.
         11   -1    0    0    0    0 -0.00000000000E+00 -0.00000000000E+00 -0.45593999997E+02  0.45594000000E+02  0.51100000000E-03 0.  1.
    9900012    2    1    2    0    0 -0.82881790705E+01  0.22687295448E+02 -0.32707130816E+02  0.50528884254E+02  0.30000074178E+02 0.  0.
         12    1    1    2    0    0  0.82881790705E+01 -0.22687295448E+02  0.32707130816E+02  0.40659115746E+02  0.00000000000E+00 0. -1.
         11    1    3    3    0    0  0.39364224890E+01 -0.23656214441E+01 -0.67427784977E+01  0.81582258463E+01  0.51100000000E-03 0. -1.
        -11    1    3    3    0    0 -0.12883168427E+02  0.25459674372E+02 -0.28131547092E+02  0.40069377209E+02  0.51100000000E-03 0.  1.
        -12    1    3    3    0    0  0.65856686728E+00 -0.40675748013E+00  0.21671947739E+01  0.23012811985E+01  0.00000000000E+00 0.  1.
</event>
<event>
 7    1  0.2942034E-011  0.5052885E+02  0.7816164E-02  0.1300439E+00
        -11   -1    0    0    0    0  0.00000000000E+00  0.00000000000E+00  0.45593999997E+02  0.45594000000E+02  0.51100000000E-03 0.  1.
         11   -1    0    0    0    0 -0.00000000000E+00 -0.00000000000E+00 -0.45593999997E+02  0.45594000000E+02  0.51100000000E-03 0. -1.
    9900012    2    1    2    0    0  0.36050949211E+02  0.87090550020E+01  0.16662774720E+02  0.50528848024E+02  0.29999964053E+02 0.  0.
         12    1    1    2    0    0 -0.36050949211E+02 -0.87090550020E+01 -0.16662774720E+02  0.40659151976E+02  0.00000000000E+00 0. -1.
         11    1    3    3    0    0  0.42454763527E+01  0.11893605866E+02  0.10934733573E+02  0.16704799565E+02  0.51100000000E-03 0. -1.
        -11    1    3    3    0    0  0.27991776189E+02 -0.15962478567E+01  0.79374072901E+01  0.29139148515E+02  0.51100000000E-03 0.  1.
         12    1    3    3    0    0  0.38136966699E+01 -0.15883030070E+01 -0.22093661424E+01  0.46848999437E+01  0.00000000000E+00 0. -1.
</event>
<event>
 7    1  0.2942034E-011  0.5052895E+02  0.7816164E-02  0.1300438E+00
        -11   -1    0    0    0    0  0.00000000000E+00  0.00000000000E+00  0.45593999997E+02  0.45594000000E+02  0.51100000000E-03 0.  1.
         11   -1    0    0    0    0 -0.00000000000E+00 -0.00000000000E+00 -0.45593999997E+02  0.45594000000E+02  0.51100000000E-03 0. -1.
    9900012    2    1    2    0    0  0.45341115201E+01 -0.29455419818E+02  0.27658243457E+02  0.50528949900E+02  0.30000273714E+02 0.  0.
         12    1    1    2    0    0 -0.45341115201E+01  0.29455419818E+02 -0.27658243457E+02  0.40659050100E+02  0.00000000000E+00 0. -1.
         11    1    3    3    0    0  0.11733401550E+02 -0.20339618558E+01  0.65754681596E+01  0.13603179575E+02  0.51100000000E-03 0. -1.
        -11    1    3    3    0    0 -0.82954301111E+01 -0.26586627132E+02  0.21804003904E+02  0.35370573779E+02  0.51100000000E-03 0.  1.
        -12    1    3    3    0    0  0.10961400807E+01 -0.83483083010E+00 -0.72122860650E+00  0.15551965452E+01  0.00000000000E+00 0.  1.
</event>
<event>
 7    1  0.2942034E-011  0.5052886E+02  0.7816164E-02  0.1300439E+00
        -11   -1    0    0    0    0  0.00000000000E+00  0.00000000000E+00  0.45593999997E+02  0.45594000000E+02  0.51100000000E-03 0.  1.
         11   -1    0    0    0    0 -0.00000000000E+00 -0.00000000000E+00 -0.45593999997E+02  0.45594000000E+02  0.51100000000E-03 0. -1.
    9900012    2    1    2    0    0 -0.39170461443E+02 -0.44727969373E+01  0.99415492562E+01  0.50528863711E+02  0.30000011737E+02 0.  0.
         12    1    1    2    0    0  0.39170461443E+02  0.44727969373E+01 -0.99415492562E+01  0.40659136289E+02  0.00000000000E+00 0. -1.
         11    1    3    3    0    0 -0.68803454385E+01 -0.12249250990E+02  0.91866319059E+01  0.16786229750E+02  0.51100000000E-03 0. -1.
        -11    1    3    3    0    0 -0.93869499754E+01  0.49533624579E+01 -0.56217304045E+00  0.10628577904E+02  0.51100000000E-03 0.  1.
         12    1    3    3    0    0 -0.22903166029E+02  0.28230915952E+01  0.13170903908E+01  0.23114056057E+02  0.00000000000E+00 0. -1.
</event>
<event>
 7    1  0.2942034E-011  0.5052886E+02  0.7816164E-02  0.1300439E+00
        -11   -1    0    0    0    0  0.00000000000E+00  0.00000000000E+00  0.45593999997E+02  0.45594000000E+02  0.51100000000E-03 0.  1.
         11   -1    0    0    0    0 -0.00000000000E+00 -0.00000000000E+00 -0.45593999997E+02  0.45594000000E+02  0.51100000000E-03 0. -1.
    9900012    2    1    2    0    0  0.36350524835E+02 -0.60974495340E+01 -0.17164666351E+02  0.50528864279E+02  0.30000013463E+02 0.  0.
         12    1    1    2    0    0 -0.36350524835E+02  0.60974495340E+01  0.17164666351E+02  0.40659135721E+02  0.00000000000E+00 0. -1.
         11    1    3    3    0    0  0.38820673227E+01  0.48651275560E+01 -0.69418641817E+01  0.93235932672E+01  0.51100000000E-03 0. -1.
        -11    1    3    3    0    0  0.34556859267E+02 -0.68462615961E+01 -0.82264597361E+01  0.36176269298E+02  0.51100000000E-03 0.  1.
        -12    1    3    3    0    0 -0.20884017546E+01 -0.41163154939E+01 -0.19963424327E+01  0.50290017143E+01  0.00000000000E+00 0.  1.
</event>
<event>
 7    1  0.2942034E-011  0.5052885E+02  0.7816164E-02  0.1300439E+00
        -11   -1    0    0    0    0  0.00000000000E+00  0.00000000000E+00  0.45593999997E+02  0.45594000000E+02  0.51100000000E-03 0.  1.
         11   -1    0    0    0    0 -0.00000000000E+00 -0.00000000000E+00 -0.45593999997E+02  0.45594000000E+02  0.51100000000E-03 0. -1.
    9900012    2    1    2    0    0  0.31376322179E+02  0.23146709933E+02  0.11529199593E+02  0.50528853213E+02  0.29999979826E+02 0.  0.
         12    1    1    2    0    0 -0.31376322179E+02 -0.23146709933E+02 -0.11529199593E+02  0.40659146787E+02  0.00000000000E+00 0. -1.
         11    1    3    3    0    0  0.13690567781E+02 -0.30627772071E+00 -0.57758959113E+01  0.14862248351E+02  0.51100000000E-03 0. -1.
        -11    1    3    3    0    0  0.30922584900E+01  0.12367909331E+02  0.85988566346E+01  0.15377502381E+02  0.51100000000E-03 0.  1.
        -12    1    3    3    0    0  0.14593495907E+02  0.11085078322E+02  0.87062388694E+01  0.20289102481E+02  0.00000000000E+00 0.  1.
</event>
<event>
 7    1  0.2942034E-011  0.5052885E+02  0.7816164E-02  0.1300439E+00
        -11   -1    0    0    0    0  0.00000000000E+00  0.00000000000E+00  0.45593999997E+02  0.45594000000E+02  0.51100000000E-03 0. -1.
         11   -1    0    0    0    0 -0.00000000000E+00 -0.00000000000E+00 -0.45593999997E+02  0.45594000000E+02  0.51100000000E-03 0.  1.
    9900012    2    1    2    0    0  0.21758041974E+02  0.29798716363E+02 -0.17081874381E+02  0.50528851954E+02  0.29999976001E+02 0.  0.
         12    1    1    2    0    0 -0.21758041974E+02 -0.29798716363E+02  0.17081874381E+02  0.40659148046E+02  0.00000000000E+00 0. -1.
         11    1    3    3    0    0  0.11409071555E+02  0.25142485487E+01  0.47120887801E+01  0.12597306873E+02  0.51100000000E-03 0. -1.
        -11    1    3    3    0    0  0.25254248001E+01  0.18687183910E+02 -0.98889512792E+01  0.21292721070E+02  0.51100000000E-03 0.  1.
         12    1    3    3    0    0  0.78235456184E+01  0.85972839044E+01 -0.11905011882E+02  0.16638824011E+02  0.00000000000E+00 0. -1.
</event>
<event>
 7    1  0.2942034E-011  0.5052886E+02  0.7816164E-02  0.1300439E+00
        -11   -1    0    0    0    0  0.00000000000E+00  0.00000000000E+00  0.45593999997E+02  0.45594000000E+02  0.51100000000E-03 0. -1.
         11   -1    0    0    0    0 -0.00000000000E+00 -0.00000000000E+00 -0.45593999997E+02  0.45594000000E+02  0.51100000000E-03 0.  1.
    9900012    2    1    2    0    0 -0.17718995398E+02  0.17285482984E+02 -0.32255461395E+02  0.50528861916E+02  0.30000006280E+02 0.  0.
         12    1    1    2    0    0  0.17718995398E+02 -0.17285482984E+02  0.32255461395E+02  0.40659138084E+02  0.00000000000E+00 0. -1.
         11    1    3    3    0    0 -0.29967868686E+01  0.10373099348E+02  0.21022965698E+01  0.11000071488E+02  0.51100000000E-03 0. -1.
        -11    1    3    3    0    0 -0.83732356312E+01  0.69866094050E+01 -0.29744012218E+02  0.31680120722E+02  0.51100000000E-03 0.  1.
        -12    1    3    3    0    0 -0.63489728984E+01 -0.74225768515E-01 -0.46137457472E+01  0.78486697056E+01  0.00000000000E+00 0.  1.
</event>
<event>
 7    1  0.2942034E-011  0.5052887E+02  0.7816164E-02  0.1300439E+00
        -11   -1    0    0    0    0  0.00000000000E+00  0.00000000000E+00  0.45593999997E+02  0.45594000000E+02  0.51100000000E-03 0.  1.
         11   -1    0    0    0    0 -0.00000000000E+00 -0.00000000000E+00 -0.45593999997E+02  0.45594000000E+02  0.51100000000E-03 0. -1.
    9900012    2    1    2    0    0  0.36558819791E+01 -0.74732260352E+01  0.39798869906E+02  0.50528872781E+02  0.30000039305E+02 0.  0.
         12    1    1    2    0    0 -0.36558819791E+01  0.74732260352E+01 -0.39798869906E+02  0.40659127219E+02  0.00000000000E+00 0. -1.
         11    1    3    3    0    0  0.75814533382E+01  0.23354199346E+00  0.18496167576E+01  0.78073080504E+01  0.51100000000E-03 0. -1.
        -11    1    3    3    0    0 -0.10066344603E+02 -0.13403571941E+01  0.25518894840E+02  0.27465284364E+02  0.51100000000E-03 0.  1.
        -12    1    3    3    0    0  0.61407732441E+01 -0.63664108346E+01  0.12430358308E+02  0.15256280366E+02  0.00000000000E+00 0.  1.
</event>
<event>
 7    1  0.2942034E-011  0.5052886E+02  0.7816164E-02  0.1300439E+00
        -11   -1    0    0    0    0  0.00000000000E+00  0.00000000000E+00  0.45593999997E+02  0.45594000000E+02  0.51100000000E-03 0.  1.
         11   -1    0    0    0    0 -0.00000000000E+00 -0.00000000000E+00 -0.45593999997E+02  0.45594000000E+02  0.51100000000E-03 0. -1.
    9900012    2    1    2    0    0 -0.37131426958E+02 -0.62849830689E+01 -0.15327169899E+02  0.50528855675E+02  0.29999987311E+02 0.  0.
         12    1    1    2    0    0  0.37131426958E+02  0.62849830689E+01  0.15327169899E+02  0.40659144325E+02  0.00000000000E+00 0. -1.
         11    1    3    3    0    0 -0.26402752709E+02 -0.15071987232E+02 -0.59001339896E+01  0.30969044724E+02  0.51100000000E-03 0. -1.
        -11    1    3    3    0    0  0.15222176334E+01  0.36213184712E-01  0.40854347631E+00  0.15765043455E+01  0.51100000000E-03 0.  1.
         12    1    3    3    0    0 -0.12250891882E+02  0.87507909783E+01 -0.98355793854E+01  0.17983306606E+02  0.00000000000E+00 0. -1.
</event>
<event>
 7    1  0.2942034E-011  0.5052886E+02  0.7816164E-02  0.1300439E+00
        -11   -1    0    0    0    0  0.00000000000E+00  0.00000000000E+00  0.45593999997E+02  0.45594000000E+02  0.51100000000E-03 0.  1.
         11   -1    0    0    0    0 -0.00000000000E+00 -0.00000000000E+00 -0.45593999997E+02  0.45594000000E+02  0.51100000000E-03 0. -1.
    9900012    2    1    2    0    0  0.30814555908E+02 -0.25039799494E+02  0.87542716162E+01  0.50528859748E+02  0.29999999691E+02 0.  0.
         12    1    1    2    0    0 -0.30814555908E+02  0.25039799494E+02 -0.87542716162E+01  0.40659140252E+02  0.00000000000E+00 0. -1.
         11    1    3    3    0    0 -0.31924450645E+01 -0.12081377649E+01 -0.21062242118E+01  0.40109204730E+01  0.51100000000E-03 0. -1.
        -11    1    3    3    0    0  0.35880827206E+02 -0.23375191387E+02  0.11732405757E+02  0.44401381492E+02  0.51100000000E-03 0.  1.
        -12    1    3    3    0    0 -0.18738262334E+01 -0.45647034191E+00 -0.87190992850E+00  0.21165577832E+01  0.00000000000E+00 0.  1.
</event>
<event>
 7    1  0.2942034E-011  0.5052886E+02  0.7816164E-02  0.1300439E+00
        -11   -1    0    0    0    0  0.00000000000E+00  0.00000000000E+00  0.45593999997E+02  0.45594000000E+02  0.51100000000E-03 0.  1.
         11   -1    0    0    0    0 -0.00000000000E+00 -0.00000000000E+00 -0.45593999997E+02  0.45594000000E+02  0.51100000000E-03 0. -1.
    9900012    2    1    2    0    0 -0.25510367608E+02  0.19362407981E+02  0.25049634114E+02  0.50528857516E+02  0.29999992905E+02 0.  0.
         12    1    1    2    0    0  0.25510367608E+02 -0.19362407981E+02 -0.25049634114E+02  0.40659142484E+02  0.00000000000E+00 0. -1.
         11    1    3    3    0    0 -0.23971030612E+02  0.23735985211E+02  0.19804220745E+02  0.39117955751E+02  0.51100000000E-03 0.  1.
        -11    1    3    3    0    0  0.27984972743E+01 -0.35205171280E+01  0.53494969136E+01  0.69887584972E+01  0.51100000000E-03 0. -1.
        -12    1    3    3    0    0 -0.43378342701E+01 -0.85306010279E+00 -0.10408354422E+00  0.44221432675E+01  0.00000000000E+00 0.  1.
</event>
<event>
 7    1  0.2942034E-011  0.5052886E+02  0.7816164E-02  0.1300439E+00
        -11   -1    0    0    0    0  0.00000000000E+00  0.00000000000E+00  0.45593999997E+02  0.45594000000E+02  0.51100000000E-03 0.  1.
         11   -1    0    0    0    0 -0.00000000000E+00 -0.00000000000E+00 -0.45593999997E+02  0.45594000000E+02  0.51100000000E-03 0. -1.
    9900012    2    1    2    0    0 -0.32191545268E+02 -0.83636943289E+01  0.23386288377E+02  0.50528862606E+02  0.30000008376E+02 0.  0.
         12    1    1    2    0    0  0.32191545268E+02  0.83636943289E+01 -0.23386288377E+02  0.40659137394E+02  0.00000000000E+00 0. -1.
         11    1    3    3    0    0 -0.31964343440E+01  0.67180552778E+01 -0.18397354460E+01  0.76638166734E+01  0.51100000000E-03 0. -1.
        -11    1    3    3    0    0 -0.24146799430E+02 -0.16830872591E+02  0.20471822505E+02  0.35853057218E+02  0.51100000000E-03 0.  1.
         12    1    3    3    0    0 -0.48483114940E+01  0.17491229848E+01  0.47542013185E+01  0.70119887147E+01  0.00000000000E+00 0. -1.
</event>
<event>
 7    1  0.2942034E-011  0.5052886E+02  0.7816164E-02  0.1300439E+00
        -11   -1    0    0    0    0  0.00000000000E+00  0.00000000000E+00  0.45593999997E+02  0.45594000000E+02  0.51100000000E-03 0.  1.
         11   -1    0    0    0    0 -0.00000000000E+00 -0.00000000000E+00 -0.45593999997E+02  0.45594000000E+02  0.51100000000E-03 0. -1.
    9900012    2    1    2    0    0  0.78114789940E+01 -0.20526705076E+02  0.34216966184E+02  0.50528860804E+02  0.30000002899E+02 0.  0.
         12    1    1    2    0    0 -0.78114789940E+01  0.20526705076E+02 -0.34216966184E+02  0.40659139196E+02  0.00000000000E+00 0. -1.
         11    1    3    3    0    0  0.22566875791E+01  0.27271807617E+01  0.19071301559E+01  0.40208580464E+01  0.51100000000E-03 0. -1.
        -11    1    3    3    0    0  0.33572484148E+01 -0.16185837749E+02  0.36775824530E+01  0.16934493601E+02  0.51100000000E-03 0.  1.
        -12    1    3    3    0    0  0.21975430001E+01 -0.70680480883E+01  0.28632253575E+02  0.29573509156E+02  0.00000000000E+00 0.  1.
</event>
<event>
 7    1  0.2942034E-011  0.5052874E+02  0.7816164E-02  0.1300439E+00
        -11   -1    0    0    0    0  0.00000000000E+00  0.00000000000E+00  0.45593999997E+02  0.45594000000E+02  0.51100000000E-03 0.  1.
         11   -1    0    0    0    0 -0.00000000000E+00 -0.00000000000E+00 -0.45593999997E+02  0.45594000000E+02  0.51100000000E-03 0. -1.
    9900012    2    1    2    0    0 -0.25809491864E+02 -0.19713855128E+02  0.24462404623E+02  0.50528742823E+02  0.29999644282E+02 0.  0.
         12    1    1    2    0    0  0.25809491864E+02  0.19713855128E+02 -0.24462404623E+02  0.40659257177E+02  0.00000000000E+00 0. -1.
         11    1    3    3    0    0 -0.92119885307E+01  0.20400624849E+01  0.19643651011E+02  0.21792099782E+02  0.51100000000E-03 0.  1.
        -11    1    3    3    0    0 -0.12667462918E+02 -0.12026284209E+02  0.74783896698E+00  0.17483002947E+02  0.51100000000E-03 0. -1.
         12    1    3    3    0    0 -0.39300404143E+01 -0.97276334037E+01  0.40709146456E+01  0.11253640093E+02  0.00000000000E+00 0. -1.
</event>
<event>
 7    1  0.2942034E-011  0.5052884E+02  0.7816164E-02  0.1300439E+00
        -11   -1    0    0    0    0  0.00000000000E+00  0.00000000000E+00  0.45593999997E+02  0.45594000000E+02  0.51100000000E-03 0. -1.
         11   -1    0    0    0    0 -0.00000000000E+00 -0.00000000000E+00 -0.45593999997E+02  0.45594000000E+02  0.51100000000E-03 0.  1.
    9900012    2    1    2    0    0 -0.11107333687E+02  0.38997994680E+02 -0.29917438101E+01  0.50528843814E+02  0.29999951258E+02 0.  0.
         12    1    1    2    0    0  0.11107333687E+02 -0.38997994680E+02  0.29917438101E+01  0.40659156186E+02  0.00000000000E+00 0. -1.
         11    1    3    3    0    0 -0.28401773554E+01 -0.57153109461E+00  0.35383772319E-01  0.28973276437E+01  0.51100000000E-03 0. -1.
        -11    1    3    3    0    0 -0.38922402104E-01  0.37210996167E+02 -0.75217564281E+01  0.37963621675E+02  0.51100000000E-03 0.  1.
        -12    1    3    3    0    0 -0.82282339298E+01  0.23585296080E+01  0.44946288457E+01  0.96678944955E+01  0.00000000000E+00 0.  1.
</event>
<event>
 7    1  0.2942034E-011  0.5052886E+02  0.7816164E-02  0.1300439E+00
        -11   -1    0    0    0    0  0.00000000000E+00  0.00000000000E+00  0.45593999997E+02  0.45594000000E+02  0.51100000000E-03 0.  1.
         11   -1    0    0    0    0 -0.00000000000E+00 -0.00000000000E+00 -0.45593999997E+02  0.45594000000E+02  0.51100000000E-03 0. -1.
    9900012    2    1    2    0    0  0.14048913113E+02 -0.11077120543E+02  0.36511523271E+02  0.50528857230E+02  0.29999992037E+02 0.  0.
         12    1    1    2    0    0 -0.14048913113E+02  0.11077120543E+02 -0.36511523271E+02  0.40659142770E+02  0.00000000000E+00 0. -1.
         11    1    3    3    0    0  0.13626855368E+01  0.27744695687E+01  0.15294256666E+02  0.15603489369E+02  0.51100000000E-03 0. -1.
        -11    1    3    3    0    0  0.14441660509E+02 -0.16645464785E+02  0.11907960836E+02  0.25048604506E+02  0.51100000000E-03 0.  1.
        -12    1    3    3    0    0 -0.17554329334E+01  0.27938746731E+01  0.93093057691E+01  0.98767633552E+01  0.00000000000E+00 0.  1.
</event>
<event>
 7    1  0.2942034E-011  0.5052886E+02  0.7816164E-02  0.1300439E+00
        -11   -1    0    0    0    0  0.00000000000E+00  0.00000000000E+00  0.45593999997E+02  0.45594000000E+02  0.51100000000E-03 0.  1.
         11   -1    0    0    0    0 -0.00000000000E+00 -0.00000000000E+00 -0.45593999997E+02  0.45594000000E+02  0.51100000000E-03 0. -1.
    9900012    2    1    2    0    0  0.12199036080E+02  0.35695687706E+02 -0.15171257930E+02  0.50528859954E+02  0.30000000317E+02 0.  0.
         12    1    1    2    0    0 -0.12199036080E+02 -0.35695687706E+02  0.15171257930E+02  0.40659140046E+02  0.00000000000E+00 0. -1.
         11    1    3    3    0    0  0.17482209445E+02  0.20020764570E+02 -0.40029608170E+01  0.26879031913E+02  0.51100000000E-03 0. -1.
        -11    1    3    3    0    0 -0.43499703368E+01  0.16389833914E+02 -0.54494181965E+01  0.17811374360E+02  0.51100000000E-03 0.  1.
        -12    1    3    3    0    0 -0.93320302808E+00 -0.71491077804E+00 -0.57188789170E+01  0.58384536805E+01  0.00000000000E+00 0.  1.
</event>
<event>
 7    1  0.2942034E-011  0.5052886E+02  0.7816164E-02  0.1300439E+00
        -11   -1    0    0    0    0  0.00000000000E+00  0.00000000000E+00  0.45593999997E+02  0.45594000000E+02  0.51100000000E-03 0.  1.
         11   -1    0    0    0    0 -0.00000000000E+00 -0.00000000000E+00 -0.45593999997E+02  0.45594000000E+02  0.51100000000E-03 0. -1.
    9900012    2    1    2    0    0 -0.37650948883E+02 -0.83008400867E+01 -0.12909993077E+02  0.50528858111E+02  0.29999994713E+02 0.  0.
         12    1    1    2    0    0  0.37650948883E+02  0.83008400867E+01  0.12909993077E+02  0.40659141889E+02  0.00000000000E+00 0. -1.
         11    1    3    3    0    0 -0.30553002174E+02  0.12412742699E+01 -0.12533830685E+02  0.33047293619E+02  0.51100000000E-03 0.  1.
        -11    1    3    3    0    0 -0.98359534862E+01 -0.80779355959E+01  0.28082259085E+01  0.13034000057E+02  0.51100000000E-03 0. -1.
        -12    1    3    3    0    0  0.27380067769E+01 -0.14641787607E+01 -0.31843882998E+01  0.44475644343E+01  0.00000000000E+00 0.  1.
</event>
<event>
 7    1  0.2942034E-011  0.5052886E+02  0.7816164E-02  0.1300439E+00
        -11   -1    0    0    0    0  0.00000000000E+00  0.00000000000E+00  0.45593999997E+02  0.45594000000E+02  0.51100000000E-03 0. -1.
         11   -1    0    0    0    0 -0.00000000000E+00 -0.00000000000E+00 -0.45593999997E+02  0.45594000000E+02  0.51100000000E-03 0.  1.
    9900012    2    1    2    0    0 -0.18288997268E+02 -0.19846597271E+01 -0.36259335502E+02  0.50528859499E+02  0.29999998932E+02 0.  0.
         12    1    1    2    0    0  0.18288997268E+02  0.19846597271E+01  0.36259335502E+02  0.40659140501E+02  0.00000000000E+00 0. -1.
         11    1    3    3    0    0  0.62375539701E+01  0.43105418188E+01 -0.42773880143E+01  0.87053948093E+01  0.51100000000E-03 0. -1.
        -11    1    3    3    0    0  0.26152842694E+00 -0.17243125503E+01 -0.21590140840E+01  0.27754266276E+01  0.51100000000E-03 0.  1.
         12    1    3    3    0    0 -0.24788079665E+02 -0.45708889956E+01 -0.29822933404E+02  0.39048038062E+02  0.00000000000E+00 0. -1.
</event>
<event>
 7    1  0.2942034E-011  0.5052886E+02  0.7816164E-02  0.1300439E+00
        -11   -1    0    0    0    0  0.00000000000E+00  0.00000000000E+00  0.45593999997E+02  0.45594000000E+02  0.51100000000E-03 0.  1.
         11   -1    0    0    0    0 -0.00000000000E+00 -0.00000000000E+00 -0.45593999997E+02  0.45594000000E+02  0.51100000000E-03 0. -1.
    9900012    2    1    2    0    0  0.33019579767E+02 -0.23724852948E+02 -0.63816396605E-01  0.50528863660E+02  0.30000011580E+02 0.  0.
         12    1    1    2    0    0 -0.33019579767E+02  0.23724852948E+02  0.63816396605E-01  0.40659136340E+02  0.00000000000E+00 0. -1.
         11    1    3    3    0    0  0.86340600942E+01  0.20376702365E+01 -0.74077281406E+01  0.11557401532E+02  0.51100000000E-03 0. -1.
        -11    1    3    3    0    0  0.12109081870E+02 -0.70845149961E+01  0.88201212512E+01  0.16571504325E+02  0.51100000000E-03 0.  1.
         12    1    3    3    0    0  0.12276437803E+02 -0.18678008189E+02 -0.14762095072E+01  0.22399957802E+02  0.00000000000E+00 0. -1.
</event>
<event>
 7    1  0.2942034E-011  0.5052886E+02  0.7816164E-02  0.1300439E+00
        -11   -1    0    0    0    0  0.00000000000E+00  0.00000000000E+00  0.45593999997E+02  0.45594000000E+02  0.51100000000E-03 0.  1.
         11   -1    0    0    0    0 -0.00000000000E+00 -0.00000000000E+00 -0.45593999997E+02  0.45594000000E+02  0.51100000000E-03 0. -1.
    9900012    2    1    2    0    0  0.64542738930E-01  0.16727275860E+02  0.37058868364E+02  0.50528860217E+02  0.30000001117E+02 0.  0.
         12    1    1    2    0    0 -0.64542738930E-01 -0.16727275860E+02 -0.37058868364E+02  0.40659139783E+02  0.00000000000E+00 0. -1.
         11    1    3    3    0    0  0.69531105464E+00  0.24359431247E+02  0.27222686450E+02  0.36536830814E+02  0.51100000000E-03 0. -1.
        -11    1    3    3    0    0  0.68514395564E+00 -0.30916246657E+01  0.85131341339E+01  0.90830071208E+01  0.51100000000E-03 0.  1.
         12    1    3    3    0    0 -0.13159122713E+01 -0.45405307216E+01  0.13230477798E+01  0.49090222822E+01  0.00000000000E+00 0. -1.
</event>
<event>
 7    1  0.2942034E-011  0.5052886E+02  0.7816164E-02  0.1300439E+00
        -11   -1    0    0    0    0  0.00000000000E+00  0.00000000000E+00  0.45593999997E+02  0.45594000000E+02  0.51100000000E-03 0.  1.
         11   -1    0    0    0    0 -0.00000000000E+00 -0.00000000000E+00 -0.45593999997E+02  0.45594000000E+02  0.51100000000E-03 0. -1.
    9900012    2    1    2    0    0  0.59648449350E+01  0.10311003476E+02  0.38875050823E+02  0.50528859032E+02  0.29999997512E+02 0.  0.
         12    1    1    2    0    0 -0.59648449350E+01 -0.10311003476E+02 -0.38875050823E+02  0.40659140968E+02  0.00000000000E+00 0. -1.
         11    1    3    3    0    0 -0.28100582246E+01  0.15066261066E+02  0.24920138097E+02  0.29255801694E+02  0.51100000000E-03 0. -1.
        -11    1    3    3    0    0  0.90267919482E+01 -0.54901547724E+01  0.15950121673E+02  0.19131940674E+02  0.51100000000E-03 0.  1.
         12    1    3    3    0    0 -0.25188878857E+00  0.73489718243E+00 -0.19952089461E+01  0.21411166641E+01  0.00000000000E+00 0. -1.
</event>
<event>
 7    1  0.2942034E-011  0.5052885E+02  0.7816164E-02  0.1300439E+00
        -11   -1    0    0    0    0  0.00000000000E+00  0.00000000000E+00  0.45593999997E+02  0.45594000000E+02  0.51100000000E-03 0.  1.
         11   -1    0    0    0    0 -0.00000000000E+00 -0.00000000000E+00 -0.45593999997E+02  0.45594000000E+02  0.51100000000E-03 0. -1.
    9900012    2    1    2    0    0 -0.79384897381E+01 -0.47818586962E+01  0.39588900210E+02  0.50528845905E+02  0.29999957612E+02 0.  0.
         12    1    1    2    0    0  0.79384897381E+01  0.47818586962E+01 -0.39588900210E+02  0.40659154095E+02  0.00000000000E+00 0. -1.
         11    1    3    3    0    0 -0.18401312912E+00  0.23551335249E+01 -0.28207736243E+01  0.36793041261E+01  0.51100000000E-03 0. -1.
        -11    1    3    3    0    0  0.33607140780E+01 -0.41965745499E+00  0.24464437456E+02  0.24697757222E+02  0.51100000000E-03 0.  1.
        -12    1    3    3    0    0 -0.11115190687E+02 -0.67173347661E+01  0.17945236378E+02  0.22151784557E+02  0.00000000000E+00 0.  1.
</event>
<event>
 7    1  0.2942034E-011  0.5052886E+02  0.7816164E-02  0.1300439E+00
        -11   -1    0    0    0    0  0.00000000000E+00  0.00000000000E+00  0.45593999997E+02  0.45594000000E+02  0.51100000000E-03 0.  1.
         11   -1    0    0    0    0 -0.00000000000E+00 -0.00000000000E+00 -0.45593999997E+02  0.45594000000E+02  0.51100000000E-03 0. -1.
    9900012    2    1    2    0    0 -0.20615745113E+02 -0.96993039849E+01  0.33676103758E+02  0.50528863159E+02  0.30000010058E+02 0.  0.
         12    1    1    2    0    0  0.20615745113E+02  0.96993039849E+01 -0.33676103758E+02  0.40659136841E+02  0.00000000000E+00 0. -1.
         11    1    3    3    0    0 -0.49594519644E+01 -0.11069878184E+00  0.38142436986E+01  0.62575453063E+01  0.51100000000E-03 0. -1.
        -11    1    3    3    0    0  0.47465245512E+01 -0.10377947147E+02  0.15755535649E+02  0.19454258817E+02  0.51100000000E-03 0.  1.
        -12    1    3    3    0    0 -0.20402817700E+02  0.78934194374E+00  0.14106324410E+02  0.24817059035E+02  0.00000000000E+00 0.  1.
</event>
<event>
 7    1  0.2942034E-011  0.5052876E+02  0.7816164E-02  0.1300439E+00
        -11   -1    0    0    0    0  0.00000000000E+00  0.00000000000E+00  0.45593999997E+02  0.45594000000E+02  0.51100000000E-03 0.  1.
         11   -1    0    0    0    0 -0.00000000000E+00 -0.00000000000E+00 -0.45593999997E+02  0.45594000000E+02  0.51100000000E-03 0. -1.
    9900012    2    1    2    0    0  0.14889392264E+02  0.47221784876E+01  0.37539060981E+02  0.50528756635E+02  0.29999686267E+02 0.  0.
         12    1    1    2    0    0 -0.14889392264E+02 -0.47221784876E+01 -0.37539060981E+02  0.40659243365E+02  0.00000000000E+00 0. -1.
         11    1    3    3    0    0 -0.86000251242E+00 -0.73465563900E+01 -0.27323457966E+00  0.74017668505E+01  0.51100000000E-03 0. -1.
        -11    1    3    3    0    0  0.10084643112E+02  0.40152984135E+01  0.18491865581E+02  0.21442288614E+02  0.51100000000E-03 0.  1.
         12    1    3    3    0    0  0.56647516646E+01  0.80534364641E+01  0.19320429979E+02  0.21684701171E+02  0.00000000000E+00 0. -1.
</event>
<event>
 7    1  0.2942034E-011  0.5052888E+02  0.7816164E-02  0.1300439E+00
        -11   -1    0    0    0    0  0.00000000000E+00  0.00000000000E+00  0.45593999997E+02  0.45594000000E+02  0.51100000000E-03 0.  1.
         11   -1    0    0    0    0 -0.00000000000E+00 -0.00000000000E+00 -0.45593999997E+02  0.45594000000E+02  0.51100000000E-03 0. -1.
    9900012    2    1    2    0    0  0.81278774770E+01  0.29332405203E+02  0.26957590617E+02  0.50528879508E+02  0.30000059753E+02 0.  0.
         12    1    1    2    0    0 -0.81278774770E+01 -0.29332405203E+02 -0.26957590617E+02  0.40659120492E+02  0.00000000000E+00 0. -1.
         11    1    3    3    0    0 -0.19046276494E+01  0.10835537030E+02  0.10020704623E+02  0.14881229473E+02  0.51100000000E-03 0. -1.
        -11    1    3    3    0    0 -0.16913324952E+01 -0.24349820162E+01 -0.31731342862E+01  0.43426402669E+01  0.51100000000E-03 0.  1.
        -12    1    3    3    0    0  0.11723837622E+02  0.20931850189E+02  0.20110020280E+02  0.31305009769E+02  0.00000000000E+00 0.  1.
</event>
<event>
 7    1  0.2942034E-011  0.5052886E+02  0.7816164E-02  0.1300439E+00
        -11   -1    0    0    0    0  0.00000000000E+00  0.00000000000E+00  0.45593999997E+02  0.45594000000E+02  0.51100000000E-03 0. -1.
         11   -1    0    0    0    0 -0.00000000000E+00 -0.00000000000E+00 -0.45593999997E+02  0.45594000000E+02  0.51100000000E-03 0.  1.
    9900012    2    1    2    0    0  0.86987569106E+01  0.15601126491E+02 -0.36525363795E+02  0.50528859331E+02  0.29999998424E+02 0.  0.
         12    1    1    2    0    0 -0.86987569106E+01 -0.15601126491E+02  0.36525363795E+02  0.40659140669E+02  0.00000000000E+00 0. -1.
         11    1    3    3    0    0 -0.50399973054E+01 -0.63476454630E+00 -0.22803705896E+00  0.50849287143E+01  0.51100000000E-03 0. -1.
        -11    1    3    3    0    0  0.12047785612E+01  0.38668509190E+01 -0.23062497848E+02  0.23415440091E+02  0.51100000000E-03 0.  1.
         12    1    3    3    0    0  0.12533975655E+02  0.12369040118E+02 -0.13234828888E+02  0.22028490526E+02  0.00000000000E+00 0. -1.
</event>
<event>
 7    1  0.2942034E-011  0.5052883E+02  0.7816164E-02  0.1300439E+00
        -11   -1    0    0    0    0  0.00000000000E+00  0.00000000000E+00  0.45593999997E+02  0.45594000000E+02  0.51100000000E-03 0. -1.
         11   -1    0    0    0    0 -0.00000000000E+00 -0.00000000000E+00 -0.45593999997E+02  0.45594000000E+02  0.51100000000E-03 0.  1.
    9900012    2    1    2    0    0  0.12313365556E+02 -0.26049695119E+02 -0.28687316285E+02  0.50528834948E+02  0.29999924308E+02 0.  0.
         12    1    1    2    0    0 -0.12313365556E+02  0.26049695119E+02  0.28687316285E+02  0.40659165052E+02  0.00000000000E+00 0. -1.
         11    1    3    3    0    0  0.96993795256E+01  0.25103826133E+01 -0.13438264361E+02  0.16762068289E+02  0.51100000000E-03 0. -1.
        -11    1    3    3    0    0  0.56762740569E+01 -0.16860414939E+02 -0.69515744340E+01  0.19100211163E+02  0.51100000000E-03 0.  1.
         12    1    3    3    0    0 -0.30622880261E+01 -0.11699662793E+02 -0.82974774900E+01  0.14666555496E+02  0.00000000000E+00 0. -1.
</event>
<event>
 7    1  0.2942034E-011  0.5052886E+02  0.7816164E-02  0.1300439E+00
        -11   -1    0    0    0    0  0.00000000000E+00  0.00000000000E+00  0.45593999997E+02  0.45594000000E+02  0.51100000000E-03 0.  1.
         11   -1    0    0    0    0 -0.00000000000E+00 -0.00000000000E+00 -0.45593999997E+02  0.45594000000E+02  0.51100000000E-03 0. -1.
    9900012    2    1    2    0    0  0.20580643338E+02 -0.76278461604E+01  0.34225995809E+02  0.50528859498E+02  0.29999998930E+02 0.  0.
         12    1    1    2    0    0 -0.20580643338E+02  0.76278461604E+01 -0.34225995809E+02  0.40659140502E+02  0.00000000000E+00 0. -1.
         11    1    3    3    0    0 -0.13364566056E+01  0.84755056144E+01  0.13755652882E+02  0.16212288492E+02  0.51100000000E-03 0. -1.
        -11    1    3    3    0    0  0.10123021039E+02 -0.98556124012E+01  0.93243928060E+01  0.16927875006E+02  0.51100000000E-03 0.  1.
         12    1    3    3    0    0  0.11794078904E+02 -0.62477393736E+01  0.11145950121E+02  0.17388696000E+02  0.00000000000E+00 0. -1.
</event>
<event>
 7    1  0.2942034E-011  0.5052884E+02  0.7816164E-02  0.1300439E+00
        -11   -1    0    0    0    0  0.00000000000E+00  0.00000000000E+00  0.45593999997E+02  0.45594000000E+02  0.51100000000E-03 0.  1.
         11   -1    0    0    0    0 -0.00000000000E+00 -0.00000000000E+00 -0.45593999997E+02  0.45594000000E+02  0.51100000000E-03 0. -1.
    9900012    2    1    2    0    0 -0.42120994605E+01  0.22168467073E+02  0.33822841612E+02  0.50528839545E+02  0.29999938280E+02 0.  0.
         12    1    1    2    0    0  0.42120994605E+01 -0.22168467073E+02 -0.33822841612E+02  0.40659160455E+02  0.00000000000E+00 0. -1.
         11    1    3    3    0    0 -0.74093589238E+00 -0.28312694281E+01 -0.11893187016E+01  0.31590428624E+01  0.51100000000E-03 0. -1.
        -11    1    3    3    0    0 -0.91128448387E+01  0.23733578522E+02  0.24151772660E+02  0.35066149110E+02  0.51100000000E-03 0.  1.
         12    1    3    3    0    0  0.56416812706E+01  0.12661579785E+01  0.10860387654E+02  0.12303647573E+02  0.00000000000E+00 0. -1.
</event>
<event>
 7    1  0.2942034E-011  0.5052888E+02  0.7816164E-02  0.1300439E+00
        -11   -1    0    0    0    0  0.00000000000E+00  0.00000000000E+00  0.45593999997E+02  0.45594000000E+02  0.51100000000E-03 0.  1.
         11   -1    0    0    0    0 -0.00000000000E+00 -0.00000000000E+00 -0.45593999997E+02  0.45594000000E+02  0.51100000000E-03 0. -1.
    9900012    2    1    2    0    0  0.37900778822E+02 -0.13782731341E+02  0.51702675718E+01  0.50528875743E+02  0.30000048309E+02 0.  0.
         12    1    1    2    0    0 -0.37900778822E+02  0.13782731341E+02 -0.51702675718E+01  0.40659124257E+02  0.00000000000E+00 0. -1.
         11    1    3    3    0    0 -0.17606621876E+00 -0.96711302587E+01 -0.48436223055E+01  0.10817690932E+02  0.51100000000E-03 0. -1.
        -11    1    3    3    0    0  0.13957690821E+02 -0.29561514589E+01  0.42332014220E+01  0.14882068372E+02  0.51100000000E-03 0.  1.
         12    1    3    3    0    0  0.24119154220E+02 -0.11554496237E+01  0.57806884554E+01  0.24829116439E+02  0.00000000000E+00 0. -1.
</event>
<event>
 7    1  0.2942034E-011  0.5052886E+02  0.7816164E-02  0.1300439E+00
        -11   -1    0    0    0    0  0.00000000000E+00  0.00000000000E+00  0.45593999997E+02  0.45594000000E+02  0.51100000000E-03 0. -1.
         11   -1    0    0    0    0 -0.00000000000E+00 -0.00000000000E+00 -0.45593999997E+02  0.45594000000E+02  0.51100000000E-03 0.  1.
    9900012    2    1    2    0    0  0.31912683328E+02  0.23260997466E+02  0.96784270202E+01  0.50528864373E+02  0.30000013748E+02 0.  0.
         12    1    1    2    0    0 -0.31912683328E+02 -0.23260997466E+02 -0.96784270202E+01  0.40659135627E+02  0.00000000000E+00 0. -1.
         11    1    3    3    0    0  0.26488874475E+02  0.68613955248E+01 -0.32506743632E+01  0.27555509495E+02  0.51100000000E-03 0. -1.
        -11    1    3    3    0    0  0.64913137854E+01  0.72552846127E+01  0.58274666878E+01  0.11346174586E+02  0.51100000000E-03 0.  1.
         12    1    3    3    0    0 -0.10675049317E+01  0.91443173288E+01  0.71016346955E+01  0.11627180292E+02  0.00000000000E+00 0. -1.
</event>
<event>
 7    1  0.2942034E-011  0.5052886E+02  0.7816164E-02  0.1300439E+00
        -11   -1    0    0    0    0  0.00000000000E+00  0.00000000000E+00  0.45593999997E+02  0.45594000000E+02  0.51100000000E-03 0. -1.
         11   -1    0    0    0    0 -0.00000000000E+00 -0.00000000000E+00 -0.45593999997E+02  0.45594000000E+02  0.51100000000E-03 0.  1.
    9900012    2    1    2    0    0  0.43101720724E+01 -0.22238086719E+02 -0.33764709246E+02  0.50528859887E+02  0.30000000114E+02 0.  0.
         12    1    1    2    0    0 -0.43101720724E+01  0.22238086719E+02  0.33764709246E+02  0.40659140113E+02  0.00000000000E+00 0. -1.
         11    1    3    3    0    0 -0.72646034210E+01 -0.83775833340E+01 -0.14926444132E+02  0.18594544901E+02  0.51100000000E-03 0. -1.
        -11    1    3    3    0    0  0.92032678234E+01 -0.18383649498E+02 -0.16269984737E+02  0.26217763274E+02  0.51100000000E-03 0.  1.
        -12    1    3    3    0    0  0.23715076701E+01  0.45231461127E+01 -0.25682803768E+01  0.57165517124E+01  0.00000000000E+00 0.  1.
</event>
<event>
 7    1  0.2942034E-011  0.5052887E+02  0.7816164E-02  0.1300439E+00
        -11   -1    0    0    0    0  0.00000000000E+00  0.00000000000E+00  0.45593999997E+02  0.45594000000E+02  0.51100000000E-03 0.  1.
         11   -1    0    0    0    0 -0.00000000000E+00 -0.00000000000E+00 -0.45593999997E+02  0.45594000000E+02  0.51100000000E-03 0. -1.
    9900012    2    1    2    0    0 -0.21689912123E+02  0.39110280240E+01  0.34167481467E+02  0.50528865505E+02  0.30000017189E+02 0.  0.
         12    1    1    2    0    0  0.21689912123E+02 -0.39110280240E+01 -0.34167481467E+02  0.40659134495E+02  0.00000000000E+00 0. -1.
         11    1    3    3    0    0 -0.10200003590E+02 -0.52851766886E+01  0.19442720877E+02  0.22583014883E+02  0.51100000000E-03 0. -1.
        -11    1    3    3    0    0 -0.13448475106E+02  0.18869942526E+01  0.28673476809E+01  0.13879622220E+02  0.51100000000E-03 0.  1.
        -12    1    3    3    0    0  0.19585665727E+01  0.73092104600E+01  0.11857412909E+02  0.14066228402E+02  0.00000000000E+00 0.  1.
</event>
<event>
 7    1  0.2942034E-011  0.5052886E+02  0.7816164E-02  0.1300439E+00
        -11   -1    0    0    0    0  0.00000000000E+00  0.00000000000E+00  0.45593999997E+02  0.45594000000E+02  0.51100000000E-03 0. -1.
         11   -1    0    0    0    0 -0.00000000000E+00 -0.00000000000E+00 -0.45593999997E+02  0.45594000000E+02  0.51100000000E-03 0.  1.
    9900012    2    1    2    0    0  0.30093320697E+02  0.25167161028E+02 -0.10685134578E+02  0.50528855324E+02  0.29999986244E+02 0.  0.
         12    1    1    2    0    0 -0.30093320697E+02 -0.25167161028E+02  0.10685134578E+02  0.40659144676E+02  0.00000000000E+00 0. -1.
         11    1    3    3    0    0  0.15121581808E+02  0.38504303984E+01  0.75390112696E+01  0.17329880029E+02  0.51100000000E-03 0. -1.
        -11    1    3    3    0    0  0.56845685581E+01  0.54875717594E+01 -0.10846322150E+02  0.13419033793E+02  0.51100000000E-03 0.  1.
         12    1    3    3    0    0  0.92871703306E+01  0.15829158871E+02 -0.73778236985E+01  0.19779941502E+02  0.00000000000E+00 0. -1.
</event>
<event>
 7    1  0.2942034E-011  0.5052886E+02  0.7816164E-02  0.1300439E+00
        -11   -1    0    0    0    0  0.00000000000E+00  0.00000000000E+00  0.45593999997E+02  0.45594000000E+02  0.51100000000E-03 0. -1.
         11   -1    0    0    0    0 -0.00000000000E+00 -0.00000000000E+00 -0.45593999997E+02  0.45594000000E+02  0.51100000000E-03 0.  1.
    9900012    2    1    2    0    0  0.26226297113E+02 -0.20343794613E+02 -0.23483542185E+02  0.50528863351E+02  0.30000010641E+02 0.  0.
         12    1    1    2    0    0 -0.26226297113E+02  0.20343794613E+02  0.23483542185E+02  0.40659136649E+02  0.00000000000E+00 0. -1.
         11    1    3    3    0    0  0.10728073671E+02 -0.79829249002E+01  0.44681140825E+01  0.14099031824E+02  0.51100000000E-03 0. -1.
        -11    1    3    3    0    0  0.17058108779E+02 -0.12093594077E+02 -0.22339573330E+02  0.30598866476E+02  0.51100000000E-03 0.  1.
         12    1    3    3    0    0 -0.15598853363E+01 -0.26727563535E+00 -0.56120829372E+01  0.58309650507E+01  0.00000000000E+00 0. -1.
</event>
<event>
 7    1  0.2942034E-011  0.5052886E+02  0.7816164E-02  0.1300439E+00
        -11   -1    0    0    0    0  0.00000000000E+00  0.00000000000E+00  0.45593999997E+02  0.45594000000E+02  0.51100000000E-03 0. -1.
         11   -1    0    0    0    0 -0.00000000000E+00 -0.00000000000E+00 -0.45593999997E+02  0.45594000000E+02  0.51100000000E-03 0.  1.
    9900012    2    1    2    0    0  0.36857970905E+02 -0.22386415822E+01 -0.17018936454E+02  0.50528859166E+02  0.29999997920E+02 0.  0.
         12    1    1    2    0    0 -0.36857970905E+02  0.22386415822E+01  0.17018936454E+02  0.40659140834E+02  0.00000000000E+00 0. -1.
         11    1    3    3    0    0  0.48687494104E+01  0.11197494348E+01  0.44117435789E+01  0.66649862179E+01  0.51100000000E-03 0. -1.
        -11    1    3    3    0    0  0.25736676110E+02  0.53683951756E+01 -0.20000413885E+02  0.33033509044E+02  0.51100000000E-03 0.  1.
        -12    1    3    3    0    0  0.62525453849E+01 -0.87267861925E+01 -0.14302661480E+01  0.10830363904E+02  0.00000000000E+00 0.  1.
</event>
<event>
 7    1  0.2942034E-011  0.5052883E+02  0.7816164E-02  0.1300439E+00
        -11   -1    0    0    0    0  0.00000000000E+00  0.00000000000E+00  0.45593999997E+02  0.45594000000E+02  0.51100000000E-03 0.  1.
         11   -1    0    0    0    0 -0.00000000000E+00 -0.00000000000E+00 -0.45593999997E+02  0.45594000000E+02  0.51100000000E-03 0. -1.
    9900012    2    1    2    0    0 -0.38560765510E+02 -0.12750954107E+02 -0.19102309301E+01  0.50528825764E+02  0.29999896393E+02 0.  0.
         12    1    1    2    0    0  0.38560765510E+02  0.12750954107E+02  0.19102309301E+01  0.40659174236E+02  0.00000000000E+00 0. -1.
         11    1    3    3    0    0 -0.11038335615E+02  0.45351873046E+01 -0.36142933496E+01  0.12468997302E+02  0.51100000000E-03 0. -1.
        -11    1    3    3    0    0 -0.29430773263E+02 -0.18975165638E+02  0.30993468010E+01  0.35154420443E+02  0.51100000000E-03 0.  1.
        -12    1    3    3    0    0  0.19083433685E+01  0.16890242271E+01 -0.13952843816E+01  0.29054080190E+01  0.00000000000E+00 0.  1.
</event>
<event>
 7    1  0.2942034E-011  0.5052885E+02  0.7816164E-02  0.1300439E+00
        -11   -1    0    0    0    0  0.00000000000E+00  0.00000000000E+00  0.45593999997E+02  0.45594000000E+02  0.51100000000E-03 0.  1.
         11   -1    0    0    0    0 -0.00000000000E+00 -0.00000000000E+00 -0.45593999997E+02  0.45594000000E+02  0.51100000000E-03 0. -1.
    9900012    2    1    2    0    0  0.16849626303E+02 -0.34039499156E+02  0.14510999280E+02  0.50528849622E+02  0.29999968910E+02 0.  0.
         12    1    1    2    0    0 -0.16849626303E+02  0.34039499156E+02 -0.14510999280E+02  0.40659150378E+02  0.00000000000E+00 0. -1.
         11    1    3    3    0    0 -0.59678017155E+01 -0.15356594337E+02  0.34498001604E+01  0.16832729082E+02  0.51100000000E-03 0. -1.
        -11    1    3    3    0    0  0.66686787215E+01 -0.44736038756E+01  0.90394736022E+01  0.12091174087E+02  0.51100000000E-03 0.  1.
         12    1    3    3    0    0  0.16148749297E+02 -0.14209300944E+02  0.20217255177E+01  0.21604946453E+02  0.00000000000E+00 0. -1.
</event>
<event>
 7    1  0.2942034E-011  0.5052886E+02  0.7816164E-02  0.1300439E+00
        -11   -1    0    0    0    0  0.00000000000E+00  0.00000000000E+00  0.45593999997E+02  0.45594000000E+02  0.51100000000E-03 0. -1.
         11   -1    0    0    0    0 -0.00000000000E+00 -0.00000000000E+00 -0.45593999997E+02  0.45594000000E+02  0.51100000000E-03 0.  1.
    9900012    2    1    2    0    0 -0.10065666365E+02  0.34859162585E+02 -0.18349035527E+02  0.50528856376E+02  0.29999989440E+02 0.  0.
         12    1    1    2    0    0  0.10065666365E+02 -0.34859162585E+02  0.18349035527E+02  0.40659143624E+02  0.00000000000E+00 0. -1.
         11    1    3    3    0    0 -0.70274575892E+01  0.10017623375E+02 -0.27613117813E+01  0.12544432282E+02  0.51100000000E-03 0. -1.
        -11    1    3    3    0    0  0.10152026397E+02  0.11306089397E+02 -0.36396552002E+01  0.15624928405E+02  0.51100000000E-03 0.  1.
        -12    1    3    3    0    0 -0.13190235172E+02  0.13535449813E+02 -0.11948068545E+02  0.22359495690E+02  0.00000000000E+00 0.  1.
</event>
<event>
 7    1  0.2942034E-011  0.5052880E+02  0.7816164E-02  0.1300439E+00
        -11   -1    0    0    0    0  0.00000000000E+00  0.00000000000E+00  0.45593999997E+02  0.45594000000E+02  0.51100000000E-03 0. -1.
         11   -1    0    0    0    0 -0.00000000000E+00 -0.00000000000E+00 -0.45593999997E+02  0.45594000000E+02  0.51100000000E-03 0.  1.
    9900012    2    1    2    0    0 -0.25603477572E+02  0.15765661280E+02 -0.27369255981E+02  0.50528802857E+02  0.29999826764E+02 0.  0.
         12    1    1    2    0    0  0.25603477572E+02 -0.15765661280E+02  0.27369255981E+02  0.40659197143E+02  0.00000000000E+00 0. -1.
         11    1    3    3    0    0 -0.66756105008E+01  0.12774513883E+01 -0.15877879556E+02  0.17271442240E+02  0.51100000000E-03 0. -1.
        -11    1    3    3    0    0 -0.13154067223E+02  0.47722749360E+01  0.35564385171E+01  0.14437878922E+02  0.51100000000E-03 0.  1.
         12    1    3    3    0    0 -0.57737998486E+01  0.97159349555E+01 -0.15047814942E+02  0.18819481695E+02  0.00000000000E+00 0. -1.
</event>
<event>
 7    1  0.2942034E-011  0.5052887E+02  0.7816164E-02  0.1300439E+00
        -11   -1    0    0    0    0  0.00000000000E+00  0.00000000000E+00  0.45593999997E+02  0.45594000000E+02  0.51100000000E-03 0.  1.
         11   -1    0    0    0    0 -0.00000000000E+00 -0.00000000000E+00 -0.45593999997E+02  0.45594000000E+02  0.51100000000E-03 0. -1.
    9900012    2    1    2    0    0  0.88399547709E+01 -0.41931899765E+01  0.39464380790E+02  0.50528868263E+02  0.30000025571E+02 0.  0.
         12    1    1    2    0    0 -0.88399547709E+01  0.41931899765E+01 -0.39464380790E+02  0.40659131737E+02  0.00000000000E+00 0. -1.
         11    1    3    3    0    0 -0.54757559063E+01 -0.34352218037E+01  0.57887637057E+01  0.86772367196E+01  0.51100000000E-03 0. -1.
        -11    1    3    3    0    0  0.84000606747E+01  0.87064391958E+01  0.10070842255E+02  0.15741186956E+02  0.51100000000E-03 0.  1.
        -12    1    3    3    0    0  0.59156500025E+01 -0.94644073686E+01  0.23604774829E+02  0.26110444587E+02  0.00000000000E+00 0.  1.
</event>
<event>
 7    1  0.2942034E-011  0.5052883E+02  0.7816164E-02  0.1300439E+00
        -11   -1    0    0    0    0  0.00000000000E+00  0.00000000000E+00  0.45593999997E+02  0.45594000000E+02  0.51100000000E-03 0.  1.
         11   -1    0    0    0    0 -0.00000000000E+00 -0.00000000000E+00 -0.45593999997E+02  0.45594000000E+02  0.51100000000E-03 0. -1.
    9900012    2    1    2    0    0  0.97803867486E+01 -0.37342276667E+02  0.12769735592E+02  0.50528834505E+02  0.29999922962E+02 0.  0.
         12    1    1    2    0    0 -0.97803867486E+01  0.37342276667E+02 -0.12769735592E+02  0.40659165495E+02  0.00000000000E+00 0. -1.
         11    1    3    3    0    0  0.49087562766E+01 -0.21754141085E+01 -0.36630744445E+01  0.64997253306E+01  0.51100000000E-03 0. -1.
        -11    1    3    3    0    0 -0.54573529461E+01 -0.26741416677E+02  0.13180247156E+02  0.30308496869E+02  0.51100000000E-03 0.  1.
        -12    1    3    3    0    0  0.10328983418E+02 -0.84254458818E+01  0.32525628806E+01  0.13720612306E+02  0.00000000000E+00 0.  1.
</event>
<event>
 7    1  0.2942034E-011  0.5052887E+02  0.7816164E-02  0.1300439E+00
        -11   -1    0    0    0    0  0.00000000000E+00  0.00000000000E+00  0.45593999997E+02  0.45594000000E+02  0.51100000000E-03 0. -1.
         11   -1    0    0    0    0 -0.00000000000E+00 -0.00000000000E+00 -0.45593999997E+02  0.45594000000E+02  0.51100000000E-03 0.  1.
    9900012    2    1    2    0    0 -0.74263946610E+01 -0.42146935578E+01 -0.39752359495E+02  0.50528867386E+02  0.30000022908E+02 0.  0.
         12    1    1    2    0    0  0.74263946610E+01  0.42146935578E+01  0.39752359495E+02  0.40659132614E+02  0.00000000000E+00 0. -1.
         11    1    3    3    0    0 -0.17887525899E+02 -0.15185811931E+01 -0.21324243755E+02  0.27874594950E+02  0.51100000000E-03 0.  1.
        -11    1    3    3    0    0  0.86453632135E+01  0.12011350799E+01 -0.13873995688E+02  0.16391241173E+02  0.51100000000E-03 0. -1.
         12    1    3    3    0    0  0.18157680243E+01 -0.38972474446E+01 -0.45541200523E+01  0.62630312639E+01  0.00000000000E+00 0. -1.
</event>
<event>
 7    1  0.2942034E-011  0.5052886E+02  0.7816164E-02  0.1300439E+00
        -11   -1    0    0    0    0  0.00000000000E+00  0.00000000000E+00  0.45593999997E+02  0.45594000000E+02  0.51100000000E-03 0.  1.
         11   -1    0    0    0    0 -0.00000000000E+00 -0.00000000000E+00 -0.45593999997E+02  0.45594000000E+02  0.51100000000E-03 0. -1.
    9900012    2    1    2    0    0 -0.34242875909E+02  0.12665894193E+02 -0.17893190628E+02  0.50528859612E+02  0.29999999278E+02 0.  0.
         12    1    1    2    0    0  0.34242875909E+02 -0.12665894193E+02  0.17893190628E+02  0.40659140388E+02  0.00000000000E+00 0. -1.
         11    1    3    3    0    0  0.39614496303E+01  0.11851970866E+01 -0.13691152985E+01  0.43557148976E+01  0.51100000000E-03 0. -1.
        -11    1    3    3    0    0 -0.35627431925E+02  0.91018616835E+01 -0.89778641461E+01  0.37851814178E+02  0.51100000000E-03 0.  1.
         12    1    3    3    0    0 -0.25768936135E+01  0.23788354229E+01 -0.75462111838E+01  0.83213305364E+01  0.00000000000E+00 0. -1.
</event>
<event>
 7    1  0.2942034E-011  0.5052885E+02  0.7816164E-02  0.1300439E+00
        -11   -1    0    0    0    0  0.00000000000E+00  0.00000000000E+00  0.45593999997E+02  0.45594000000E+02  0.51100000000E-03 0.  1.
         11   -1    0    0    0    0 -0.00000000000E+00 -0.00000000000E+00 -0.45593999997E+02  0.45594000000E+02  0.51100000000E-03 0. -1.
    9900012    2    1    2    0    0  0.26435983848E+01 -0.84925586623E+01  0.39674352570E+02  0.50528850761E+02  0.29999972372E+02 0.  0.
         12    1    1    2    0    0 -0.26435983848E+01  0.84925586623E+01 -0.39674352570E+02  0.40659149239E+02  0.00000000000E+00 0. -1.
         11    1    3    3    0    0 -0.60705252964E+01 -0.13284118743E+02  0.22655654292E+02  0.26955477362E+02  0.51100000000E-03 0. -1.
        -11    1    3    3    0    0  0.11910585287E+02  0.39237889027E+01  0.10898090825E+02  0.16614046621E+02  0.51100000000E-03 0.  1.
         12    1    3    3    0    0 -0.31964616054E+01  0.86777117843E+00  0.61206074522E+01  0.69593267776E+01  0.00000000000E+00 0. -1.
</event>
<event>
 7    1  0.2942034E-011  0.5052886E+02  0.7816164E-02  0.1300439E+00
        -11   -1    0    0    0    0  0.00000000000E+00  0.00000000000E+00  0.45593999997E+02  0.45594000000E+02  0.51100000000E-03 0. -1.
         11   -1    0    0    0    0 -0.00000000000E+00 -0.00000000000E+00 -0.45593999997E+02  0.45594000000E+02  0.51100000000E-03 0.  1.
    9900012    2    1    2    0    0  0.24678488992E+02  0.63010320992E+01 -0.31692816626E+02  0.50528862649E+02  0.30000008508E+02 0.  0.
         12    1    1    2    0    0 -0.24678488992E+02 -0.63010320992E+01  0.31692816626E+02  0.40659137351E+02  0.00000000000E+00 0. -1.
         11    1    3    3    0    0 -0.21476129412E+01 -0.16405368597E+01  0.15173099986E+00  0.27067739268E+01  0.51100000000E-03 0. -1.
        -11    1    3    3    0    0  0.26251742521E+02  0.49596638281E+01 -0.34605190765E+02  0.43718090978E+02  0.51100000000E-03 0.  1.
        -12    1    3    3    0    0  0.57435941255E+00  0.29819051308E+01  0.27606431388E+01  0.41039977441E+01  0.00000000000E+00 0.  1.
</event>
<event>
 7    1  0.2942034E-011  0.5052885E+02  0.7816164E-02  0.1300439E+00
        -11   -1    0    0    0    0  0.00000000000E+00  0.00000000000E+00  0.45593999997E+02  0.45594000000E+02  0.51100000000E-03 0.  1.
         11   -1    0    0    0    0 -0.00000000000E+00 -0.00000000000E+00 -0.45593999997E+02  0.45594000000E+02  0.51100000000E-03 0. -1.
    9900012    2    1    2    0    0 -0.49233499523E+01 -0.96814887520E+01  0.39181578290E+02  0.50528847568E+02  0.29999962667E+02 0.  0.
         12    1    1    2    0    0  0.49233499523E+01  0.96814887520E+01 -0.39181578290E+02  0.40659152432E+02  0.00000000000E+00 0. -1.
         11    1    3    3    0    0  0.33735039405E+01  0.19519036850E+01  0.10767748028E+02  0.11451412782E+02  0.51100000000E-03 0.  1.
        -11    1    3    3    0    0 -0.11002976792E+02 -0.31564853851E+01  0.25523394805E+01  0.11727887080E+02  0.51100000000E-03 0. -1.
        -12    1    3    3    0    0  0.27061228989E+01 -0.84769070520E+01  0.25861490781E+02  0.27349547706E+02  0.00000000000E+00 0.  1.
</event>
<event>
 7    1  0.2942034E-011  0.5052886E+02  0.7816164E-02  0.1300439E+00
        -11   -1    0    0    0    0  0.00000000000E+00  0.00000000000E+00  0.45593999997E+02  0.45594000000E+02  0.51100000000E-03 0. -1.
         11   -1    0    0    0    0 -0.00000000000E+00 -0.00000000000E+00 -0.45593999997E+02  0.45594000000E+02  0.51100000000E-03 0.  1.
    9900012    2    1    2    0    0  0.12538085534E+01 -0.40396202445E+02  0.44430266796E+01  0.50528859651E+02  0.29999999395E+02 0.  0.
         12    1    1    2    0    0 -0.12538085534E+01  0.40396202445E+02 -0.44430266796E+01  0.40659140349E+02  0.00000000000E+00 0. -1.
         11    1    3    3    0    0 -0.32707693144E+01 -0.65924159776E+01  0.73850669001E+01  0.10425789836E+02  0.51100000000E-03 0. -1.
        -11    1    3    3    0    0  0.12722312246E+02 -0.19647168134E+02 -0.38403908341E+01  0.23719549882E+02  0.51100000000E-03 0.  1.
        -12    1    3    3    0    0 -0.81977343785E+01 -0.14156618333E+02  0.89835061358E+00  0.16383519933E+02  0.00000000000E+00 0.  1.
</event>
<event>
 7    1  0.2942034E-011  0.5052887E+02  0.7816164E-02  0.1300439E+00
        -11   -1    0    0    0    0  0.00000000000E+00  0.00000000000E+00  0.45593999997E+02  0.45594000000E+02  0.51100000000E-03 0.  1.
         11   -1    0    0    0    0 -0.00000000000E+00 -0.00000000000E+00 -0.45593999997E+02  0.45594000000E+02  0.51100000000E-03 0. -1.
    9900012    2    1    2    0    0  0.34823186865E+02  0.17003285236E+02  0.12304433284E+02  0.50528866578E+02  0.30000020449E+02 0.  0.
         12    1    1    2    0    0 -0.34823186865E+02 -0.17003285236E+02 -0.12304433284E+02  0.40659133422E+02  0.00000000000E+00 0. -1.
         11    1    3    3    0    0  0.15058365565E+02  0.13325782815E+01  0.33695214020E+01  0.15488183015E+02  0.51100000000E-03 0. -1.
        -11    1    3    3    0    0  0.12891611689E+02  0.18803005205E+02 -0.68688365474E+00  0.22808298185E+02  0.51100000000E-03 0.  1.
        -12    1    3    3    0    0  0.68732096109E+01 -0.31322982504E+01  0.96217955366E+01  0.12232385378E+02  0.00000000000E+00 0.  1.
</event>
<event>
 7    1  0.2942034E-011  0.5052886E+02  0.7816164E-02  0.1300439E+00
        -11   -1    0    0    0    0  0.00000000000E+00  0.00000000000E+00  0.45593999997E+02  0.45594000000E+02  0.51100000000E-03 0.  1.
         11   -1    0    0    0    0 -0.00000000000E+00 -0.00000000000E+00 -0.45593999997E+02  0.45594000000E+02  0.51100000000E-03 0. -1.
    9900012    2    1    2    0    0 -0.19663159498E+02 -0.30126220846E+02  0.18945618037E+02  0.50528862445E+02  0.30000007888E+02 0.  0.
         12    1    1    2    0    0  0.19663159498E+02  0.30126220846E+02 -0.18945618037E+02  0.40659137555E+02  0.00000000000E+00 0. -1.
         11    1    3    3    0    0  0.64574057596E+01 -0.10597054782E+01  0.59886235276E+01  0.88704383692E+01  0.51100000000E-03 0. -1.
        -11    1    3    3    0    0 -0.23784794046E+02 -0.28380054633E+02  0.12936825880E+02  0.39223786060E+02  0.51100000000E-03 0.  1.
         12    1    3    3    0    0 -0.23357712116E+01 -0.68646073547E+00  0.20168628648E-01  0.24346380157E+01  0.00000000000E+00 0. -1.
</event>
<event>
 7    1  0.2942034E-011  0.5052882E+02  0.7816164E-02  0.1300439E+00
        -11   -1    0    0    0    0  0.00000000000E+00  0.00000000000E+00  0.45593999997E+02  0.45594000000E+02  0.51100000000E-03 0.  1.
         11   -1    0    0    0    0 -0.00000000000E+00 -0.00000000000E+00 -0.45593999997E+02  0.45594000000E+02  0.51100000000E-03 0. -1.
    9900012    2    1    2    0    0  0.31518123683E+02  0.24185817615E+02 -0.86500522460E+01  0.50528815329E+02  0.29999864675E+02 0.  0.
         12    1    1    2    0    0 -0.31518123683E+02 -0.24185817615E+02  0.86500522460E+01  0.40659184671E+02  0.00000000000E+00 0. -1.
         11    1    3    3    0    0  0.30856123048E+01  0.60707129463E+01 -0.25401971566E+01  0.72682295525E+01  0.51100000000E-03 0. -1.
        -11    1    3    3    0    0  0.93305065624E+01 -0.67124509581E+01 -0.19919592613E+01  0.11665472667E+02  0.51100000000E-03 0.  1.
        -12    1    3    3    0    0  0.19102004816E+02  0.24827555627E+02 -0.41178958280E+01  0.31595113110E+02  0.00000000000E+00 0.  1.
</event>
<event>
 7    1  0.2942034E-011  0.5052887E+02  0.7816164E-02  0.1300439E+00
        -11   -1    0    0    0    0  0.00000000000E+00  0.00000000000E+00  0.45593999997E+02  0.45594000000E+02  0.51100000000E-03 0.  1.
         11   -1    0    0    0    0 -0.00000000000E+00 -0.00000000000E+00 -0.45593999997E+02  0.45594000000E+02  0.51100000000E-03 0. -1.
    9900012    2    1    2    0    0 -0.16790268686E+02  0.35908374497E+02  0.90465838692E+01  0.50528866202E+02  0.30000019307E+02 0.  0.
         12    1    1    2    0    0  0.16790268686E+02 -0.35908374497E+02 -0.90465838692E+01  0.40659133798E+02  0.00000000000E+00 0. -1.
         11    1    3    3    0    0 -0.12984409479E+02  0.34650858459E+02  0.19040711731E+01  0.37052697185E+02  0.51100000000E-03 0. -1.
        -11    1    3    3    0    0  0.49654846018E+00  0.22717102969E+01  0.85315213318E+01  0.88427419131E+01  0.51100000000E-03 0.  1.
         12    1    3    3    0    0 -0.43024076672E+01 -0.10141942588E+01 -0.13890086358E+01  0.46334271031E+01  0.00000000000E+00 0. -1.
</event>
<event>
 7    1  0.2942034E-011  0.5052887E+02  0.7816164E-02  0.1300439E+00
        -11   -1    0    0    0    0  0.00000000000E+00  0.00000000000E+00  0.45593999997E+02  0.45594000000E+02  0.51100000000E-03 0.  1.
         11   -1    0    0    0    0 -0.00000000000E+00 -0.00000000000E+00 -0.45593999997E+02  0.45594000000E+02  0.51100000000E-03 0. -1.
    9900012    2    1    2    0    0  0.25720019486E+02 -0.29618784577E+02 -0.10694535403E+02  0.50528869541E+02  0.30000029457E+02 0.  0.
         12    1    1    2    0    0 -0.25720019486E+02  0.29618784577E+02  0.10694535403E+02  0.40659130459E+02  0.00000000000E+00 0. -1.
         11    1    3    3    0    0  0.14275903466E+00  0.59721684846E+00 -0.10177765892E+02  0.10196272207E+02  0.51100000000E-03 0. -1.
        -11    1    3    3    0    0  0.17352055710E+02 -0.14671363165E+02  0.33024554444E+00  0.22725575831E+02  0.51100000000E-03 0.  1.
         12    1    3    3    0    0  0.82252047415E+01 -0.15544638260E+02 -0.84701505566E+00  0.17607021503E+02  0.00000000000E+00 0. -1.
</event>
<event>
 7    1  0.2942034E-011  0.5052886E+02  0.7816164E-02  0.1300439E+00
        -11   -1    0    0    0    0  0.00000000000E+00  0.00000000000E+00  0.45593999997E+02  0.45594000000E+02  0.51100000000E-03 0.  1.
         11   -1    0    0    0    0 -0.00000000000E+00 -0.00000000000E+00 -0.45593999997E+02  0.45594000000E+02  0.51100000000E-03 0. -1.
    9900012    2    1    2    0    0  0.16101989730E+02  0.14012977435E+01  0.37308548343E+02  0.50528862182E+02  0.30000007088E+02 0.  0.
         12    1    1    2    0    0 -0.16101989730E+02 -0.14012977435E+01 -0.37308548343E+02  0.40659137818E+02  0.00000000000E+00 0. -1.
         11    1    3    3    0    0  0.16149632085E+02 -0.74561146306E+00  0.94611028846E+01  0.18731765026E+02  0.51100000000E-03 0. -1.
        -11    1    3    3    0    0  0.41872070235E+01  0.49828765759E+01  0.25252535114E+02  0.26077812247E+02  0.51100000000E-03 0.  1.
         12    1    3    3    0    0 -0.42348493785E+01 -0.28359673693E+01  0.25949103447E+01  0.57192849094E+01  0.00000000000E+00 0. -1.
</event>
<event>
 7    1  0.2942034E-011  0.5052886E+02  0.7816164E-02  0.1300439E+00
        -11   -1    0    0    0    0  0.00000000000E+00  0.00000000000E+00  0.45593999997E+02  0.45594000000E+02  0.51100000000E-03 0.  1.
         11   -1    0    0    0    0 -0.00000000000E+00 -0.00000000000E+00 -0.45593999997E+02  0.45594000000E+02  0.51100000000E-03 0. -1.
    9900012    2    1    2    0    0  0.11680576719E+02 -0.11619670630E+02  0.37171403504E+02  0.50528857651E+02  0.29999993317E+02 0.  0.
         12    1    1    2    0    0 -0.11680576719E+02  0.11619670630E+02 -0.37171403504E+02  0.40659142349E+02  0.00000000000E+00 0. -1.
         11    1    3    3    0    0  0.10994355689E+02 -0.62624033282E+01  0.27636718775E+01  0.12951117132E+02  0.51100000000E-03 0. -1.
        -11    1    3    3    0    0 -0.21485326192E+01 -0.96192203468E+01  0.24899372097E+02  0.26779177052E+02  0.51100000000E-03 0.  1.
         12    1    3    3    0    0  0.28347536494E+01  0.42619530453E+01  0.95083595304E+01  0.10798563468E+02  0.00000000000E+00 0. -1.
</event>
<event>
 7    1  0.2942034E-011  0.5052886E+02  0.7816164E-02  0.1300439E+00
        -11   -1    0    0    0    0  0.00000000000E+00  0.00000000000E+00  0.45593999997E+02  0.45594000000E+02  0.51100000000E-03 0. -1.
         11   -1    0    0    0    0 -0.00000000000E+00 -0.00000000000E+00 -0.45593999997E+02  0.45594000000E+02  0.51100000000E-03 0.  1.
    9900012    2    1    2    0    0  0.30514518858E+02  0.14392234125E+02  0.22691264691E+02  0.50528858868E+02  0.29999997016E+02 0.  0.
         12    1    1    2    0    0 -0.30514518858E+02 -0.14392234125E+02 -0.22691264691E+02  0.40659141132E+02  0.00000000000E+00 0. -1.
         11    1    3    3    0    0 -0.36806092641E+01  0.23305294968E+01  0.10800061087E+02  0.11645581653E+02  0.51100000000E-03 0. -1.
        -11    1    3    3    0    0  0.56001655151E+01 -0.81500377983E+00  0.17311875025E+01  0.59180313777E+01  0.51100000000E-03 0.  1.
         12    1    3    3    0    0  0.28594962607E+02  0.12876708408E+02  0.10160016102E+02  0.32965245838E+02  0.00000000000E+00 0. -1.
</event>
<event>
 7    1  0.2942034E-011  0.5052883E+02  0.7816164E-02  0.1300439E+00
        -11   -1    0    0    0    0  0.00000000000E+00  0.00000000000E+00  0.45593999997E+02  0.45594000000E+02  0.51100000000E-03 0.  1.
         11   -1    0    0    0    0 -0.00000000000E+00 -0.00000000000E+00 -0.45593999997E+02  0.45594000000E+02  0.51100000000E-03 0. -1.
    9900012    2    1    2    0    0  0.76501403475E+01  0.29392211419E+02  0.27032232519E+02  0.50528827180E+02  0.29999900696E+02 0.  0.
         12    1    1    2    0    0 -0.76501403475E+01 -0.29392211419E+02 -0.27032232519E+02  0.40659172820E+02  0.00000000000E+00 0. -1.
         11    1    3    3    0    0 -0.20459691934E+01  0.62127836797E+00 -0.43026090521E+00  0.21810780496E+01  0.51100000000E-03 0. -1.
        -11    1    3    3    0    0  0.16168582197E+02  0.28100039020E+02  0.18676703468E+02  0.37414629437E+02  0.51100000000E-03 0.  1.
        -12    1    3    3    0    0 -0.64724726558E+01  0.67089403073E+00  0.87857899560E+01  0.10933119693E+02  0.00000000000E+00 0.  1.
</event>
<event>
 7    1  0.2942034E-011  0.5052886E+02  0.7816164E-02  0.1300439E+00
        -11   -1    0    0    0    0  0.00000000000E+00  0.00000000000E+00  0.45593999997E+02  0.45594000000E+02  0.51100000000E-03 0. -1.
         11   -1    0    0    0    0 -0.00000000000E+00 -0.00000000000E+00 -0.45593999997E+02  0.45594000000E+02  0.51100000000E-03 0.  1.
    9900012    2    1    2    0    0 -0.27141689790E+02 -0.15664248049E+02  0.25906092098E+02  0.50528860813E+02  0.30000002928E+02 0.  0.
         12    1    1    2    0    0  0.27141689790E+02  0.15664248049E+02 -0.25906092098E+02  0.40659139187E+02  0.00000000000E+00 0. -1.
         11    1    3    3    0    0 -0.14646275784E+01 -0.94518848955E+01  0.21148831977E+02  0.23211125701E+02  0.51100000000E-03 0. -1.
        -11    1    3    3    0    0 -0.13065958180E+02 -0.10122788895E+01  0.87205392907E+00  0.13134094945E+02  0.51100000000E-03 0.  1.
         12    1    3    3    0    0 -0.12611104032E+02 -0.52000842637E+01  0.38852061916E+01  0.14183640168E+02  0.00000000000E+00 0. -1.
</event>
<event>
 7    1  0.2942034E-011  0.5052893E+02  0.7816164E-02  0.1300439E+00
        -11   -1    0    0    0    0  0.00000000000E+00  0.00000000000E+00  0.45593999997E+02  0.45594000000E+02  0.51100000000E-03 0.  1.
         11   -1    0    0    0    0 -0.00000000000E+00 -0.00000000000E+00 -0.45593999997E+02  0.45594000000E+02  0.51100000000E-03 0. -1.
    9900012    2    1    2    0    0  0.13149327275E+00  0.19588880700E+02  0.35628896724E+02  0.50528931893E+02  0.30000218981E+02 0.  0.
         12    1    1    2    0    0 -0.13149327275E+00 -0.19588880700E+02 -0.35628896724E+02  0.40659068107E+02  0.00000000000E+00 0. -1.
         11    1    3    3    0    0  0.19918319509E+01  0.23975206488E+02  0.25763411618E+02  0.35249557431E+02  0.51100000000E-03 0. -1.
        -11    1    3    3    0    0  0.75751692878E+00 -0.77767043948E+00  0.10690496770E+02  0.10745479266E+02  0.51100000000E-03 0.  1.
         12    1    3    3    0    0 -0.26178556069E+01 -0.36086553477E+01 -0.82501166427E+00  0.45338951955E+01  0.00000000000E+00 0. -1.
</event>
<event>
 7    1  0.2942034E-011  0.5052886E+02  0.7816164E-02  0.1300439E+00
        -11   -1    0    0    0    0  0.00000000000E+00  0.00000000000E+00  0.45593999997E+02  0.45594000000E+02  0.51100000000E-03 0. -1.
         11   -1    0    0    0    0 -0.00000000000E+00 -0.00000000000E+00 -0.45593999997E+02  0.45594000000E+02  0.51100000000E-03 0.  1.
    9900012    2    1    2    0    0 -0.31958893130E+02  0.20645767510E+02  0.14336927433E+02  0.50528855218E+02  0.29999985920E+02 0.  0.
         12    1    1    2    0    0  0.31958893130E+02 -0.20645767510E+02 -0.14336927433E+02  0.40659144782E+02  0.00000000000E+00 0. -1.
         11    1    3    3    0    0 -0.10645419379E+02 -0.18394332656E+01  0.10508874780E+02  0.15071327675E+02  0.51100000000E-03 0. -1.
        -11    1    3    3    0    0 -0.23579733607E+02  0.17110868075E+02  0.48535537836E+01  0.29535446972E+02  0.51100000000E-03 0.  1.
         12    1    3    3    0    0  0.22662598555E+01  0.53743327012E+01 -0.10255011308E+01  0.59220805706E+01  0.00000000000E+00 0. -1.
</event>
<event>
 7    1  0.2942034E-011  0.5052886E+02  0.7816164E-02  0.1300439E+00
        -11   -1    0    0    0    0  0.00000000000E+00  0.00000000000E+00  0.45593999997E+02  0.45594000000E+02  0.51100000000E-03 0.  1.
         11   -1    0    0    0    0 -0.00000000000E+00 -0.00000000000E+00 -0.45593999997E+02  0.45594000000E+02  0.51100000000E-03 0. -1.
    9900012    2    1    2    0    0  0.32627458260E+02  0.23398225345E+02 -0.64138807645E+01  0.50528857753E+02  0.29999993627E+02 0.  0.
         12    1    1    2    0    0 -0.32627458260E+02 -0.23398225345E+02  0.64138807645E+01  0.40659142247E+02  0.00000000000E+00 0. -1.
         11    1    3    3    0    0  0.20467572825E+02  0.25653012477E+02 -0.88332374136E+01  0.33985653884E+02  0.51100000000E-03 0. -1.
        -11    1    3    3    0    0  0.37006798679E+01  0.21375339612E+01  0.50884094436E+01  0.66449976559E+01  0.51100000000E-03 0.  1.
         12    1    3    3    0    0  0.84592055673E+01 -0.43923210933E+01 -0.26690527945E+01  0.98982062131E+01  0.00000000000E+00 0. -1.
</event>
<event>
 7    1  0.2942034E-011  0.5052887E+02  0.7816164E-02  0.1300439E+00
        -11   -1    0    0    0    0  0.00000000000E+00  0.00000000000E+00  0.45593999997E+02  0.45594000000E+02  0.51100000000E-03 0.  1.
         11   -1    0    0    0    0 -0.00000000000E+00 -0.00000000000E+00 -0.45593999997E+02  0.45594000000E+02  0.51100000000E-03 0. -1.
    9900012    2    1    2    0    0  0.74959013597E+01 -0.36933964261E+02 -0.15259698086E+02  0.50528872625E+02  0.30000038832E+02 0.  0.
         12    1    1    2    0    0 -0.74959013597E+01  0.36933964261E+02  0.15259698086E+02  0.40659127375E+02  0.00000000000E+00 0. -1.
         11    1    3    3    0    0  0.30780751423E+01  0.42802337030E+01 -0.48659489501E+01  0.71744272650E+01  0.51100000000E-03 0. -1.
        -11    1    3    3    0    0  0.26877275555E+01 -0.38503151998E+02 -0.10881967569E+02  0.40101543756E+02  0.51100000000E-03 0.  1.
         12    1    3    3    0    0  0.17300986620E+01 -0.27110459657E+01  0.48821843288E+00  0.32529016042E+01  0.00000000000E+00 0. -1.
</event>
<event>
 7    1  0.2942034E-011  0.5052886E+02  0.7816164E-02  0.1300439E+00
        -11   -1    0    0    0    0  0.00000000000E+00  0.00000000000E+00  0.45593999997E+02  0.45594000000E+02  0.51100000000E-03 0. -1.
         11   -1    0    0    0    0 -0.00000000000E+00 -0.00000000000E+00 -0.45593999997E+02  0.45594000000E+02  0.51100000000E-03 0.  1.
    9900012    2    1    2    0    0 -0.29003572090E+02 -0.46923454501E+01 -0.28105874131E+02  0.50528862522E+02  0.30000008121E+02 0.  0.
         12    1    1    2    0    0  0.29003572090E+02  0.46923454501E+01  0.28105874131E+02  0.40659137478E+02  0.00000000000E+00 0. -1.
         11    1    3    3    0    0 -0.89387605546E+01  0.70374908223E+01 -0.13631990870E+01  0.11458011579E+02  0.51100000000E-03 0. -1.
        -11    1    3    3    0    0 -0.11828689533E+02 -0.96929084203E+01 -0.55940388278E+01  0.16283845995E+02  0.51100000000E-03 0.  1.
        -12    1    3    3    0    0 -0.82361220025E+01 -0.20369278521E+01 -0.21148636216E+02  0.22787004949E+02  0.00000000000E+00 0.  1.
</event>
<event>
 7    1  0.2942034E-011  0.5052883E+02  0.7816164E-02  0.1300439E+00
        -11   -1    0    0    0    0  0.00000000000E+00  0.00000000000E+00  0.45593999997E+02  0.45594000000E+02  0.51100000000E-03 0.  1.
         11   -1    0    0    0    0 -0.00000000000E+00 -0.00000000000E+00 -0.45593999997E+02  0.45594000000E+02  0.51100000000E-03 0. -1.
    9900012    2    1    2    0    0 -0.83053216712E+01 -0.20480992087E+02  0.34127976907E+02  0.50528828677E+02  0.29999905246E+02 0.  0.
         12    1    1    2    0    0  0.83053216712E+01  0.20480992087E+02 -0.34127976907E+02  0.40659171323E+02  0.00000000000E+00 0. -1.
         11    1    3    3    0    0 -0.58058549544E+01 -0.21164986657E+02  0.11289761744E+02  0.24680424073E+02  0.51100000000E-03 0. -1.
        -11    1    3    3    0    0 -0.37970315229E+01 -0.49736024201E+01  0.12947474238E+02  0.14380238483E+02  0.51100000000E-03 0.  1.
         12    1    3    3    0    0  0.12975648060E+01  0.56575969901E+01  0.98907409254E+01  0.11468166121E+02  0.00000000000E+00 0. -1.
</event>
<event>
 7    1  0.2942034E-011  0.5052877E+02  0.7816164E-02  0.1300439E+00
        -11   -1    0    0    0    0  0.00000000000E+00  0.00000000000E+00  0.45593999997E+02  0.45594000000E+02  0.51100000000E-03 0. -1.
         11   -1    0    0    0    0 -0.00000000000E+00 -0.00000000000E+00 -0.45593999997E+02  0.45594000000E+02  0.51100000000E-03 0.  1.
    9900012    2    1    2    0    0 -0.35591295768E+02 -0.19657335165E+02 -0.14808358454E+00  0.50528768712E+02  0.29999722975E+02 0.  0.
         12    1    1    2    0    0  0.35591295768E+02  0.19657335165E+02  0.14808358454E+00  0.40659231288E+02  0.00000000000E+00 0. -1.
         11    1    3    3    0    0 -0.20957227796E+02 -0.28838872784E+01  0.55522527748E+01  0.21871207417E+02  0.51100000000E-03 0. -1.
        -11    1    3    3    0    0 -0.14141710527E+02 -0.57329841754E+01 -0.82053365385E+01  0.17325779409E+02  0.51100000000E-03 0.  1.
        -12    1    3    3    0    0 -0.49235744533E+00 -0.11040463711E+02  0.25050001792E+01  0.11331781885E+02  0.00000000000E+00 0.  1.
</event>
<event>
 7    1  0.2942034E-011  0.5052884E+02  0.7816164E-02  0.1300439E+00
        -11   -1    0    0    0    0  0.00000000000E+00  0.00000000000E+00  0.45593999997E+02  0.45594000000E+02  0.51100000000E-03 0.  1.
         11   -1    0    0    0    0 -0.00000000000E+00 -0.00000000000E+00 -0.45593999997E+02  0.45594000000E+02  0.51100000000E-03 0. -1.
    9900012    2    1    2    0    0  0.40078632597E+02 -0.53952391119E+01 -0.42144907793E+01  0.50528839551E+02  0.29999938299E+02 0.  0.
         12    1    1    2    0    0 -0.40078632597E+02  0.53952391119E+01  0.42144907793E+01  0.40659160449E+02  0.00000000000E+00 0. -1.
         11    1    3    3    0    0  0.36318047934E+01  0.54194153500E+01 -0.60216581095E+01  0.88780873752E+01  0.51100000000E-03 0. -1.
        -11    1    3    3    0    0  0.36835458432E+02 -0.90788748308E+01  0.47276329747E+01  0.38231236965E+02  0.51100000000E-03 0.  1.
        -12    1    3    3    0    0 -0.38863062866E+00 -0.17357796311E+01 -0.29204656445E+01  0.34195152103E+01  0.00000000000E+00 0.  1.
</event>
<event>
 7    1  0.2942034E-011  0.5052886E+02  0.7816164E-02  0.1300439E+00
        -11   -1    0    0    0    0  0.00000000000E+00  0.00000000000E+00  0.45593999997E+02  0.45594000000E+02  0.51100000000E-03 0. -1.
         11   -1    0    0    0    0 -0.00000000000E+00 -0.00000000000E+00 -0.45593999997E+02  0.45594000000E+02  0.51100000000E-03 0.  1.
    9900012    2    1    2    0    0  0.18412969146E+02  0.33678285027E+02 -0.13412720890E+02  0.50528863305E+02  0.30000010503E+02 0.  0.
         12    1    1    2    0    0 -0.18412969146E+02 -0.33678285027E+02  0.13412720890E+02  0.40659136695E+02  0.00000000000E+00 0. -1.
         11    1    3    3    0    0  0.24074057566E+02  0.34130174916E+02 -0.13730134745E+02  0.43965278207E+02  0.51100000000E-03 0.  1.
        -11    1    3    3    0    0 -0.51475546532E+01 -0.26980565251E+00 -0.89742184652E+00  0.52321582765E+01  0.51100000000E-03 0. -1.
         12    1    3    3    0    0 -0.51353376706E+00 -0.18208423695E+00  0.12148357015E+01  0.13314268215E+01  0.00000000000E+00 0. -1.
</event>
<event>
 7    1  0.2942034E-011  0.5052887E+02  0.7816164E-02  0.1300439E+00
        -11   -1    0    0    0    0  0.00000000000E+00  0.00000000000E+00  0.45593999997E+02  0.45594000000E+02  0.51100000000E-03 0.  1.
         11   -1    0    0    0    0 -0.00000000000E+00 -0.00000000000E+00 -0.45593999997E+02  0.45594000000E+02  0.51100000000E-03 0. -1.
    9900012    2    1    2    0    0  0.62303301699E+01  0.12017147748E+02  0.38339748340E+02  0.50528866257E+02  0.30000019474E+02 0.  0.
         12    1    1    2    0    0 -0.62303301699E+01 -0.12017147748E+02 -0.38339748340E+02  0.40659133743E+02  0.00000000000E+00 0. -1.
         11    1    3    3    0    0 -0.76013424505E+00  0.13105176196E+02  0.30291727860E+02  0.33013818685E+02  0.51100000000E-03 0. -1.
        -11    1    3    3    0    0  0.72853880855E+01 -0.27274282860E+01  0.11382978809E+02  0.13787238717E+02  0.51100000000E-03 0.  1.
         12    1    3    3    0    0 -0.29492367053E+00  0.16393998384E+01 -0.33349583289E+01  0.37278088547E+01  0.00000000000E+00 0. -1.
</event>
<event>
 7    1  0.2942034E-011  0.5052887E+02  0.7816164E-02  0.1300439E+00
        -11   -1    0    0    0    0  0.00000000000E+00  0.00000000000E+00  0.45593999997E+02  0.45594000000E+02  0.51100000000E-03 0. -1.
         11   -1    0    0    0    0 -0.00000000000E+00 -0.00000000000E+00 -0.45593999997E+02  0.45594000000E+02  0.51100000000E-03 0.  1.
    9900012    2    1    2    0    0 -0.35746633230E+02  0.18032714752E+02  0.70827005960E+01  0.50528865278E+02  0.30000016499E+02 0.  0.
         12    1    1    2    0    0  0.35746633230E+02 -0.18032714752E+02 -0.70827005960E+01  0.40659134722E+02  0.00000000000E+00 0. -1.
         11    1    3    3    0    0  0.38928457220E+01  0.11055397427E+01  0.36191939145E+01  0.54290911569E+01  0.51100000000E-03 0. -1.
        -11    1    3    3    0    0 -0.37908433030E+02  0.13718440758E+02  0.36639802786E+00  0.40315991361E+02  0.51100000000E-03 0.  1.
        -12    1    3    3    0    0 -0.17310459215E+01  0.32087342518E+01  0.30971086537E+01  0.47837827599E+01  0.00000000000E+00 0.  1.
</event>
<event>
 7    1  0.2942034E-011  0.5052885E+02  0.7816164E-02  0.1300439E+00
        -11   -1    0    0    0    0  0.00000000000E+00  0.00000000000E+00  0.45593999997E+02  0.45594000000E+02  0.51100000000E-03 0.  1.
         11   -1    0    0    0    0 -0.00000000000E+00 -0.00000000000E+00 -0.45593999997E+02  0.45594000000E+02  0.51100000000E-03 0. -1.
    9900012    2    1    2    0    0  0.97927835276E+01  0.49929073082E+01  0.39145096769E+02  0.50528851784E+02  0.29999975483E+02 0.  0.
         12    1    1    2    0    0 -0.97927835276E+01 -0.49929073082E+01 -0.39145096769E+02  0.40659148216E+02  0.00000000000E+00 0. -1.
         11    1    3    3    0    0  0.68007780395E+01 -0.68308969380E+01  0.39448285805E+01  0.10415056779E+02  0.51100000000E-03 0. -1.
        -11    1    3    3    0    0 -0.46359037353E-01  0.64699593890E+01  0.32918933324E+02  0.33548751021E+02  0.51100000000E-03 0.  1.
        -12    1    3    3    0    0  0.30383645254E+01  0.53538448572E+01  0.22813348649E+01  0.65650439839E+01  0.00000000000E+00 0.  1.
</event>
<event>
 7    1  0.2942034E-011  0.5052886E+02  0.7816164E-02  0.1300439E+00
        -11   -1    0    0    0    0  0.00000000000E+00  0.00000000000E+00  0.45593999997E+02  0.45594000000E+02  0.51100000000E-03 0. -1.
         11   -1    0    0    0    0 -0.00000000000E+00 -0.00000000000E+00 -0.45593999997E+02  0.45594000000E+02  0.51100000000E-03 0.  1.
    9900012    2    1    2    0    0  0.24642122326E+02  0.13214313122E+02 -0.29518013868E+02  0.50528863183E+02  0.30000010130E+02 0.  0.
         12    1    1    2    0    0 -0.24642122326E+02 -0.13214313122E+02  0.29518013868E+02  0.40659136817E+02  0.00000000000E+00 0. -1.
         11    1    3    3    0    0 -0.12660896228E+01  0.26450926271E+01 -0.87238156516E+01  0.92035024705E+01  0.51100000000E-03 0. -1.
        -11    1    3    3    0    0  0.11358916271E+02 -0.15465260130E+01  0.20599599195E+01  0.11647324014E+02  0.51100000000E-03 0.  1.
        -12    1    3    3    0    0  0.14549295678E+02  0.12115746508E+02 -0.22854158136E+02  0.29678036699E+02  0.00000000000E+00 0.  1.
</event>
<event>
 7    1  0.2942034E-011  0.5052886E+02  0.7816164E-02  0.1300439E+00
        -11   -1    0    0    0    0  0.00000000000E+00  0.00000000000E+00  0.45593999997E+02  0.45594000000E+02  0.51100000000E-03 0.  1.
         11   -1    0    0    0    0 -0.00000000000E+00 -0.00000000000E+00 -0.45593999997E+02  0.45594000000E+02  0.51100000000E-03 0. -1.
    9900012    2    1    2    0    0  0.85426428790E+01  0.31899871687E+02  0.23718917283E+02  0.50528860829E+02  0.30000002976E+02 0.  0.
         12    1    1    2    0    0 -0.85426428790E+01 -0.31899871687E+02 -0.23718917283E+02  0.40659139171E+02  0.00000000000E+00 0. -1.
         11    1    3    3    0    0  0.25418277183E+01  0.23505924246E+02  0.83994709351E+01  0.25090645171E+02  0.51100000000E-03 0. -1.
        -11    1    3    3    0    0 -0.11249638290E+00  0.21284659835E+01  0.16471597576E+02  0.16608929822E+02  0.51100000000E-03 0.  1.
         12    1    3    3    0    0  0.61133115436E+01  0.62654814574E+01 -0.11521512282E+01  0.88292858361E+01  0.00000000000E+00 0. -1.
</event>
<event>
 7    1  0.2942034E-011  0.5052886E+02  0.7816164E-02  0.1300439E+00
        -11   -1    0    0    0    0  0.00000000000E+00  0.00000000000E+00  0.45593999997E+02  0.45594000000E+02  0.51100000000E-03 0.  1.
         11   -1    0    0    0    0 -0.00000000000E+00 -0.00000000000E+00 -0.45593999997E+02  0.45594000000E+02  0.51100000000E-03 0. -1.
    9900012    2    1    2    0    0  0.24561559052E+02  0.27513402217E+02  0.17114552035E+02  0.50528863561E+02  0.30000011279E+02 0.  0.
         12    1    1    2    0    0 -0.24561559052E+02 -0.27513402217E+02 -0.17114552035E+02  0.40659136439E+02  0.00000000000E+00 0. -1.
         11    1    3    3    0    0  0.14410077565E+01  0.11098075084E+02  0.12669817505E+00  0.11191953655E+02  0.51100000000E-03 0. -1.
        -11    1    3    3    0    0  0.54990084945E+01 -0.51920824831E+01  0.29191598877E+01  0.81066830236E+01  0.51100000000E-03 0.  1.
        -12    1    3    3    0    0  0.17621542801E+02  0.21607409616E+02  0.14068693973E+02  0.31230226882E+02  0.00000000000E+00 0.  1.
</event>
<event>
 7    1  0.2942034E-011  0.5052886E+02  0.7816164E-02  0.1300439E+00
        -11   -1    0    0    0    0  0.00000000000E+00  0.00000000000E+00  0.45593999997E+02  0.45594000000E+02  0.51100000000E-03 0. -1.
         11   -1    0    0    0    0 -0.00000000000E+00 -0.00000000000E+00 -0.45593999997E+02  0.45594000000E+02  0.51100000000E-03 0.  1.
    9900012    2    1    2    0    0 -0.71791336188E+01 -0.31571599195E+02 -0.24593894208E+02  0.50528862434E+02  0.30000007855E+02 0.  0.
         12    1    1    2    0    0  0.71791336188E+01  0.31571599195E+02  0.24593894208E+02  0.40659137566E+02  0.00000000000E+00 0. -1.
         11    1    3    3    0    0 -0.69700595369E+00 -0.28344460927E+02 -0.92805567290E+01  0.29833253527E+02  0.51100000000E-03 0. -1.
        -11    1    3    3    0    0 -0.79424075056E+01 -0.35732192750E+01 -0.16582327524E+02  0.18730278144E+02  0.51100000000E-03 0.  1.
        -12    1    3    3    0    0  0.14602798405E+01  0.34608100623E+00  0.12689900452E+01  0.19653307636E+01  0.00000000000E+00 0.  1.
</event>
<event>
 7    1  0.2942034E-011  0.5052886E+02  0.7816164E-02  0.1300439E+00
        -11   -1    0    0    0    0  0.00000000000E+00  0.00000000000E+00  0.45593999997E+02  0.45594000000E+02  0.51100000000E-03 0.  1.
         11   -1    0    0    0    0 -0.00000000000E+00 -0.00000000000E+00 -0.45593999997E+02  0.45594000000E+02  0.51100000000E-03 0. -1.
    9900012    2    1    2    0    0 -0.16575709151E+02  0.18128652810E+01  0.37082681110E+02  0.50528857698E+02  0.29999993460E+02 0.  0.
         12    1    1    2    0    0  0.16575709151E+02 -0.18128652810E+01 -0.37082681110E+02  0.40659142302E+02  0.00000000000E+00 0. -1.
         11    1    3    3    0    0  0.79693093866E+01 -0.57358469284E+00  0.91102874594E+01  0.12117599983E+02  0.51100000000E-03 0. -1.
        -11    1    3    3    0    0 -0.18660992161E+02 -0.22426837694E+01  0.19001424579E+02  0.26726698173E+02  0.51100000000E-03 0.  1.
         12    1    3    3    0    0 -0.58840263766E+01  0.46291337433E+01  0.89709690717E+01  0.11684559542E+02  0.00000000000E+00 0. -1.
</event>
<event>
 7    1  0.2942034E-011  0.5052886E+02  0.7816164E-02  0.1300439E+00
        -11   -1    0    0    0    0  0.00000000000E+00  0.00000000000E+00  0.45593999997E+02  0.45594000000E+02  0.51100000000E-03 0. -1.
         11   -1    0    0    0    0 -0.00000000000E+00 -0.00000000000E+00 -0.45593999997E+02  0.45594000000E+02  0.51100000000E-03 0.  1.
    9900012    2    1    2    0    0 -0.40373659236E+01  0.39638782722E+02  0.81013907033E+01  0.50528856494E+02  0.29999989799E+02 0.  0.
         12    1    1    2    0    0  0.40373659236E+01 -0.39638782722E+02 -0.81013907033E+01  0.40659143506E+02  0.00000000000E+00 0. -1.
         11    1    3    3    0    0 -0.24973893598E+01  0.32015970617E+00 -0.22591883379E+01  0.33828077183E+01  0.51100000000E-03 0. -1.
        -11    1    3    3    0    0 -0.53179389439E+01  0.35841960516E+02  0.74079433233E+00  0.36241900953E+02  0.51100000000E-03 0.  1.
        -12    1    3    3    0    0  0.37779623800E+01  0.34766625006E+01  0.96197847089E+01  0.10904147822E+02  0.00000000000E+00 0.  1.
</event>
<event>
 7    1  0.2942034E-011  0.5052886E+02  0.7816164E-02  0.1300439E+00
        -11   -1    0    0    0    0  0.00000000000E+00  0.00000000000E+00  0.45593999997E+02  0.45594000000E+02  0.51100000000E-03 0.  1.
         11   -1    0    0    0    0 -0.00000000000E+00 -0.00000000000E+00 -0.45593999997E+02  0.45594000000E+02  0.51100000000E-03 0. -1.
    9900012    2    1    2    0    0  0.12453943395E+02 -0.19055588954E+02  0.33689014365E+02  0.50528857543E+02  0.29999992987E+02 0.  0.
         12    1    1    2    0    0 -0.12453943395E+02  0.19055588954E+02 -0.33689014365E+02  0.40659142457E+02  0.00000000000E+00 0. -1.
         11    1    3    3    0    0  0.12590977465E+02 -0.25382767826E+02  0.23949629463E+02  0.37099897139E+02  0.51100000000E-03 0. -1.
        -11    1    3    3    0    0 -0.56627264940E+00  0.33524454534E+01  0.98511319682E+01  0.10421341399E+02  0.51100000000E-03 0.  1.
         12    1    3    3    0    0  0.42923857922E+00  0.29747334190E+01 -0.11174706616E+00  0.30076190049E+01  0.00000000000E+00 0. -1.
</event>
<event>
 7    1  0.2942034E-011  0.5052885E+02  0.7816164E-02  0.1300439E+00
        -11   -1    0    0    0    0  0.00000000000E+00  0.00000000000E+00  0.45593999997E+02  0.45594000000E+02  0.51100000000E-03 0. -1.
         11   -1    0    0    0    0 -0.00000000000E+00 -0.00000000000E+00 -0.45593999997E+02  0.45594000000E+02  0.51100000000E-03 0.  1.
    9900012    2    1    2    0    0  0.18384570328E+01 -0.39930720001E+02 -0.74379942795E+01  0.50528854867E+02  0.29999984852E+02 0.  0.
         12    1    1    2    0    0 -0.18384570328E+01  0.39930720001E+02  0.74379942795E+01  0.40659145133E+02  0.00000000000E+00 0. -1.
         11    1    3    3    0    0  0.12004582417E+02 -0.18108296464E+02  0.38813504112E+01  0.22070008634E+02  0.51100000000E-03 0. -1.
        -11    1    3    3    0    0 -0.11385523593E+02 -0.16690212397E+02 -0.62642243044E+01  0.21152632076E+02  0.51100000000E-03 0.  1.
         12    1    3    3    0    0  0.12193982093E+01 -0.51322111406E+01 -0.50551203863E+01  0.73062141567E+01  0.00000000000E+00 0. -1.
</event>
<event>
 7    1  0.2942034E-011  0.5052885E+02  0.7816164E-02  0.1300439E+00
        -11   -1    0    0    0    0  0.00000000000E+00  0.00000000000E+00  0.45593999997E+02  0.45594000000E+02  0.51100000000E-03 0.  1.
         11   -1    0    0    0    0 -0.00000000000E+00 -0.00000000000E+00 -0.45593999997E+02  0.45594000000E+02  0.51100000000E-03 0. -1.
    9900012    2    1    2    0    0 -0.20972903328E+02  0.92392719886E+01  0.33584807594E+02  0.50528854386E+02  0.29999983392E+02 0.  0.
         12    1    1    2    0    0  0.20972903328E+02 -0.92392719886E+01 -0.33584807594E+02  0.40659145614E+02  0.00000000000E+00 0. -1.
         11    1    3    3    0    0  0.36581771387E+01 -0.81442604183E+00 -0.11885253835E+01  0.39316844487E+01  0.51100000000E-03 0. -1.
        -11    1    3    3    0    0 -0.17794077543E+02  0.92097631856E+01  0.13307023259E+02  0.24052563311E+02  0.51100000000E-03 0.  1.
        -12    1    3    3    0    0 -0.68370029235E+01  0.84393484484E+00  0.21466309719E+02  0.22544606627E+02  0.00000000000E+00 0.  1.
</event>
<event>
 7    1  0.2942034E-011  0.5052886E+02  0.7816164E-02  0.1300439E+00
        -11   -1    0    0    0    0  0.00000000000E+00  0.00000000000E+00  0.45593999997E+02  0.45594000000E+02  0.51100000000E-03 0.  1.
         11   -1    0    0    0    0 -0.00000000000E+00 -0.00000000000E+00 -0.45593999997E+02  0.45594000000E+02  0.51100000000E-03 0. -1.
    9900012    2    1    2    0    0 -0.78114559437E+01 -0.10824706020E+02  0.38405369346E+02  0.50528862049E+02  0.30000006683E+02 0.  0.
         12    1    1    2    0    0  0.78114559437E+01  0.10824706020E+02 -0.38405369346E+02  0.40659137951E+02  0.00000000000E+00 0. -1.
         11    1    3    3    0    0  0.71854282744E+01 -0.52038736416E+01  0.35766523005E+01  0.95657264389E+01  0.51100000000E-03 0. -1.
        -11    1    3    3    0    0 -0.16230571126E+02 -0.75103238789E+00  0.29219820771E+02  0.33433417637E+02  0.51100000000E-03 0.  1.
        -12    1    3    3    0    0  0.12336869084E+01 -0.48697999905E+01  0.56088962736E+01  0.75297179724E+01  0.00000000000E+00 0.  1.
</event>
<event>
 7    1  0.2942034E-011  0.5052886E+02  0.7816164E-02  0.1300439E+00
        -11   -1    0    0    0    0  0.00000000000E+00  0.00000000000E+00  0.45593999997E+02  0.45594000000E+02  0.51100000000E-03 0. -1.
         11   -1    0    0    0    0 -0.00000000000E+00 -0.00000000000E+00 -0.45593999997E+02  0.45594000000E+02  0.51100000000E-03 0.  1.
    9900012    2    1    2    0    0  0.80639908077E+01 -0.38434384613E+02  0.10532596276E+02  0.50528862618E+02  0.30000008413E+02 0.  0.
         12    1    1    2    0    0 -0.80639908077E+01  0.38434384613E+02 -0.10532596276E+02  0.40659137382E+02  0.00000000000E+00 0. -1.
         11    1    3    3    0    0 -0.16670982863E+01 -0.26024220354E+02  0.64055975604E+01  0.26852764143E+02  0.51100000000E-03 0. -1.
        -11    1    3    3    0    0  0.14376686187E+02 -0.64587686477E+01  0.26156786030E+01  0.15976438057E+02  0.51100000000E-03 0.  1.
        -12    1    3    3    0    0 -0.46455970932E+01 -0.59513956116E+01  0.15113201122E+01  0.76996604184E+01  0.00000000000E+00 0.  1.
</event>
<event>
 7    1  0.2942034E-011  0.5052886E+02  0.7816164E-02  0.1300439E+00
        -11   -1    0    0    0    0  0.00000000000E+00  0.00000000000E+00  0.45593999997E+02  0.45594000000E+02  0.51100000000E-03 0. -1.
         11   -1    0    0    0    0 -0.00000000000E+00 -0.00000000000E+00 -0.45593999997E+02  0.45594000000E+02  0.51100000000E-03 0.  1.
    9900012    2    1    2    0    0 -0.15563136851E+02 -0.20411827143E+02 -0.31532704581E+02  0.50528863583E+02  0.30000011347E+02 0.  0.
         12    1    1    2    0    0  0.15563136851E+02  0.20411827143E+02  0.31532704581E+02  0.40659136417E+02  0.00000000000E+00 0. -1.
         11    1    3    3    0    0 -0.12628335545E+02 -0.44067032638E+01 -0.47133611596E+01  0.14181313972E+02  0.51100000000E-03 0. -1.
        -11    1    3    3    0    0  0.71162002210E+01 -0.26482037711E+01 -0.61946833964E+01  0.97993566850E+01  0.51100000000E-03 0.  1.
        -12    1    3    3    0    0 -0.10051001528E+02 -0.13356920108E+02 -0.20624660025E+02  0.26548192926E+02  0.00000000000E+00 0.  1.
</event>
<event>
 7    1  0.2942034E-011  0.5052887E+02  0.7816164E-02  0.1300439E+00
        -11   -1    0    0    0    0  0.00000000000E+00  0.00000000000E+00  0.45593999997E+02  0.45594000000E+02  0.51100000000E-03 0.  1.
         11   -1    0    0    0    0 -0.00000000000E+00 -0.00000000000E+00 -0.45593999997E+02  0.45594000000E+02  0.51100000000E-03 0. -1.
    9900012    2    1    2    0    0  0.23453561834E+02  0.25318314926E+02  0.21496010382E+02  0.50528867007E+02  0.30000021755E+02 0.  0.
         12    1    1    2    0    0 -0.23453561834E+02 -0.25318314926E+02 -0.21496010382E+02  0.40659132993E+02  0.00000000000E+00 0. -1.
         11    1    3    3    0    0  0.28331560878E+01 -0.30139509277E+01  0.81430470337E+01  0.91334489032E+01  0.51100000000E-03 0. -1.
        -11    1    3    3    0    0  0.53942437857E+01  0.21919613660E+02  0.63388236105E+01  0.23446705825E+02  0.51100000000E-03 0.  1.
         12    1    3    3    0    0  0.15226161961E+02  0.64126521940E+01  0.70141397376E+01  0.17948712279E+02  0.00000000000E+00 0. -1.
</event>
<event>
 7    1  0.2942034E-011  0.5052885E+02  0.7816164E-02  0.1300439E+00
        -11   -1    0    0    0    0  0.00000000000E+00  0.00000000000E+00  0.45593999997E+02  0.45594000000E+02  0.51100000000E-03 0.  1.
         11   -1    0    0    0    0 -0.00000000000E+00 -0.00000000000E+00 -0.45593999997E+02  0.45594000000E+02  0.51100000000E-03 0. -1.
    9900012    2    1    2    0    0  0.18194462447E+02  0.35654651852E+02  0.71326082355E+01  0.50528846508E+02  0.29999959447E+02 0.  0.
         12    1    1    2    0    0 -0.18194462447E+02 -0.35654651852E+02 -0.71326082355E+01  0.40659153492E+02  0.00000000000E+00 0. -1.
         11    1    3    3    0    0  0.71260270640E+01  0.29564416648E+02 -0.39643257536E+01  0.30668401856E+02  0.51100000000E-03 0. -1.
        -11    1    3    3    0    0 -0.18511413813E+01  0.28065016382E+00  0.30216942366E+01  0.35547327957E+01  0.51100000000E-03 0.  1.
         12    1    3    3    0    0  0.12919576764E+02  0.58095850403E+01  0.80752397525E+01  0.16305711857E+02  0.00000000000E+00 0. -1.
</event>
<event>
 7    1  0.2942034E-011  0.5052892E+02  0.7816164E-02  0.1300439E+00
        -11   -1    0    0    0    0  0.00000000000E+00  0.00000000000E+00  0.45593999997E+02  0.45594000000E+02  0.51100000000E-03 0. -1.
         11   -1    0    0    0    0 -0.00000000000E+00 -0.00000000000E+00 -0.45593999997E+02  0.45594000000E+02  0.51100000000E-03 0.  1.
    9900012    2    1    2    0    0  0.28435500326E+02 -0.10774931438E+02 -0.26990449004E+02  0.50528915360E+02  0.30000168729E+02 0.  0.
         12    1    1    2    0    0 -0.28435500326E+02  0.10774931438E+02  0.26990449004E+02  0.40659084640E+02  0.00000000000E+00 0. -1.
         11    1    3    3    0    0 -0.15275324120E+01 -0.13083646840E+01  0.23198502926E+01  0.30703223051E+01  0.51100000000E-03 0. -1.
        -11    1    3    3    0    0  0.17929869719E+02 -0.87066674025E+01 -0.29256943116E+02  0.35401341870E+02  0.51100000000E-03 0.  1.
        -12    1    3    3    0    0  0.12033163019E+02 -0.75989935174E+00 -0.53356180548E-01  0.12057251186E+02  0.00000000000E+00 0.  1.
</event>
<event>
 7    1  0.2942034E-011  0.5052885E+02  0.7816164E-02  0.1300439E+00
        -11   -1    0    0    0    0  0.00000000000E+00  0.00000000000E+00  0.45593999997E+02  0.45594000000E+02  0.51100000000E-03 0.  1.
         11   -1    0    0    0    0 -0.00000000000E+00 -0.00000000000E+00 -0.45593999997E+02  0.45594000000E+02  0.51100000000E-03 0. -1.
    9900012    2    1    2    0    0 -0.28054494562E+02 -0.13395782197E+02  0.26204297609E+02  0.50528845324E+02  0.29999955847E+02 0.  0.
         12    1    1    2    0    0  0.28054494562E+02  0.13395782197E+02 -0.26204297609E+02  0.40659154676E+02  0.00000000000E+00 0. -1.
         11    1    3    3    0    0 -0.17885800453E+01  0.63844355173E+01  0.11147754250E+01  0.67232997822E+01  0.51100000000E-03 0. -1.
        -11    1    3    3    0    0 -0.13077571927E+02 -0.82552251159E+01  0.20537534887E+02  0.25709180631E+02  0.51100000000E-03 0.  1.
         12    1    3    3    0    0 -0.13188342590E+02 -0.11524992598E+02  0.45519872977E+01  0.18096364911E+02  0.00000000000E+00 0. -1.
</event>
<event>
 7    1  0.2942034E-011  0.5052884E+02  0.7816164E-02  0.1300439E+00
        -11   -1    0    0    0    0  0.00000000000E+00  0.00000000000E+00  0.45593999997E+02  0.45594000000E+02  0.51100000000E-03 0.  1.
         11   -1    0    0    0    0 -0.00000000000E+00 -0.00000000000E+00 -0.45593999997E+02  0.45594000000E+02  0.51100000000E-03 0. -1.
    9900012    2    1    2    0    0  0.20171471287E+02  0.12123159481E+02 -0.33155811146E+02  0.50528842822E+02  0.29999948242E+02 0.  0.
         12    1    1    2    0    0 -0.20171471287E+02 -0.12123159481E+02  0.33155811146E+02  0.40659157178E+02  0.00000000000E+00 0. -1.
         11    1    3    3    0    0 -0.41822344535E+01 -0.25319869118E+01 -0.68027925327E+01  0.83773521622E+01  0.51100000000E-03 0. -1.
        -11    1    3    3    0    0  0.76269160204E+01  0.14107781406E+02 -0.11065412288E+02  0.19484421817E+02  0.51100000000E-03 0.  1.
         12    1    3    3    0    0  0.16726789720E+02  0.54736498646E+00 -0.15287606325E+02  0.22667068843E+02  0.00000000000E+00 0. -1.
</event>
<event>
 7    1  0.2942034E-011  0.5052886E+02  0.7816164E-02  0.1300439E+00
        -11   -1    0    0    0    0  0.00000000000E+00  0.00000000000E+00  0.45593999997E+02  0.45594000000E+02  0.51100000000E-03 0. -1.
         11   -1    0    0    0    0 -0.00000000000E+00 -0.00000000000E+00 -0.45593999997E+02  0.45594000000E+02  0.51100000000E-03 0.  1.
    9900012    2    1    2    0    0 -0.13542842776E+02 -0.63304679975E+01 -0.37811142417E+02  0.50528857038E+02  0.29999991452E+02 0.  0.
         12    1    1    2    0    0  0.13542842776E+02  0.63304679975E+01  0.37811142417E+02  0.40659142962E+02  0.00000000000E+00 0. -1.
         11    1    3    3    0    0  0.52055346337E+01  0.21259858452E+01 -0.35801612483E+01  0.66659554050E+01  0.51100000000E-03 0. -1.
        -11    1    3    3    0    0 -0.13110806855E+02 -0.12918282718E+02 -0.16458372962E+02  0.24691158855E+02  0.51100000000E-03 0.  1.
        -12    1    3    3    0    0 -0.56375705546E+01  0.44618288757E+01 -0.17772608207E+02  0.19171742778E+02  0.00000000000E+00 0.  1.
</event>
<event>
 7    1  0.2942034E-011  0.5052886E+02  0.7816164E-02  0.1300439E+00
        -11   -1    0    0    0    0  0.00000000000E+00  0.00000000000E+00  0.45593999997E+02  0.45594000000E+02  0.51100000000E-03 0. -1.
         11   -1    0    0    0    0 -0.00000000000E+00 -0.00000000000E+00 -0.45593999997E+02  0.45594000000E+02  0.51100000000E-03 0.  1.
    9900012    2    1    2    0    0  0.17038586520E+02  0.32731061592E+02 -0.17074255578E+02  0.50528855553E+02  0.29999986940E+02 0.  0.
         12    1    1    2    0    0 -0.17038586520E+02 -0.32731061592E+02  0.17074255578E+02  0.40659144447E+02  0.00000000000E+00 0. -1.
         11    1    3    3    0    0  0.16231567233E+02  0.17527469143E+01 -0.77243036635E+01  0.18061028872E+02  0.51100000000E-03 0. -1.
        -11    1    3    3    0    0  0.79611246992E+00  0.23465068492E+02 -0.81873447049E+01  0.24865153287E+02  0.51100000000E-03 0.  1.
        -12    1    3    3    0    0  0.10906817359E-01  0.75132461857E+01 -0.11626072100E+01  0.76026733936E+01  0.00000000000E+00 0.  1.
</event>
<event>
 7    1  0.2942034E-011  0.5052886E+02  0.7816164E-02  0.1300439E+00
        -11   -1    0    0    0    0  0.00000000000E+00  0.00000000000E+00  0.45593999997E+02  0.45594000000E+02  0.51100000000E-03 0.  1.
         11   -1    0    0    0    0 -0.00000000000E+00 -0.00000000000E+00 -0.45593999997E+02  0.45594000000E+02  0.51100000000E-03 0. -1.
    9900012    2    1    2    0    0  0.15025457253E+02  0.27329146342E+00  0.37779976921E+02  0.50528859453E+02  0.29999998792E+02 0.  0.
         12    1    1    2    0    0 -0.15025457253E+02 -0.27329146342E+00 -0.37779976921E+02  0.40659140547E+02  0.00000000000E+00 0. -1.
         11    1    3    3    0    0 -0.66999657684E+01  0.32989160256E+01  0.19103697892E+01  0.77085602569E+01  0.51100000000E-03 0. -1.
        -11    1    3    3    0    0  0.20500538140E+02 -0.19233326750E+01  0.27861445372E+02  0.34644356122E+02  0.51100000000E-03 0.  1.
        -12    1    3    3    0    0  0.12248848814E+01 -0.11022918872E+01  0.80081617599E+01  0.81759430740E+01  0.00000000000E+00 0.  1.
</event>
<event>
 7    1  0.2942034E-011  0.5052887E+02  0.7816164E-02  0.1300439E+00
        -11   -1    0    0    0    0  0.00000000000E+00  0.00000000000E+00  0.45593999997E+02  0.45594000000E+02  0.51100000000E-03 0.  1.
         11   -1    0    0    0    0 -0.00000000000E+00 -0.00000000000E+00 -0.45593999997E+02  0.45594000000E+02  0.51100000000E-03 0. -1.
    9900012    2    1    2    0    0 -0.44393065426E+01 -0.22845123108E+02  0.33340029866E+02  0.50528872072E+02  0.30000037151E+02 0.  0.
         12    1    1    2    0    0  0.44393065426E+01  0.22845123108E+02 -0.33340029866E+02  0.40659127928E+02  0.00000000000E+00 0. -1.
         11    1    3    3    0    0 -0.17720231325E+01  0.34458598982E+01  0.33986490411E+01  0.51541082629E+01  0.51100000000E-03 0. -1.
        -11    1    3    3    0    0  0.30271544472E+01 -0.25288456178E+02  0.30299183110E+02  0.39581689925E+02  0.51100000000E-03 0.  1.
        -12    1    3    3    0    0 -0.56944378573E+01 -0.10025268279E+01 -0.35780228568E+00  0.57930738841E+01  0.00000000000E+00 0.  1.
</event>
<event>
 7    1  0.2942034E-011  0.5052886E+02  0.7816164E-02  0.1300439E+00
        -11   -1    0    0    0    0  0.00000000000E+00  0.00000000000E+00  0.45593999997E+02  0.45594000000E+02  0.51100000000E-03 0. -1.
         11   -1    0    0    0    0 -0.00000000000E+00 -0.00000000000E+00 -0.45593999997E+02  0.45594000000E+02  0.51100000000E-03 0.  1.
    9900012    2    1    2    0    0  0.23857578357E+02  0.50875185491E+01 -0.32528436071E+02  0.50528855355E+02  0.29999986336E+02 0.  0.
         12    1    1    2    0    0 -0.23857578357E+02 -0.50875185491E+01  0.32528436071E+02  0.40659144645E+02  0.00000000000E+00 0. -1.
         11    1    3    3    0    0  0.38107812125E+01 -0.46018435756E+01  0.10471404146E+01  0.60659311777E+01  0.51100000000E-03 0. -1.
        -11    1    3    3    0    0  0.23154400435E+02  0.11001058763E+02 -0.28140507143E+02  0.38066227761E+02  0.51100000000E-03 0.  1.
         12    1    3    3    0    0 -0.31076032900E+01 -0.13116966384E+01 -0.54350693430E+01  0.63966964163E+01  0.00000000000E+00 0. -1.
</event>
<event>
 7    1  0.2942034E-011  0.5052886E+02  0.7816164E-02  0.1300439E+00
        -11   -1    0    0    0    0  0.00000000000E+00  0.00000000000E+00  0.45593999997E+02  0.45594000000E+02  0.51100000000E-03 0.  1.
         11   -1    0    0    0    0 -0.00000000000E+00 -0.00000000000E+00 -0.45593999997E+02  0.45594000000E+02  0.51100000000E-03 0. -1.
    9900012    2    1    2    0    0  0.29659304950E+02 -0.10277434820E+01  0.27792721314E+02  0.50528856074E+02  0.29999988522E+02 0.  0.
         12    1    1    2    0    0 -0.29659304950E+02  0.10277434820E+01 -0.27792721314E+02  0.40659143926E+02  0.00000000000E+00 0. -1.
         11    1    3    3    0    0  0.10410270855E+02 -0.51293498021E+01  0.22125624368E+02  0.24984539672E+02  0.51100000000E-03 0. -1.
        -11    1    3    3    0    0  0.13439485750E+02  0.99057311315E+01  0.38194297708E+01  0.17126918302E+02  0.51100000000E-03 0.  1.
         12    1    3    3    0    0  0.58095483442E+01 -0.58041248114E+01  0.18476671752E+01  0.84173981004E+01  0.00000000000E+00 0. -1.
</event>
<event>
 7    1  0.2942034E-011  0.5052886E+02  0.7816164E-02  0.1300439E+00
        -11   -1    0    0    0    0  0.00000000000E+00  0.00000000000E+00  0.45593999997E+02  0.45594000000E+02  0.51100000000E-03 0. -1.
         11   -1    0    0    0    0 -0.00000000000E+00 -0.00000000000E+00 -0.45593999997E+02  0.45594000000E+02  0.51100000000E-03 0.  1.
    9900012    2    1    2    0    0  0.31607518052E+02  0.16440782493E+02 -0.19591608652E+02  0.50528860118E+02  0.30000000815E+02 0.  0.
         12    1    1    2    0    0 -0.31607518052E+02 -0.16440782493E+02  0.19591608652E+02  0.40659139882E+02  0.00000000000E+00 0. -1.
         11    1    3    3    0    0  0.18924824859E+02  0.13136826761E+02  0.13756549375E+01  0.23078510352E+02  0.51100000000E-03 0. -1.
        -11    1    3    3    0    0  0.75581985622E+01  0.72377574747E+01 -0.87943623176E+01  0.13669393096E+02  0.51100000000E-03 0.  1.
         12    1    3    3    0    0  0.51244946303E+01 -0.39338017434E+01 -0.12172901272E+02  0.13780956670E+02  0.00000000000E+00 0. -1.
</event>
<event>
 7    1  0.2942034E-011  0.5052887E+02  0.7816164E-02  0.1300439E+00
        -11   -1    0    0    0    0  0.00000000000E+00  0.00000000000E+00  0.45593999997E+02  0.45594000000E+02  0.51100000000E-03 0.  1.
         11   -1    0    0    0    0 -0.00000000000E+00 -0.00000000000E+00 -0.45593999997E+02  0.45594000000E+02  0.51100000000E-03 0. -1.
    9900012    2    1    2    0    0 -0.38138301520E+02  0.75624516013E+01  0.11893012677E+02  0.50528874732E+02  0.30000045235E+02 0.  0.
         12    1    1    2    0    0  0.38138301520E+02 -0.75624516013E+01 -0.11893012677E+02  0.40659125268E+02  0.00000000000E+00 0. -1.
         11    1    3    3    0    0 -0.14773286288E+02  0.69974891895E+00 -0.50337860227E+01  0.15623016299E+02  0.51100000000E-03 0. -1.
        -11    1    3    3    0    0 -0.22778023666E+02  0.85369232340E+01  0.19910339293E+02  0.31434678803E+02  0.51100000000E-03 0.  1.
        -12    1    3    3    0    0 -0.58699156653E+00 -0.16742205516E+01 -0.29835405932E+01  0.34711796303E+01  0.00000000000E+00 0.  1.
</event>
<event>
 7    1  0.2942034E-011  0.5052886E+02  0.7816164E-02  0.1300439E+00
        -11   -1    0    0    0    0  0.00000000000E+00  0.00000000000E+00  0.45593999997E+02  0.45594000000E+02  0.51100000000E-03 0.  1.
         11   -1    0    0    0    0 -0.00000000000E+00 -0.00000000000E+00 -0.45593999997E+02  0.45594000000E+02  0.51100000000E-03 0. -1.
    9900012    2    1    2    0    0  0.29840315451E+02 -0.21384936226E+02  0.17475858667E+02  0.50528861301E+02  0.30000004410E+02 0.  0.
         12    1    1    2    0    0 -0.29840315451E+02  0.21384936226E+02 -0.17475858667E+02  0.40659138699E+02  0.00000000000E+00 0. -1.
         11    1    3    3    0    0  0.42927559802E+01  0.31223608400E+01 -0.13631904793E+01  0.54804360834E+01  0.51100000000E-03 0. -1.
        -11    1    3    3    0    0  0.23224902622E+02 -0.23143841683E+02  0.23029332012E+02  0.40067239022E+02  0.51100000000E-03 0.  1.
        -12    1    3    3    0    0  0.23226568492E+01 -0.13634553827E+01 -0.41902828659E+01  0.49811861957E+01  0.00000000000E+00 0.  1.
</event>
<event>
 7    1  0.2942034E-011  0.5052889E+02  0.7816164E-02  0.1300439E+00
        -11   -1    0    0    0    0  0.00000000000E+00  0.00000000000E+00  0.45593999997E+02  0.45594000000E+02  0.51100000000E-03 0.  1.
         11   -1    0    0    0    0 -0.00000000000E+00 -0.00000000000E+00 -0.45593999997E+02  0.45594000000E+02  0.51100000000E-03 0. -1.
    9900012    2    1    2    0    0  0.23012179621E+02  0.16405861233E+02  0.29230992180E+02  0.50528885431E+02  0.30000077757E+02 0.  0.
         12    1    1    2    0    0 -0.23012179621E+02 -0.16405861233E+02 -0.29230992180E+02  0.40659114569E+02  0.00000000000E+00 0. -1.
         11    1    3    3    0    0 -0.16484297804E+01  0.79688816654E+01  0.26653852759E+01  0.85629828137E+01  0.51100000000E-03 0. -1.
        -11    1    3    3    0    0  0.19631471404E+02  0.63933010466E+01  0.29334704867E+02  0.35871909311E+02  0.51100000000E-03 0.  1.
        -12    1    3    3    0    0  0.50291379972E+01  0.20436785206E+01 -0.27690979626E+01  0.60939933062E+01  0.00000000000E+00 0.  1.
</event>
<event>
 7    1  0.2942034E-011  0.5052887E+02  0.7816164E-02  0.1300439E+00
        -11   -1    0    0    0    0  0.00000000000E+00  0.00000000000E+00  0.45593999997E+02  0.45594000000E+02  0.51100000000E-03 0. -1.
         11   -1    0    0    0    0 -0.00000000000E+00 -0.00000000000E+00 -0.45593999997E+02  0.45594000000E+02  0.51100000000E-03 0.  1.
    9900012    2    1    2    0    0 -0.15336473402E+02  0.37622625151E+02 -0.15796932390E+01  0.50528871008E+02  0.30000033915E+02 0.  0.
         12    1    1    2    0    0  0.15336473402E+02 -0.37622625151E+02  0.15796932390E+01  0.40659128992E+02  0.00000000000E+00 0. -1.
         11    1    3    3    0    0  0.70848597751E+01  0.62044438594E+01 -0.40607017898E+01  0.10255713575E+02  0.51100000000E-03 0. -1.
        -11    1    3    3    0    0 -0.15486685395E+02  0.13216677561E+02  0.39526732414E+01  0.20739855744E+02  0.51100000000E-03 0.  1.
        -12    1    3    3    0    0 -0.69346477821E+01  0.18201503731E+02 -0.14716646906E+01  0.19533301689E+02  0.00000000000E+00 0.  1.
</event>
<event>
 7    1  0.2942034E-011  0.5052890E+02  0.7816164E-02  0.1300439E+00
        -11   -1    0    0    0    0  0.00000000000E+00  0.00000000000E+00  0.45593999997E+02  0.45594000000E+02  0.51100000000E-03 0. -1.
         11   -1    0    0    0    0 -0.00000000000E+00 -0.00000000000E+00 -0.45593999997E+02  0.45594000000E+02  0.51100000000E-03 0.  1.
    9900012    2    1    2    0    0  0.31657295094E+02 -0.81037473992E+01 -0.24193133585E+02  0.50528895641E+02  0.30000108790E+02 0.  0.
         12    1    1    2    0    0 -0.31657295094E+02  0.81037473992E+01  0.24193133585E+02  0.40659104359E+02  0.00000000000E+00 0. -1.
         11    1    3    3    0    0  0.10800206446E+02  0.76253680628E+00 -0.12195902610E+02  0.16308462907E+02  0.51100000000E-03 0. -1.
        -11    1    3    3    0    0  0.11416496698E+01 -0.11416361918E+02 -0.78804104655E+01  0.13918963783E+02  0.51100000000E-03 0.  1.
        -12    1    3    3    0    0  0.19715438979E+02  0.25500777128E+01 -0.41168205097E+01  0.20301468951E+02  0.00000000000E+00 0.  1.
</event>
<event>
 7    1  0.2942034E-011  0.5052887E+02  0.7816164E-02  0.1300439E+00
        -11   -1    0    0    0    0  0.00000000000E+00  0.00000000000E+00  0.45593999997E+02  0.45594000000E+02  0.51100000000E-03 0.  1.
         11   -1    0    0    0    0 -0.00000000000E+00 -0.00000000000E+00 -0.45593999997E+02  0.45594000000E+02  0.51100000000E-03 0. -1.
    9900012    2    1    2    0    0 -0.84295311157E+01  0.32988082590E+01  0.39638692407E+02  0.50528867367E+02  0.30000022849E+02 0.  0.
         12    1    1    2    0    0  0.84295311157E+01 -0.32988082590E+01 -0.39638692407E+02  0.40659132633E+02  0.00000000000E+00 0. -1.
         11    1    3    3    0    0 -0.11276819698E+02 -0.23589888620E+01  0.22720489860E+02  0.25474539264E+02  0.51100000000E-03 0.  1.
        -11    1    3    3    0    0  0.87066310972E+01  0.38479189610E+01  0.32248008013E+01  0.10050435108E+02  0.51100000000E-03 0. -1.
         12    1    3    3    0    0 -0.58593425147E+01  0.18098781599E+01  0.13693401745E+02  0.15003892995E+02  0.00000000000E+00 0. -1.
</event>
<event>
 7    1  0.2942034E-011  0.5052886E+02  0.7816164E-02  0.1300439E+00
        -11   -1    0    0    0    0  0.00000000000E+00  0.00000000000E+00  0.45593999997E+02  0.45594000000E+02  0.51100000000E-03 0. -1.
         11   -1    0    0    0    0 -0.00000000000E+00 -0.00000000000E+00 -0.45593999997E+02  0.45594000000E+02  0.51100000000E-03 0.  1.
    9900012    2    1    2    0    0 -0.10738702611E+01 -0.17761305039E+02 -0.36558832219E+02  0.50528863668E+02  0.30000011607E+02 0.  0.
         12    1    1    2    0    0  0.10738702611E+01  0.17761305039E+02  0.36558832219E+02  0.40659136332E+02  0.00000000000E+00 0. -1.
         11    1    3    3    0    0 -0.94299988787E+01  0.17541397887E+01 -0.11063805941E+02  0.14642734971E+02  0.51100000000E-03 0. -1.
        -11    1    3    3    0    0  0.10433206211E+02 -0.14632711453E+02 -0.12617821287E+02  0.21958539355E+02  0.51100000000E-03 0.  1.
        -12    1    3    3    0    0 -0.20770775933E+01 -0.48827333744E+01 -0.12877204991E+02  0.13927589343E+02  0.00000000000E+00 0.  1.
</event>
<event>
 7    1  0.2942034E-011  0.5052885E+02  0.7816164E-02  0.1300439E+00
        -11   -1    0    0    0    0  0.00000000000E+00  0.00000000000E+00  0.45593999997E+02  0.45594000000E+02  0.51100000000E-03 0. -1.
         11   -1    0    0    0    0 -0.00000000000E+00 -0.00000000000E+00 -0.45593999997E+02  0.45594000000E+02  0.51100000000E-03 0.  1.
    9900012    2    1    2    0    0 -0.36556826628E+02  0.15730758172E+02 -0.83251432070E+01  0.50528851765E+02  0.29999975424E+02 0.  0.
         12    1    1    2    0    0  0.36556826628E+02 -0.15730758172E+02  0.83251432070E+01  0.40659148235E+02  0.00000000000E+00 0. -1.
         11    1    3    3    0    0 -0.36818323670E+01  0.62665502678E+01 -0.18358847558E+01  0.74964001318E+01  0.51100000000E-03 0. -1.
        -11    1    3    3    0    0 -0.22990272519E+01 -0.67426747778E+01 -0.43798354372E+01  0.83625443606E+01  0.51100000000E-03 0.  1.
        -12    1    3    3    0    0 -0.30575967009E+02  0.16206882682E+02 -0.21094230140E+01  0.34669907272E+02  0.00000000000E+00 0.  1.
</event>
<event>
 7    1  0.2942034E-011  0.5052886E+02  0.7816164E-02  0.1300439E+00
        -11   -1    0    0    0    0  0.00000000000E+00  0.00000000000E+00  0.45593999997E+02  0.45594000000E+02  0.51100000000E-03 0. -1.
         11   -1    0    0    0    0 -0.00000000000E+00 -0.00000000000E+00 -0.45593999997E+02  0.45594000000E+02  0.51100000000E-03 0.  1.
    9900012    2    1    2    0    0  0.26058841713E+02 -0.20653931597E+02 -0.23399092434E+02  0.50528860209E+02  0.30000001091E+02 0.  0.
         12    1    1    2    0    0 -0.26058841713E+02  0.20653931597E+02  0.23399092434E+02  0.40659139791E+02  0.00000000000E+00 0. -1.
         11    1    3    3    0    0  0.92295069359E+01 -0.58253317781E+01  0.38788351484E+01  0.11582903391E+02  0.51100000000E-03 0. -1.
        -11    1    3    3    0    0 -0.21475840930E+01 -0.96535157483E+00 -0.86286702649E+01  0.89441585351E+01  0.51100000000E-03 0.  1.
        -12    1    3    3    0    0  0.18976918870E+02 -0.13863248244E+02 -0.18649257318E+02  0.30001798282E+02  0.00000000000E+00 0.  1.
</event>
<event>
 7    1  0.2942034E-011  0.5052886E+02  0.7816164E-02  0.1300439E+00
        -11   -1    0    0    0    0  0.00000000000E+00  0.00000000000E+00  0.45593999997E+02  0.45594000000E+02  0.51100000000E-03 0.  1.
         11   -1    0    0    0    0 -0.00000000000E+00 -0.00000000000E+00 -0.45593999997E+02  0.45594000000E+02  0.51100000000E-03 0. -1.
    9900012    2    1    2    0    0 -0.16768341293E+02  0.18424091579E+00  0.37039900758E+02  0.50528862496E+02  0.30000008041E+02 0.  0.
         12    1    1    2    0    0  0.16768341293E+02 -0.18424091579E+00 -0.37039900758E+02  0.40659137504E+02  0.00000000000E+00 0. -1.
         11    1    3    3    0    0 -0.66859385360E+00 -0.11867334249E+02  0.61546931111E+01  0.13385099457E+02  0.51100000000E-03 0. -1.
        -11    1    3    3    0    0 -0.78720983025E+01  0.52876188424E+01  0.10533015891E+02  0.14172976707E+02  0.51100000000E-03 0.  1.
         12    1    3    3    0    0 -0.82276491366E+01  0.67639563220E+01  0.20352191756E+02  0.22970786332E+02  0.00000000000E+00 0. -1.
</event>
<event>
 7    1  0.2942034E-011  0.5052886E+02  0.7816164E-02  0.1300439E+00
        -11   -1    0    0    0    0  0.00000000000E+00  0.00000000000E+00  0.45593999997E+02  0.45594000000E+02  0.51100000000E-03 0.  1.
         11   -1    0    0    0    0 -0.00000000000E+00 -0.00000000000E+00 -0.45593999997E+02  0.45594000000E+02  0.51100000000E-03 0. -1.
    9900012    2    1    2    0    0 -0.18754028684E+01  0.30629370067E+02  0.26673773387E+02  0.50528860396E+02  0.30000001660E+02 0.  0.
         12    1    1    2    0    0  0.18754028684E+01 -0.30629370067E+02 -0.26673773387E+02  0.40659139604E+02  0.00000000000E+00 0. -1.
         11    1    3    3    0    0  0.10207376399E+02  0.72221505152E+01  0.63663825918E+01  0.14031422543E+02  0.51100000000E-03 0. -1.
        -11    1    3    3    0    0 -0.61729814182E+01  0.12924969141E+02  0.19820329776E+02  0.24454161192E+02  0.51100000000E-03 0.  1.
         12    1    3    3    0    0 -0.59097978494E+01  0.10482250411E+02  0.48706101916E+00  0.12043276661E+02  0.00000000000E+00 0. -1.
</event>
<event>
 7    1  0.2942034E-011  0.5052886E+02  0.7816164E-02  0.1300439E+00
        -11   -1    0    0    0    0  0.00000000000E+00  0.00000000000E+00  0.45593999997E+02  0.45594000000E+02  0.51100000000E-03 0. -1.
         11   -1    0    0    0    0 -0.00000000000E+00 -0.00000000000E+00 -0.45593999997E+02  0.45594000000E+02  0.51100000000E-03 0.  1.
    9900012    2    1    2    0    0  0.15082271693E+02 -0.24762439259E+02 -0.28504603243E+02  0.50528859287E+02  0.29999998289E+02 0.  0.
         12    1    1    2    0    0 -0.15082271693E+02  0.24762439259E+02  0.28504603243E+02  0.40659140713E+02  0.00000000000E+00 0. -1.
         11    1    3    3    0    0  0.86576755977E+01 -0.85847184568E+01 -0.27847382186E+02  0.30399497243E+02  0.51100000000E-03 0. -1.
        -11    1    3    3    0    0  0.21646069693E+01 -0.14124814106E+02 -0.33644110283E+01  0.14680434554E+02  0.51100000000E-03 0.  1.
         12    1    3    3    0    0  0.42599891258E+01 -0.20529066959E+01  0.27071899714E+01  0.54489274904E+01  0.00000000000E+00 0. -1.
</event>
<event>
 7    1  0.2942034E-011  0.5052885E+02  0.7816164E-02  0.1300439E+00
        -11   -1    0    0    0    0  0.00000000000E+00  0.00000000000E+00  0.45593999997E+02  0.45594000000E+02  0.51100000000E-03 0.  1.
         11   -1    0    0    0    0 -0.00000000000E+00 -0.00000000000E+00 -0.45593999997E+02  0.45594000000E+02  0.51100000000E-03 0. -1.
    9900012    2    1    2    0    0 -0.27817387557E+02  0.23413307069E+01  0.29561415879E+02  0.50528853566E+02  0.29999980899E+02 0.  0.
         12    1    1    2    0    0  0.27817387557E+02 -0.23413307069E+01 -0.29561415879E+02  0.40659146434E+02  0.00000000000E+00 0. -1.
         11    1    3    3    0    0 -0.12829821110E+02 -0.48062359618E+01 -0.15286610730E+01  0.13785536579E+02  0.51100000000E-03 0. -1.
        -11    1    3    3    0    0 -0.15199946917E+02  0.30947426858E+01  0.24100446336E+02  0.28660902505E+02  0.51100000000E-03 0.  1.
         12    1    3    3    0    0  0.21238046991E+00  0.40528239829E+01  0.69896306165E+01  0.80824144818E+01  0.00000000000E+00 0. -1.
</event>
<event>
 7    1  0.2942034E-011  0.5052884E+02  0.7816164E-02  0.1300439E+00
        -11   -1    0    0    0    0  0.00000000000E+00  0.00000000000E+00  0.45593999997E+02  0.45594000000E+02  0.51100000000E-03 0. -1.
         11   -1    0    0    0    0 -0.00000000000E+00 -0.00000000000E+00 -0.45593999997E+02  0.45594000000E+02  0.51100000000E-03 0.  1.
    9900012    2    1    2    0    0 -0.56896271820E+01 -0.37958232385E+02 -0.13415224422E+02  0.50528837323E+02  0.29999931528E+02 0.  0.
         12    1    1    2    0    0  0.56896271820E+01  0.37958232385E+02  0.13415224422E+02  0.40659162677E+02  0.00000000000E+00 0. -1.
         11    1    3    3    0    0  0.68300327548E+01 -0.18332890697E+02 -0.17304728969E+02  0.26118917927E+02  0.51100000000E-03 0. -1.
        -11    1    3    3    0    0 -0.86112990487E+01 -0.13344946743E+02 -0.34608789810E+00  0.15885901044E+02  0.51100000000E-03 0.  1.
         12    1    3    3    0    0 -0.39083608880E+01 -0.62803949459E+01  0.42355924455E+01  0.85240183524E+01  0.00000000000E+00 0. -1.
</event>
<event>
 7    1  0.2942034E-011  0.5052888E+02  0.7816164E-02  0.1300439E+00
        -11   -1    0    0    0    0  0.00000000000E+00  0.00000000000E+00  0.45593999997E+02  0.45594000000E+02  0.51100000000E-03 0.  1.
         11   -1    0    0    0    0 -0.00000000000E+00 -0.00000000000E+00 -0.45593999997E+02  0.45594000000E+02  0.51100000000E-03 0. -1.
    9900012    2    1    2    0    0 -0.30953878369E+02 -0.22781896448E+02  0.13266740943E+02  0.50528882854E+02  0.30000069923E+02 0.  0.
         12    1    1    2    0    0  0.30953878369E+02  0.22781896448E+02 -0.13266740943E+02  0.40659117146E+02  0.00000000000E+00 0. -1.
         11    1    3    3    0    0 -0.13665842122E+02 -0.16024611640E+02  0.15194313496E+02  0.25969416282E+02  0.51100000000E-03 0. -1.
        -11    1    3    3    0    0 -0.10083626675E+02 -0.51011142975E+01 -0.89102033579E+01  0.14390712913E+02  0.51100000000E-03 0.  1.
        -12    1    3    3    0    0 -0.72044095714E+01 -0.16561705111E+01  0.69826308048E+01  0.10168753660E+02  0.00000000000E+00 0.  1.
</event>
<event>
 7    1  0.2942034E-011  0.5052886E+02  0.7816164E-02  0.1300439E+00
        -11   -1    0    0    0    0  0.00000000000E+00  0.00000000000E+00  0.45593999997E+02  0.45594000000E+02  0.51100000000E-03 0.  1.
         11   -1    0    0    0    0 -0.00000000000E+00 -0.00000000000E+00 -0.45593999997E+02  0.45594000000E+02  0.51100000000E-03 0. -1.
    9900012    2    1    2    0    0 -0.40039398277E+02  0.68709122219E+01 -0.16741610453E+01  0.50528860014E+02  0.30000000500E+02 0.  0.
         12    1    1    2    0    0  0.40039398277E+02 -0.68709122219E+01  0.16741610453E+01  0.40659139986E+02  0.00000000000E+00 0. -1.
         11    1    3    3    0    0 -0.82075134650E+01 -0.34379369748E+01 -0.87732252282E+01  0.12496086151E+02  0.51100000000E-03 0. -1.
        -11    1    3    3    0    0 -0.25725261434E+02  0.60792441118E+01 -0.17349304240E+01  0.26490682677E+02  0.51100000000E-03 0.  1.
         12    1    3    3    0    0 -0.61066233779E+01  0.42296050849E+01  0.88339946070E+01  0.11542091187E+02  0.00000000000E+00 0. -1.
</event>
<event>
 7    1  0.2942034E-011  0.5052886E+02  0.7816164E-02  0.1300439E+00
        -11   -1    0    0    0    0  0.00000000000E+00  0.00000000000E+00  0.45593999997E+02  0.45594000000E+02  0.51100000000E-03 0. -1.
         11   -1    0    0    0    0 -0.00000000000E+00 -0.00000000000E+00 -0.45593999997E+02  0.45594000000E+02  0.51100000000E-03 0.  1.
    9900012    2    1    2    0    0 -0.61112461631E+01 -0.76975536610E+01 -0.39453341176E+02  0.50528858445E+02  0.29999995729E+02 0.  0.
         12    1    1    2    0    0  0.61112461631E+01  0.76975536610E+01  0.39453341176E+02  0.40659141555E+02  0.00000000000E+00 0. -1.
         11    1    3    3    0    0 -0.39705392299E+01  0.77320632748E+01 -0.17395027210E+02  0.19445743908E+02  0.51100000000E-03 0. -1.
        -11    1    3    3    0    0 -0.51188623813E+01 -0.85816011618E+01 -0.21361554743E+02  0.23583100981E+02  0.51100000000E-03 0.  1.
         12    1    3    3    0    0  0.29781554480E+01 -0.68480157740E+01 -0.69675922292E+00  0.75000135552E+01  0.00000000000E+00 0. -1.
</event>
<event>
 7    1  0.2942034E-011  0.5052886E+02  0.7816164E-02  0.1300439E+00
        -11   -1    0    0    0    0  0.00000000000E+00  0.00000000000E+00  0.45593999997E+02  0.45594000000E+02  0.51100000000E-03 0.  1.
         11   -1    0    0    0    0 -0.00000000000E+00 -0.00000000000E+00 -0.45593999997E+02  0.45594000000E+02  0.51100000000E-03 0. -1.
    9900012    2    1    2    0    0  0.14781734988E+02  0.33623930460E+02  0.17438386371E+02  0.50528859477E+02  0.29999998867E+02 0.  0.
         12    1    1    2    0    0 -0.14781734988E+02 -0.33623930460E+02 -0.17438386371E+02  0.40659140523E+02  0.00000000000E+00 0. -1.
         11    1    3    3    0    0 -0.37650150969E+01 -0.26348312087E+01  0.16326172294E+01  0.48767933581E+01  0.51100000000E-03 0. -1.
        -11    1    3    3    0    0  0.77828563918E+01  0.18006601191E+02  0.69967923854E+00  0.19629062417E+02  0.51100000000E-03 0.  1.
         12    1    3    3    0    0  0.10763893693E+02  0.18252160477E+02  0.15106089903E+02  0.26023003702E+02  0.00000000000E+00 0. -1.
</event>
<event>
 7    1  0.2942034E-011  0.5052885E+02  0.7816164E-02  0.1300439E+00
        -11   -1    0    0    0    0  0.00000000000E+00  0.00000000000E+00  0.45593999997E+02  0.45594000000E+02  0.51100000000E-03 0. -1.
         11   -1    0    0    0    0 -0.00000000000E+00 -0.00000000000E+00 -0.45593999997E+02  0.45594000000E+02  0.51100000000E-03 0.  1.
    9900012    2    1    2    0    0 -0.21168650808E+02  0.23330837314E+02 -0.25704603506E+02  0.50528851113E+02  0.29999973443E+02 0.  0.
         12    1    1    2    0    0  0.21168650808E+02 -0.23330837314E+02  0.25704603506E+02  0.40659148887E+02  0.00000000000E+00 0. -1.
         11    1    3    3    0    0 -0.21388618535E+02  0.10893539215E+02 -0.12183634155E+02  0.26918082045E+02  0.51100000000E-03 0. -1.
        -11    1    3    3    0    0  0.50249903147E+01 -0.71422930906E+00 -0.54585517812E+01  0.74536191865E+01  0.51100000000E-03 0.  1.
        -12    1    3    3    0    0 -0.48050225879E+01  0.13151527408E+02 -0.80624175694E+01  0.16157149882E+02  0.00000000000E+00 0.  1.
</event>
<event>
 7    1  0.2942034E-011  0.5052885E+02  0.7816164E-02  0.1300439E+00
        -11   -1    0    0    0    0  0.00000000000E+00  0.00000000000E+00  0.45593999997E+02  0.45594000000E+02  0.51100000000E-03 0.  1.
         11   -1    0    0    0    0 -0.00000000000E+00 -0.00000000000E+00 -0.45593999997E+02  0.45594000000E+02  0.51100000000E-03 0. -1.
    9900012    2    1    2    0    0  0.17754608583E+02  0.24035713118E+01  0.36498807458E+02  0.50528853098E+02  0.29999979476E+02 0.  0.
         12    1    1    2    0    0 -0.17754608583E+02 -0.24035713118E+01 -0.36498807458E+02  0.40659146902E+02  0.00000000000E+00 0. -1.
         11    1    3    3    0    0  0.20314785578E+01 -0.85605213282E+01  0.10007741416E+01  0.88549974413E+01  0.51100000000E-03 0. -1.
        -11    1    3    3    0    0  0.16111880176E+02  0.71966209244E+01  0.25752238216E+02  0.31217972530E+02  0.51100000000E-03 0.  1.
         12    1    3    3    0    0 -0.38875015097E+00  0.37674717155E+01  0.97457951004E+01  0.10455883126E+02  0.00000000000E+00 0. -1.
</event>
<event>
 7    1  0.2942034E-011  0.5052885E+02  0.7816164E-02  0.1300439E+00
        -11   -1    0    0    0    0  0.00000000000E+00  0.00000000000E+00  0.45593999997E+02  0.45594000000E+02  0.51100000000E-03 0.  1.
         11   -1    0    0    0    0 -0.00000000000E+00 -0.00000000000E+00 -0.45593999997E+02  0.45594000000E+02  0.51100000000E-03 0. -1.
    9900012    2    1    2    0    0 -0.12396594833E+01  0.24050234892E+02  0.32759970904E+02  0.50528852842E+02  0.29999978697E+02 0.  0.
         12    1    1    2    0    0  0.12396594833E+01 -0.24050234892E+02 -0.32759970904E+02  0.40659147158E+02  0.00000000000E+00 0. -1.
         11    1    3    3    0    0  0.62404129563E+00 -0.59666274126E+01  0.90848942896E+01  0.10886935966E+02  0.51100000000E-03 0. -1.
        -11    1    3    3    0    0  0.12759043242E+01  0.23687517658E+02  0.22060959597E+02  0.32394634791E+02  0.51100000000E-03 0.  1.
         12    1    3    3    0    0 -0.31396051032E+01  0.63293446469E+01  0.16141170180E+01  0.72472820844E+01  0.00000000000E+00 0. -1.
</event>
<event>
 7    1  0.2942034E-011  0.5052886E+02  0.7816164E-02  0.1300439E+00
        -11   -1    0    0    0    0  0.00000000000E+00  0.00000000000E+00  0.45593999997E+02  0.45594000000E+02  0.51100000000E-03 0.  1.
         11   -1    0    0    0    0 -0.00000000000E+00 -0.00000000000E+00 -0.45593999997E+02  0.45594000000E+02  0.51100000000E-03 0. -1.
    9900012    2    1    2    0    0 -0.21246717592E+02 -0.19866990653E+02  0.28408547576E+02  0.50528857100E+02  0.29999991640E+02 0.  0.
         12    1    1    2    0    0  0.21246717592E+02  0.19866990653E+02 -0.28408547576E+02  0.40659142900E+02  0.00000000000E+00 0. -1.
         11    1    3    3    0    0 -0.37218026099E+01  0.53356783159E+00  0.18078543056E+02  0.18465379189E+02  0.51100000000E-03 0. -1.
        -11    1    3    3    0    0 -0.17214294644E+02 -0.20798600999E+02  0.12560056613E+02  0.29776983830E+02  0.51100000000E-03 0.  1.
        -12    1    3    3    0    0 -0.31062033808E+00  0.39804251455E+00 -0.22300520941E+01  0.22864940806E+01  0.00000000000E+00 0.  1.
</event>
<event>
 7    1  0.2942034E-011  0.5052883E+02  0.7816164E-02  0.1300439E+00
        -11   -1    0    0    0    0  0.00000000000E+00  0.00000000000E+00  0.45593999997E+02  0.45594000000E+02  0.51100000000E-03 0.  1.
         11   -1    0    0    0    0 -0.00000000000E+00 -0.00000000000E+00 -0.45593999997E+02  0.45594000000E+02  0.51100000000E-03 0. -1.
    9900012    2    1    2    0    0 -0.89324256911E+01 -0.18764401631E+02  0.34946770552E+02  0.50528834130E+02  0.29999921820E+02 0.  0.
         12    1    1    2    0    0  0.89324256911E+01  0.18764401631E+02 -0.34946770552E+02  0.40659165870E+02  0.00000000000E+00 0. -1.
         11    1    3    3    0    0  0.77388051180E+00  0.21971602675E+01  0.21018145539E+00  0.23389272740E+01  0.51100000000E-03 0. -1.
        -11    1    3    3    0    0 -0.12183171786E+02 -0.24146501007E+02  0.34898611412E+02  0.44151967843E+02  0.51100000000E-03 0.  1.
        -12    1    3    3    0    0  0.24768655836E+01  0.31849391082E+01 -0.16202231572E+00  0.40379390130E+01  0.00000000000E+00 0.  1.
</event>
<event>
 7    1  0.2942034E-011  0.5052885E+02  0.7816164E-02  0.1300439E+00
        -11   -1    0    0    0    0  0.00000000000E+00  0.00000000000E+00  0.45593999997E+02  0.45594000000E+02  0.51100000000E-03 0. -1.
         11   -1    0    0    0    0 -0.00000000000E+00 -0.00000000000E+00 -0.45593999997E+02  0.45594000000E+02  0.51100000000E-03 0.  1.
    9900012    2    1    2    0    0 -0.33876443175E+02 -0.16860293200E+02 -0.14875602535E+02  0.50528850479E+02  0.29999971515E+02 0.  0.
         12    1    1    2    0    0  0.33876443175E+02  0.16860293200E+02  0.14875602535E+02  0.40659149521E+02  0.00000000000E+00 0. -1.
         11    1    3    3    0    0 -0.68313402941E+01 -0.17006326292E+02 -0.55533393143E+00  0.18335504907E+02  0.51100000000E-03 0. -1.
        -11    1    3    3    0    0 -0.23614611108E+02  0.32900369678E+01 -0.13701271186E+02  0.27499073319E+02  0.51100000000E-03 0.  1.
        -12    1    3    3    0    0 -0.34304917737E+01 -0.31440038758E+01 -0.61899741740E+00  0.46942722528E+01  0.00000000000E+00 0.  1.
</event>
<event>
 7    1  0.2942034E-011  0.5052885E+02  0.7816164E-02  0.1300439E+00
        -11   -1    0    0    0    0  0.00000000000E+00  0.00000000000E+00  0.45593999997E+02  0.45594000000E+02  0.51100000000E-03 0.  1.
         11   -1    0    0    0    0 -0.00000000000E+00 -0.00000000000E+00 -0.45593999997E+02  0.45594000000E+02  0.51100000000E-03 0. -1.
    9900012    2    1    2    0    0 -0.31481632497E+02 -0.90121336604E+01  0.24100922897E+02  0.50528853154E+02  0.29999979645E+02 0.  0.
         12    1    1    2    0    0  0.31481632497E+02  0.90121336604E+01 -0.24100922897E+02  0.40659146846E+02  0.00000000000E+00 0. -1.
         11    1    3    3    0    0 -0.22561440461E+02  0.39871398420E+00  0.92728546189E+00  0.22584008216E+02  0.51100000000E-03 0. -1.
        -11    1    3    3    0    0  0.15420619933E+00  0.13793296922E+01  0.11875420781E+01  0.18266325302E+01  0.51100000000E-03 0.  1.
         12    1    3    3    0    0 -0.90743982352E+01 -0.10790177337E+02  0.21986095357E+02  0.26118212407E+02  0.00000000000E+00 0. -1.
</event>
<event>
 7    1  0.2942034E-011  0.5052886E+02  0.7816164E-02  0.1300439E+00
        -11   -1    0    0    0    0  0.00000000000E+00  0.00000000000E+00  0.45593999997E+02  0.45594000000E+02  0.51100000000E-03 0.  1.
         11   -1    0    0    0    0 -0.00000000000E+00 -0.00000000000E+00 -0.45593999997E+02  0.45594000000E+02  0.51100000000E-03 0. -1.
    9900012    2    1    2    0    0 -0.43788906512E+00  0.88408734910E+01  0.39683913197E+02  0.50528858868E+02  0.29999997016E+02 0.  0.
         12    1    1    2    0    0  0.43788906512E+00 -0.88408734910E+01 -0.39683913197E+02  0.40659141132E+02  0.00000000000E+00 0. -1.
         11    1    3    3    0    0  0.85730648095E+01  0.30201045687E+01  0.20632652335E+01  0.93207046685E+01  0.51100000000E-03 0. -1.
        -11    1    3    3    0    0 -0.10987402388E+02  0.30729449592E+01  0.35316243968E+02  0.37113381552E+02  0.51100000000E-03 0.  1.
        -12    1    3    3    0    0  0.19764485135E+01  0.27478239631E+01  0.23044039958E+01  0.40947726475E+01  0.00000000000E+00 0.  1.
</event>
<event>
 7    1  0.2942034E-011  0.5052886E+02  0.7816164E-02  0.1300439E+00
        -11   -1    0    0    0    0  0.00000000000E+00  0.00000000000E+00  0.45593999997E+02  0.45594000000E+02  0.51100000000E-03 0.  1.
         11   -1    0    0    0    0 -0.00000000000E+00 -0.00000000000E+00 -0.45593999997E+02  0.45594000000E+02  0.51100000000E-03 0. -1.
    9900012    2    1    2    0    0  0.13653788453E+02  0.10927190914E+02  0.36706077174E+02  0.50528861521E+02  0.30000005078E+02 0.  0.
         12    1    1    2    0    0 -0.13653788453E+02 -0.10927190914E+02 -0.36706077174E+02  0.40659138479E+02  0.00000000000E+00 0. -1.
         11    1    3    3    0    0 -0.65963174414E+01 -0.36206804477E+01  0.29298812363E+01  0.80749572761E+01  0.51100000000E-03 0. -1.
        -11    1    3    3    0    0  0.18188161981E+02  0.13537677871E+02  0.32983415987E+02  0.40024788429E+02  0.51100000000E-03 0.  1.
        -12    1    3    3    0    0  0.20619439139E+01  0.10101934912E+01  0.79277995013E+00  0.24291158150E+01  0.00000000000E+00 0.  1.
</event>
<event>
 7    1  0.2942034E-011  0.5052886E+02  0.7816164E-02  0.1300439E+00
        -11   -1    0    0    0    0  0.00000000000E+00  0.00000000000E+00  0.45593999997E+02  0.45594000000E+02  0.51100000000E-03 0. -1.
         11   -1    0    0    0    0 -0.00000000000E+00 -0.00000000000E+00 -0.45593999997E+02  0.45594000000E+02  0.51100000000E-03 0.  1.
    9900012    2    1    2    0    0  0.11660890876E+02 -0.38256459552E+02 -0.73234317748E+01  0.50528859251E+02  0.29999998180E+02 0.  0.
         12    1    1    2    0    0 -0.11660890876E+02  0.38256459552E+02  0.73234317748E+01  0.40659140749E+02  0.00000000000E+00 0. -1.
         11    1    3    3    0    0 -0.67382596817E+01 -0.18106346236E+01 -0.66182350116E+01  0.96168381607E+01  0.51100000000E-03 0. -1.
        -11    1    3    3    0    0  0.17335524148E+02 -0.33058673482E+02 -0.22059845228E+00  0.37328875604E+02  0.51100000000E-03 0.  1.
         12    1    3    3    0    0  0.10636264097E+01 -0.33871514458E+01 -0.48459831090E+00  0.35831454867E+01  0.00000000000E+00 0. -1.
</event>
<event>
 7    1  0.2942034E-011  0.5052886E+02  0.7816164E-02  0.1300439E+00
        -11   -1    0    0    0    0  0.00000000000E+00  0.00000000000E+00  0.45593999997E+02  0.45594000000E+02  0.51100000000E-03 0.  1.
         11   -1    0    0    0    0 -0.00000000000E+00 -0.00000000000E+00 -0.45593999997E+02  0.45594000000E+02  0.51100000000E-03 0. -1.
    9900012    2    1    2    0    0 -0.14838744311E+02  0.37670810556E+02  0.37265680295E+01  0.50528860683E+02  0.30000002533E+02 0.  0.
         12    1    1    2    0    0  0.14838744311E+02 -0.37670810556E+02 -0.37265680295E+01  0.40659139317E+02  0.00000000000E+00 0. -1.
         11    1    3    3    0    0  0.23768211642E+00 -0.19499493239E+01 -0.28461355780E+01  0.34582196495E+01  0.51100000000E-03 0. -1.
        -11    1    3    3    0    0 -0.17135276769E+02  0.34874736269E+02  0.10866185987E+02  0.40347725314E+02  0.51100000000E-03 0.  1.
        -12    1    3    3    0    0  0.20588503419E+01  0.47460236106E+01 -0.42934823791E+01  0.67229157203E+01  0.00000000000E+00 0.  1.
</event>
<event>
 7    1  0.2942034E-011  0.5052888E+02  0.7816164E-02  0.1300439E+00
        -11   -1    0    0    0    0  0.00000000000E+00  0.00000000000E+00  0.45593999997E+02  0.45594000000E+02  0.51100000000E-03 0.  1.
         11   -1    0    0    0    0 -0.00000000000E+00 -0.00000000000E+00 -0.45593999997E+02  0.45594000000E+02  0.51100000000E-03 0. -1.
    9900012    2    1    2    0    0 -0.76427149435E+00 -0.38130882577E+02 -0.14093106350E+02  0.50528880930E+02  0.30000064073E+02 0.  0.
         12    1    1    2    0    0  0.76427149435E+00  0.38130882577E+02  0.14093106350E+02  0.40659119070E+02  0.00000000000E+00 0. -1.
         11    1    3    3    0    0  0.74001611280E+01 -0.28988678752E+02 -0.16584320336E+02  0.34207390455E+02  0.51100000000E-03 0. -1.
        -11    1    3    3    0    0 -0.65376742737E+01 -0.26460170805E+01 -0.29969298142E+01  0.76631703538E+01  0.51100000000E-03 0.  1.
         12    1    3    3    0    0 -0.16267583487E+01 -0.64961867446E+01  0.54881437998E+01  0.86583201207E+01  0.00000000000E+00 0. -1.
</event>
<event>
 7    1  0.2942034E-011  0.5052886E+02  0.7816164E-02  0.1300439E+00
        -11   -1    0    0    0    0  0.00000000000E+00  0.00000000000E+00  0.45593999997E+02  0.45594000000E+02  0.51100000000E-03 0. -1.
         11   -1    0    0    0    0 -0.00000000000E+00 -0.00000000000E+00 -0.45593999997E+02  0.45594000000E+02  0.51100000000E-03 0.  1.
    9900012    2    1    2    0    0  0.19286071860E+02  0.35488291730E+02 -0.46684325521E+01  0.50528859820E+02  0.29999999908E+02 0.  0.
         12    1    1    2    0    0 -0.19286071860E+02 -0.35488291730E+02  0.46684325521E+01  0.40659140180E+02  0.00000000000E+00 0. -1.
         11    1    3    3    0    0  0.13286550314E+02  0.10198387643E+02 -0.19203359024E+01  0.16859039711E+02  0.51100000000E-03 0. -1.
        -11    1    3    3    0    0 -0.79011844240E+01  0.11004942188E+02  0.11212847937E-01  0.13547604727E+02  0.51100000000E-03 0.  1.
        -12    1    3    3    0    0  0.13900705971E+02  0.14284961899E+02 -0.27593094976E+01  0.20122215381E+02  0.00000000000E+00 0.  1.
</event>
<event>
 7    1  0.2942034E-011  0.5052887E+02  0.7816164E-02  0.1300439E+00
        -11   -1    0    0    0    0  0.00000000000E+00  0.00000000000E+00  0.45593999997E+02  0.45594000000E+02  0.51100000000E-03 0.  1.
         11   -1    0    0    0    0 -0.00000000000E+00 -0.00000000000E+00 -0.45593999997E+02  0.45594000000E+02  0.51100000000E-03 0. -1.
    9900012    2    1    2    0    0 -0.40137517891E+02 -0.44022121578E+01  0.47712782064E+01  0.50528869291E+02  0.30000028696E+02 0.  0.
         12    1    1    2    0    0  0.40137517891E+02  0.44022121578E+01 -0.47712782064E+01  0.40659130709E+02  0.00000000000E+00 0. -1.
         11    1    3    3    0    0 -0.20790236622E+02 -0.13450197146E+02  0.23029429900E+01  0.24868560246E+02  0.51100000000E-03 0. -1.
        -11    1    3    3    0    0 -0.23900655483E+01  0.45505089844E+01  0.58569686068E+01  0.77925366130E+01  0.51100000000E-03 0.  1.
         12    1    3    3    0    0 -0.16957215721E+02  0.44974760036E+01 -0.33886333903E+01  0.17867772431E+02  0.00000000000E+00 0. -1.
</event>
<event>
 7    1  0.2942034E-011  0.5052887E+02  0.7816164E-02  0.1300439E+00
        -11   -1    0    0    0    0  0.00000000000E+00  0.00000000000E+00  0.45593999997E+02  0.45594000000E+02  0.51100000000E-03 0.  1.
         11   -1    0    0    0    0 -0.00000000000E+00 -0.00000000000E+00 -0.45593999997E+02  0.45594000000E+02  0.51100000000E-03 0. -1.
    9900012    2    1    2    0    0 -0.18883275361E+02  0.22028902514E+02  0.28483572889E+02  0.50528873609E+02  0.30000041822E+02 0.  0.
         12    1    1    2    0    0  0.18883275361E+02 -0.22028902514E+02 -0.28483572889E+02  0.40659126391E+02  0.00000000000E+00 0. -1.
         11    1    3    3    0    0 -0.49057249223E+01  0.48049110640E+01 -0.44033280241E+01  0.81573650951E+01  0.51100000000E-03 0. -1.
        -11    1    3    3    0    0 -0.13992502009E+02  0.17353938600E+02  0.21457811090E+02  0.30941670194E+02  0.51100000000E-03 0.  1.
         12    1    3    3    0    0  0.14951570895E-01 -0.12994714922E+00  0.11429089824E+02  0.11429838319E+02  0.00000000000E+00 0. -1.
</event>
<event>
 7    1  0.2942034E-011  0.5052890E+02  0.7816164E-02  0.1300439E+00
        -11   -1    0    0    0    0  0.00000000000E+00  0.00000000000E+00  0.45593999997E+02  0.45594000000E+02  0.51100000000E-03 0. -1.
         11   -1    0    0    0    0 -0.00000000000E+00 -0.00000000000E+00 -0.45593999997E+02  0.45594000000E+02  0.51100000000E-03 0.  1.
    9900012    2    1    2    0    0  0.28376344409E+02 -0.10825385111E+02 -0.27032514710E+02  0.50528896021E+02  0.30000109945E+02 0.  0.
         12    1    1    2    0    0 -0.28376344409E+02  0.10825385111E+02  0.27032514710E+02  0.40659103979E+02  0.00000000000E+00 0. -1.
         11    1    3    3    0    0  0.94480322559E+01  0.18208376768E+01 -0.24516528975E+02  0.26337064312E+02  0.51100000000E-03 0. -1.
        -11    1    3    3    0    0  0.11571115093E+02 -0.11942576579E+02 -0.23927723996E+01  0.16800035710E+02  0.51100000000E-03 0.  1.
         12    1    3    3    0    0  0.73571970599E+01 -0.70364620894E+00 -0.12321333633E+00  0.73917959991E+01  0.00000000000E+00 0. -1.
</event>
<event>
 7    1  0.2942034E-011  0.5052886E+02  0.7816164E-02  0.1300439E+00
        -11   -1    0    0    0    0  0.00000000000E+00  0.00000000000E+00  0.45593999997E+02  0.45594000000E+02  0.51100000000E-03 0. -1.
         11   -1    0    0    0    0 -0.00000000000E+00 -0.00000000000E+00 -0.45593999997E+02  0.45594000000E+02  0.51100000000E-03 0.  1.
    9900012    2    1    2    0    0 -0.25483951025E+02 -0.63354416123E+01 -0.31041840857E+02  0.50528862477E+02  0.30000007986E+02 0.  0.
         12    1    1    2    0    0  0.25483951025E+02  0.63354416123E+01  0.31041840857E+02  0.40659137523E+02  0.00000000000E+00 0. -1.
         11    1    3    3    0    0 -0.14388572301E+02 -0.28340834506E+01 -0.37032715722E+01  0.15125384705E+02  0.51100000000E-03 0.  1.
        -11    1    3    3    0    0  0.48227821038E+00 -0.93979824804E+01 -0.13075957787E+02  0.16110100536E+02  0.51100000000E-03 0. -1.
         12    1    3    3    0    0 -0.11577656934E+02  0.58966243187E+01 -0.14262611498E+02  0.19293377236E+02  0.00000000000E+00 0. -1.
</event>
<event>
 7    1  0.2942034E-011  0.5052886E+02  0.7816164E-02  0.1300439E+00
        -11   -1    0    0    0    0  0.00000000000E+00  0.00000000000E+00  0.45593999997E+02  0.45594000000E+02  0.51100000000E-03 0.  1.
         11   -1    0    0    0    0 -0.00000000000E+00 -0.00000000000E+00 -0.45593999997E+02  0.45594000000E+02  0.51100000000E-03 0. -1.
    9900012    2    1    2    0    0  0.30148578603E+02 -0.27037352699E+02  0.36345957059E+01  0.50528861806E+02  0.30000005945E+02 0.  0.
         12    1    1    2    0    0 -0.30148578603E+02  0.27037352699E+02 -0.36345957059E+01  0.40659138194E+02  0.00000000000E+00 0. -1.
         11    1    3    3    0    0  0.12338656012E+01 -0.52215695723E+01  0.32914800438E+01  0.62945257375E+01  0.51100000000E-03 0. -1.
        -11    1    3    3    0    0  0.11557690371E+02 -0.15483483275E+02 -0.11312012115E+02  0.22389284923E+02  0.51100000000E-03 0.  1.
        -12    1    3    3    0    0  0.17357022631E+02 -0.63322998522E+01  0.11655127777E+02  0.21845051145E+02  0.00000000000E+00 0.  1.
</event>
<event>
 7    1  0.2942034E-011  0.5052884E+02  0.7816164E-02  0.1300439E+00
        -11   -1    0    0    0    0  0.00000000000E+00  0.00000000000E+00  0.45593999997E+02  0.45594000000E+02  0.51100000000E-03 0.  1.
         11   -1    0    0    0    0 -0.00000000000E+00 -0.00000000000E+00 -0.45593999997E+02  0.45594000000E+02  0.51100000000E-03 0. -1.
    9900012    2    1    2    0    0  0.19282035784E+02  0.45757240350E+01  0.35502580175E+02  0.50528839242E+02  0.29999937361E+02 0.  0.
         12    1    1    2    0    0 -0.19282035784E+02 -0.45757240350E+01 -0.35502580175E+02  0.40659160758E+02  0.00000000000E+00 0. -1.
         11    1    3    3    0    0 -0.14737777864E+01 -0.88036432529E+00  0.18481736917E+01  0.25224608153E+01  0.51100000000E-03 0. -1.
        -11    1    3    3    0    0  0.18589463047E+02 -0.78040125010E+01  0.24591648750E+02  0.31799684527E+02  0.51100000000E-03 0.  1.
        -12    1    3    3    0    0  0.21663505227E+01  0.13260100861E+02  0.90627577339E+01  0.16206693900E+02  0.00000000000E+00 0.  1.
</event>
<event>
 7    1  0.2942034E-011  0.5052884E+02  0.7816164E-02  0.1300439E+00
        -11   -1    0    0    0    0  0.00000000000E+00  0.00000000000E+00  0.45593999997E+02  0.45594000000E+02  0.51100000000E-03 0.  1.
         11   -1    0    0    0    0 -0.00000000000E+00 -0.00000000000E+00 -0.45593999997E+02  0.45594000000E+02  0.51100000000E-03 0. -1.
    9900012    2    1    2    0    0  0.36039303069E+02  0.43398516863E+01  0.18316703273E+02  0.50528839936E+02  0.29999939468E+02 0.  0.
         12    1    1    2    0    0 -0.36039303069E+02 -0.43398516863E+01 -0.18316703273E+02  0.40659160064E+02  0.00000000000E+00 0. -1.
         11    1    3    3    0    0  0.14981777187E+02  0.12618808466E+02 -0.46119507854E+00  0.19593383474E+02  0.51100000000E-03 0. -1.
        -11    1    3    3    0    0  0.17780861838E+02 -0.25799329714E+01  0.14547473458E+02  0.23118046762E+02  0.51100000000E-03 0.  1.
         12    1    3    3    0    0  0.32766640440E+01 -0.56990238086E+01  0.42304248938E+01  0.78174096995E+01  0.00000000000E+00 0. -1.
</event>
<event>
 7    1  0.2942034E-011  0.5052885E+02  0.7816164E-02  0.1300439E+00
        -11   -1    0    0    0    0  0.00000000000E+00  0.00000000000E+00  0.45593999997E+02  0.45594000000E+02  0.51100000000E-03 0. -1.
         11   -1    0    0    0    0 -0.00000000000E+00 -0.00000000000E+00 -0.45593999997E+02  0.45594000000E+02  0.51100000000E-03 0.  1.
    9900012    2    1    2    0    0  0.10650783703E+02  0.51768717193E+01 -0.38896361729E+02  0.50528854042E+02  0.29999982345E+02 0.  0.
         12    1    1    2    0    0 -0.10650783703E+02 -0.51768717193E+01  0.38896361729E+02  0.40659145958E+02  0.00000000000E+00 0. -1.
         11    1    3    3    0    0 -0.59422645273E+00 -0.47008615142E+01 -0.58109029386E+01  0.74978528443E+01  0.51100000000E-03 0. -1.
        -11    1    3    3    0    0  0.11103103798E+02  0.14948379163E+02 -0.33077248867E+02  0.37958363327E+02  0.51100000000E-03 0.  1.
        -12    1    3    3    0    0  0.14190635802E+00 -0.50706459300E+01 -0.82099235241E-02  0.50726378704E+01  0.00000000000E+00 0.  1.
</event>
<event>
 7    1  0.2942034E-011  0.5052886E+02  0.7816164E-02  0.1300439E+00
        -11   -1    0    0    0    0  0.00000000000E+00  0.00000000000E+00  0.45593999997E+02  0.45594000000E+02  0.51100000000E-03 0.  1.
         11   -1    0    0    0    0 -0.00000000000E+00 -0.00000000000E+00 -0.45593999997E+02  0.45594000000E+02  0.51100000000E-03 0. -1.
    9900012    2    1    2    0    0 -0.11566506281E+02  0.67969981379E+01  0.38382063278E+02  0.50528855485E+02  0.29999986731E+02 0.  0.
         12    1    1    2    0    0  0.11566506281E+02 -0.67969981379E+01 -0.38382063278E+02  0.40659144515E+02  0.00000000000E+00 0. -1.
         11    1    3    3    0    0  0.41870853382E+00  0.50802106268E+01 -0.36684578010E+01  0.62802420135E+01  0.51100000000E-03 0. -1.
        -11    1    3    3    0    0 -0.20003461038E+01  0.79580951005E+00  0.18868302521E+02  0.18990722408E+02  0.51100000000E-03 0.  1.
         12    1    3    3    0    0 -0.99848687109E+01  0.92097800106E+00  0.23182218558E+02  0.25257891063E+02  0.00000000000E+00 0. -1.
</event>
<event>
 7    1  0.2942034E-011  0.5052886E+02  0.7816164E-02  0.1300439E+00
        -11   -1    0    0    0    0  0.00000000000E+00  0.00000000000E+00  0.45593999997E+02  0.45594000000E+02  0.51100000000E-03 0. -1.
         11   -1    0    0    0    0 -0.00000000000E+00 -0.00000000000E+00 -0.45593999997E+02  0.45594000000E+02  0.51100000000E-03 0.  1.
    9900012    2    1    2    0    0  0.19620191654E+02  0.23273438109E+02 -0.26954785211E+02  0.50528864646E+02  0.30000014578E+02 0.  0.
         12    1    1    2    0    0 -0.19620191654E+02 -0.23273438109E+02  0.26954785211E+02  0.40659135354E+02  0.00000000000E+00 0. -1.
         11    1    3    3    0    0  0.19064877299E+02  0.76789414918E+01 -0.11712045973E+02  0.23656029041E+02  0.51100000000E-03 0. -1.
        -11    1    3    3    0    0 -0.69413555545E+01  0.44621124279E+01 -0.85236946019E+01  0.11863651806E+02  0.51100000000E-03 0.  1.
        -12    1    3    3    0    0  0.74966699089E+01  0.11132384190E+02 -0.67190446367E+01  0.15009183798E+02  0.00000000000E+00 0.  1.
</event>
<event>
 7    1  0.2942034E-011  0.5052886E+02  0.7816164E-02  0.1300439E+00
        -11   -1    0    0    0    0  0.00000000000E+00  0.00000000000E+00  0.45593999997E+02  0.45594000000E+02  0.51100000000E-03 0.  1.
         11   -1    0    0    0    0 -0.00000000000E+00 -0.00000000000E+00 -0.45593999997E+02  0.45594000000E+02  0.51100000000E-03 0. -1.
    9900012    2    1    2    0    0 -0.18521825982E+02 -0.34482779435E+02  0.11002081092E+02  0.50528857072E+02  0.29999991557E+02 0.  0.
         12    1    1    2    0    0  0.18521825982E+02  0.34482779435E+02 -0.11002081092E+02  0.40659142928E+02  0.00000000000E+00 0. -1.
         11    1    3    3    0    0 -0.82909548490E+01  0.29060926545E+01  0.67526904489E+01  0.11080800304E+02  0.51100000000E-03 0. -1.
        -11    1    3    3    0    0 -0.50274051728E+01 -0.26660095793E+02  0.46085193020E+01  0.27518611173E+02  0.51100000000E-03 0.  1.
         12    1    3    3    0    0 -0.52034659598E+01 -0.10728776296E+02 -0.35912865924E+00  0.11929445595E+02  0.00000000000E+00 0. -1.
</event>
<event>
 7    1  0.2942034E-011  0.5052886E+02  0.7816164E-02  0.1300439E+00
        -11   -1    0    0    0    0  0.00000000000E+00  0.00000000000E+00  0.45593999997E+02  0.45594000000E+02  0.51100000000E-03 0. -1.
         11   -1    0    0    0    0 -0.00000000000E+00 -0.00000000000E+00 -0.45593999997E+02  0.45594000000E+02  0.51100000000E-03 0.  1.
    9900012    2    1    2    0    0 -0.80119667083E+01  0.13616604740E+02 -0.37464144782E+02  0.50528859829E+02  0.29999999936E+02 0.  0.
         12    1    1    2    0    0  0.80119667083E+01 -0.13616604740E+02  0.37464144782E+02  0.40659140171E+02  0.00000000000E+00 0. -1.
         11    1    3    3    0    0 -0.12140371907E+02  0.13866813330E+02 -0.10960522267E+02  0.21443185178E+02  0.51100000000E-03 0. -1.
        -11    1    3    3    0    0  0.84512890368E+00  0.24096179969E+01 -0.24078927337E+02  0.24213947297E+02  0.51100000000E-03 0.  1.
         12    1    3    3    0    0  0.32832762951E+01 -0.26598265863E+01 -0.24246951784E+01  0.48717273535E+01  0.00000000000E+00 0. -1.
</event>
<event>
 7    1  0.2942034E-011  0.5052886E+02  0.7816164E-02  0.1300439E+00
        -11   -1    0    0    0    0  0.00000000000E+00  0.00000000000E+00  0.45593999997E+02  0.45594000000E+02  0.51100000000E-03 0.  1.
         11   -1    0    0    0    0 -0.00000000000E+00 -0.00000000000E+00 -0.45593999997E+02  0.45594000000E+02  0.51100000000E-03 0. -1.
    9900012    2    1    2    0    0 -0.10624603344E+02  0.50299549743E+01  0.38922782819E+02  0.50528859999E+02  0.30000000452E+02 0.  0.
         12    1    1    2    0    0  0.10624603344E+02 -0.50299549743E+01 -0.38922782819E+02  0.40659140001E+02  0.00000000000E+00 0. -1.
         11    1    3    3    0    0 -0.13821241591E+02 -0.53661045468E+01  0.85324250329E+01  0.17106258338E+02  0.51100000000E-03 0. -1.
        -11    1    3    3    0    0  0.50946616713E+00  0.10548121463E+02  0.27573558362E+02  0.29526658179E+02  0.51100000000E-03 0.  1.
         12    1    3    3    0    0  0.26871720798E+01 -0.15206194238E+00  0.28167994238E+01  0.38959434820E+01  0.00000000000E+00 0. -1.
</event>
<event>
 7    1  0.2942034E-011  0.5052887E+02  0.7816164E-02  0.1300439E+00
        -11   -1    0    0    0    0  0.00000000000E+00  0.00000000000E+00  0.45593999997E+02  0.45594000000E+02  0.51100000000E-03 0. -1.
         11   -1    0    0    0    0 -0.00000000000E+00 -0.00000000000E+00 -0.45593999997E+02  0.45594000000E+02  0.51100000000E-03 0.  1.
    9900012    2    1    2    0    0 -0.37239475496E+02  0.11665333265E+02 -0.11415189182E+02  0.50528867208E+02  0.30000022364E+02 0.  0.
         12    1    1    2    0    0  0.37239475496E+02 -0.11665333265E+02  0.11415189182E+02  0.40659132792E+02  0.00000000000E+00 0. -1.
         11    1    3    3    0    0  0.34690380745E+01  0.47282492482E+01 -0.56261662504E+01  0.81267652269E+01  0.51100000000E-03 0. -1.
        -11    1    3    3    0    0 -0.35457816026E+02  0.32863010608E+01 -0.49450015236E+01  0.35951488597E+02  0.51100000000E-03 0.  1.
         12    1    3    3    0    0 -0.52506975440E+01  0.36507829557E+01 -0.84402140768E+00  0.64506133836E+01  0.00000000000E+00 0. -1.
</event>
<event>
 7    1  0.2942034E-011  0.5052886E+02  0.7816164E-02  0.1300439E+00
        -11   -1    0    0    0    0  0.00000000000E+00  0.00000000000E+00  0.45593999997E+02  0.45594000000E+02  0.51100000000E-03 0. -1.
         11   -1    0    0    0    0 -0.00000000000E+00 -0.00000000000E+00 -0.45593999997E+02  0.45594000000E+02  0.51100000000E-03 0.  1.
    9900012    2    1    2    0    0 -0.20816905659E+02 -0.18028584827E+02 -0.29913073258E+02  0.50528863464E+02  0.30000010985E+02 0.  0.
         12    1    1    2    0    0  0.20816905659E+02  0.18028584827E+02  0.29913073258E+02  0.40659136536E+02  0.00000000000E+00 0. -1.
         11    1    3    3    0    0 -0.79160273392E+01 -0.28381798240E+01  0.41631578485E+01  0.93835300970E+01  0.51100000000E-03 0. -1.
        -11    1    3    3    0    0 -0.10041384143E+02 -0.16384797718E+02 -0.24856469261E+02  0.31418705514E+02  0.51100000000E-03 0.  1.
        -12    1    3    3    0    0 -0.28594941766E+01  0.11943927149E+01 -0.92197618460E+01  0.97266278535E+01  0.00000000000E+00 0.  1.
</event>
<event>
 7    1  0.2942034E-011  0.5052886E+02  0.7816164E-02  0.1300439E+00
        -11   -1    0    0    0    0  0.00000000000E+00  0.00000000000E+00  0.45593999997E+02  0.45594000000E+02  0.51100000000E-03 0.  1.
         11   -1    0    0    0    0 -0.00000000000E+00 -0.00000000000E+00 -0.45593999997E+02  0.45594000000E+02  0.51100000000E-03 0. -1.
    9900012    2    1    2    0    0  0.34823311321E+02  0.97182711904E+01  0.18602635996E+02  0.50528857457E+02  0.29999992726E+02 0.  0.
         12    1    1    2    0    0 -0.34823311321E+02 -0.97182711904E+01 -0.18602635996E+02  0.40659142543E+02  0.00000000000E+00 0. -1.
         11    1    3    3    0    0  0.81301292519E+01  0.98779989263E+01  0.19064310493E+02  0.22959133243E+02  0.51100000000E-03 0. -1.
        -11    1    3    3    0    0  0.97389559126E+01  0.11140864100E+01  0.29335597935E+01  0.10232019552E+02  0.51100000000E-03 0.  1.
         12    1    3    3    0    0  0.16954226157E+02 -0.12738141459E+01 -0.33952342898E+01  0.17337704662E+02  0.00000000000E+00 0. -1.
</event>
<event>
 7    1  0.2942034E-011  0.5052886E+02  0.7816164E-02  0.1300439E+00
        -11   -1    0    0    0    0  0.00000000000E+00  0.00000000000E+00  0.45593999997E+02  0.45594000000E+02  0.51100000000E-03 0.  1.
         11   -1    0    0    0    0 -0.00000000000E+00 -0.00000000000E+00 -0.45593999997E+02  0.45594000000E+02  0.51100000000E-03 0. -1.
    9900012    2    1    2    0    0 -0.16291751663E+02  0.11187289564E+02  0.35532929168E+02  0.50528859880E+02  0.30000000092E+02 0.  0.
         12    1    1    2    0    0  0.16291751663E+02 -0.11187289564E+02 -0.35532929168E+02  0.40659140120E+02  0.00000000000E+00 0. -1.
         11    1    3    3    0    0  0.14018647706E+01  0.24833001520E+01 -0.11989787325E+01  0.30934696931E+01  0.51100000000E-03 0. -1.
        -11    1    3    3    0    0 -0.14857921390E+02 -0.31054878566E+01  0.29820537746E+02  0.33461415908E+02  0.51100000000E-03 0.  1.
        -12    1    3    3    0    0 -0.28356950434E+01  0.11809477268E+02  0.69113701541E+01  0.13973974279E+02  0.00000000000E+00 0.  1.
</event>
<event>
 7    1  0.2942034E-011  0.5052886E+02  0.7816164E-02  0.1300439E+00
        -11   -1    0    0    0    0  0.00000000000E+00  0.00000000000E+00  0.45593999997E+02  0.45594000000E+02  0.51100000000E-03 0.  1.
         11   -1    0    0    0    0 -0.00000000000E+00 -0.00000000000E+00 -0.45593999997E+02  0.45594000000E+02  0.51100000000E-03 0. -1.
    9900012    2    1    2    0    0 -0.16908833050E+02 -0.35977732567E+02  0.85357928825E+01  0.50528860364E+02  0.30000001563E+02 0.  0.
         12    1    1    2    0    0  0.16908833050E+02  0.35977732567E+02 -0.85357928825E+01  0.40659139636E+02  0.00000000000E+00 0. -1.
         11    1    3    3    0    0 -0.70275449053E+01 -0.14240828620E+01 -0.45205135469E+01  0.84764050388E+01  0.51100000000E-03 0. -1.
        -11    1    3    3    0    0  0.21357035669E+01 -0.20475417905E+02  0.11237044775E+02  0.23453680813E+02  0.51100000000E-03 0.  1.
        -12    1    3    3    0    0 -0.12016991712E+02 -0.14078231800E+02  0.18192616543E+01  0.18598774513E+02  0.00000000000E+00 0.  1.
</event>
<event>
 7    1  0.2942034E-011  0.5052886E+02  0.7816164E-02  0.1300439E+00
        -11   -1    0    0    0    0  0.00000000000E+00  0.00000000000E+00  0.45593999997E+02  0.45594000000E+02  0.51100000000E-03 0.  1.
         11   -1    0    0    0    0 -0.00000000000E+00 -0.00000000000E+00 -0.45593999997E+02  0.45594000000E+02  0.51100000000E-03 0. -1.
    9900012    2    1    2    0    0 -0.16233146692E+02  0.11298754300E+02  0.35524481207E+02  0.50528860003E+02  0.30000000466E+02 0.  0.
         12    1    1    2    0    0  0.16233146692E+02 -0.11298754300E+02 -0.35524481207E+02  0.40659139997E+02  0.00000000000E+00 0. -1.
         11    1    3    3    0    0 -0.13963397056E+02 -0.33590605399E+01  0.96216303257E+01  0.17286859618E+02  0.51100000000E-03 0. -1.
        -11    1    3    3    0    0 -0.73792853975E+01  0.13717999507E+02  0.20499676732E+02  0.25746341678E+02  0.51100000000E-03 0.  1.
         12    1    3    3    0    0  0.51095357620E+01  0.93981533225E+00  0.54031741498E+01  0.74956587072E+01  0.00000000000E+00 0. -1.
</event>
<event>
 7    1  0.2942034E-011  0.5052886E+02  0.7816164E-02  0.1300439E+00
        -11   -1    0    0    0    0  0.00000000000E+00  0.00000000000E+00  0.45593999997E+02  0.45594000000E+02  0.51100000000E-03 0. -1.
         11   -1    0    0    0    0 -0.00000000000E+00 -0.00000000000E+00 -0.45593999997E+02  0.45594000000E+02  0.51100000000E-03 0.  1.
    9900012    2    1    2    0    0  0.31488194489E+02  0.23938523686E+02  0.94131115348E+01  0.50528856167E+02  0.29999988807E+02 0.  0.
         12    1    1    2    0    0 -0.31488194489E+02 -0.23938523686E+02 -0.94131115348E+01  0.40659143833E+02  0.00000000000E+00 0. -1.
         11    1    3    3    0    0  0.13386070928E+02 -0.51730290645E+01  0.64696849945E+01  0.15741789885E+02  0.51100000000E-03 0. -1.
        -11    1    3    3    0    0  0.13684321693E+02  0.18839980374E+02  0.37121254976E+01  0.23579342583E+02  0.51100000000E-03 0.  1.
         12    1    3    3    0    0  0.44178018673E+01  0.10271572376E+02 -0.76869895734E+00  0.11207723699E+02  0.00000000000E+00 0. -1.
</event>
<event>
 7    1  0.2942034E-011  0.5052885E+02  0.7816164E-02  0.1300439E+00
        -11   -1    0    0    0    0  0.00000000000E+00  0.00000000000E+00  0.45593999997E+02  0.45594000000E+02  0.51100000000E-03 0. -1.
         11   -1    0    0    0    0 -0.00000000000E+00 -0.00000000000E+00 -0.45593999997E+02  0.45594000000E+02  0.51100000000E-03 0.  1.
    9900012    2    1    2    0    0  0.34009008697E+02  0.22283168946E+02  0.11920481193E+00  0.50528849730E+02  0.29999969240E+02 0.  0.
         12    1    1    2    0    0 -0.34009008697E+02 -0.22283168946E+02 -0.11920481193E+00  0.40659150270E+02  0.00000000000E+00 0. -1.
         11    1    3    3    0    0  0.14172463868E+02  0.10912876350E+02  0.96283341597E+01  0.20313897244E+02  0.51100000000E-03 0. -1.
        -11    1    3    3    0    0  0.35834665259E+01  0.11046805958E+02 -0.75243139491E+01  0.13837935355E+02  0.51100000000E-03 0.  1.
         12    1    3    3    0    0  0.16253078304E+02  0.32348663871E+00 -0.19848153986E+01  0.16377017131E+02  0.00000000000E+00 0. -1.
</event>
<event>
 7    1  0.2942034E-011  0.5052885E+02  0.7816164E-02  0.1300439E+00
        -11   -1    0    0    0    0  0.00000000000E+00  0.00000000000E+00  0.45593999997E+02  0.45594000000E+02  0.51100000000E-03 0.  1.
         11   -1    0    0    0    0 -0.00000000000E+00 -0.00000000000E+00 -0.45593999997E+02  0.45594000000E+02  0.51100000000E-03 0. -1.
    9900012    2    1    2    0    0 -0.18566538594E+02 -0.35776906758E+02  0.53350676028E+01  0.50528851474E+02  0.29999974539E+02 0.  0.
         12    1    1    2    0    0  0.18566538594E+02  0.35776906758E+02 -0.53350676028E+01  0.40659148526E+02  0.00000000000E+00 0. -1.
         11    1    3    3    0    0 -0.11401885254E+01  0.30657396717E+01  0.33977098139E+01  0.47162720287E+01  0.51100000000E-03 0. -1.
        -11    1    3    3    0    0 -0.52419920320E+01 -0.24655983872E+02  0.75049599500E+01  0.26300578801E+02  0.51100000000E-03 0.  1.
        -12    1    3    3    0    0 -0.12184358037E+02 -0.14186662558E+02 -0.55676021611E+01  0.19512000644E+02  0.00000000000E+00 0.  1.
</event>
<event>
 7    1  0.2942034E-011  0.5052886E+02  0.7816164E-02  0.1300439E+00
        -11   -1    0    0    0    0  0.00000000000E+00  0.00000000000E+00  0.45593999997E+02  0.45594000000E+02  0.51100000000E-03 0. -1.
         11   -1    0    0    0    0 -0.00000000000E+00 -0.00000000000E+00 -0.45593999997E+02  0.45594000000E+02  0.51100000000E-03 0.  1.
    9900012    2    1    2    0    0 -0.24601966641E+02 -0.11502429572E+02 -0.30258938973E+02  0.50528855439E+02  0.29999986592E+02 0.  0.
         12    1    1    2    0    0  0.24601966641E+02  0.11502429572E+02  0.30258938973E+02  0.40659144561E+02  0.00000000000E+00 0. -1.
         11    1    3    3    0    0 -0.52202753739E+01 -0.13647533884E+02 -0.80201054019E+01  0.16668189674E+02  0.51100000000E-03 0. -1.
        -11    1    3    3    0    0 -0.79176057220E+01  0.48832888262E+01 -0.19725742814E+02  0.21809170547E+02  0.51100000000E-03 0.  1.
         12    1    3    3    0    0 -0.11464085545E+02 -0.27381845139E+01 -0.25130907574E+01  0.12051495218E+02  0.00000000000E+00 0. -1.
</event>
<event>
 7    1  0.2942034E-011  0.5052885E+02  0.7816164E-02  0.1300439E+00
        -11   -1    0    0    0    0  0.00000000000E+00  0.00000000000E+00  0.45593999997E+02  0.45594000000E+02  0.51100000000E-03 0. -1.
         11   -1    0    0    0    0 -0.00000000000E+00 -0.00000000000E+00 -0.45593999997E+02  0.45594000000E+02  0.51100000000E-03 0.  1.
    9900012    2    1    2    0    0 -0.40164815356E+02  0.58304245422E+01 -0.24413484246E+01  0.50528850660E+02  0.29999972067E+02 0.  0.
         12    1    1    2    0    0  0.40164815356E+02 -0.58304245422E+01  0.24413484246E+01  0.40659149340E+02  0.00000000000E+00 0. -1.
         11    1    3    3    0    0 -0.21496205376E+02  0.98669137775E+01 -0.12117361274E+02  0.26575802482E+02  0.51100000000E-03 0.  1.
        -11    1    3    3    0    0 -0.24087564702E+01 -0.30156943395E+01  0.61864069872E+01  0.72916494536E+01  0.51100000000E-03 0. -1.
         12    1    3    3    0    0 -0.16259853510E+02 -0.10207948958E+01  0.34896058627E+01  0.16661398724E+02  0.00000000000E+00 0. -1.
</event>
<event>
 7    1  0.2942034E-011  0.5052886E+02  0.7816164E-02  0.1300439E+00
        -11   -1    0    0    0    0  0.00000000000E+00  0.00000000000E+00  0.45593999997E+02  0.45594000000E+02  0.51100000000E-03 0.  1.
         11   -1    0    0    0    0 -0.00000000000E+00 -0.00000000000E+00 -0.45593999997E+02  0.45594000000E+02  0.51100000000E-03 0. -1.
    9900012    2    1    2    0    0  0.14978686275E+02  0.74450166575E+00  0.37792202785E+02  0.50528856912E+02  0.29999991071E+02 0.  0.
         12    1    1    2    0    0 -0.14978686275E+02 -0.74450166575E+00 -0.37792202785E+02  0.40659143088E+02  0.00000000000E+00 0. -1.
         11    1    3    3    0    0 -0.20225831651E+01  0.47348361269E+01  0.19394063923E+01  0.55018917859E+01  0.51100000000E-03 0. -1.
        -11    1    3    3    0    0  0.12923729320E+02 -0.44971351025E+01  0.60830535377E+01  0.14974997304E+02  0.51100000000E-03 0.  1.
        -12    1    3    3    0    0  0.40775401202E+01  0.50680064139E+00  0.29769742855E+02  0.30051967822E+02  0.00000000000E+00 0.  1.
</event>
<event>
 7    1  0.2942034E-011  0.5052886E+02  0.7816164E-02  0.1300439E+00
        -11   -1    0    0    0    0  0.00000000000E+00  0.00000000000E+00  0.45593999997E+02  0.45594000000E+02  0.51100000000E-03 0.  1.
         11   -1    0    0    0    0 -0.00000000000E+00 -0.00000000000E+00 -0.45593999997E+02  0.45594000000E+02  0.51100000000E-03 0. -1.
    9900012    2    1    2    0    0 -0.15180142008E+02 -0.58355207109E+01  0.37264939742E+02  0.50528858994E+02  0.29999997400E+02 0.  0.
         12    1    1    2    0    0  0.15180142008E+02  0.58355207109E+01 -0.37264939742E+02  0.40659141006E+02  0.00000000000E+00 0. -1.
         11    1    3    3    0    0 -0.34168042713E+01  0.28695398992E+01 -0.40695028474E+01  0.60390118685E+01  0.51100000000E-03 0. -1.
        -11    1    3    3    0    0 -0.57403039233E+01 -0.85598984168E+01  0.23360436533E+02  0.25532977603E+02  0.51100000000E-03 0.  1.
         12    1    3    3    0    0 -0.60230338132E+01 -0.14516219337E+00  0.17974006057E+02  0.18956869523E+02  0.00000000000E+00 0. -1.
</event>
<event>
 7    1  0.2942034E-011  0.5052882E+02  0.7816164E-02  0.1300439E+00
        -11   -1    0    0    0    0  0.00000000000E+00  0.00000000000E+00  0.45593999997E+02  0.45594000000E+02  0.51100000000E-03 0. -1.
         11   -1    0    0    0    0 -0.00000000000E+00 -0.00000000000E+00 -0.45593999997E+02  0.45594000000E+02  0.51100000000E-03 0.  1.
    9900012    2    1    2    0    0 -0.39378375610E+02  0.71533752468E+01  0.71653195592E+01  0.50528818411E+02  0.29999874043E+02 0.  0.
         12    1    1    2    0    0  0.39378375610E+02 -0.71533752468E+01 -0.71653195592E+01  0.40659181589E+02  0.00000000000E+00 0. -1.
         11    1    3    3    0    0 -0.16914563491E+02 -0.61484146440E+01  0.75916904203E+01  0.19533029064E+02  0.51100000000E-03 0. -1.
        -11    1    3    3    0    0 -0.85523737392E+01  0.11716419809E+02 -0.62967151281E+01  0.15813481950E+02  0.51100000000E-03 0.  1.
        -12    1    3    3    0    0 -0.13911438379E+02  0.15853700815E+01  0.58703442670E+01  0.15182307397E+02  0.00000000000E+00 0.  1.
</event>
<event>
 7    1  0.2942034E-011  0.5052887E+02  0.7816164E-02  0.1300439E+00
        -11   -1    0    0    0    0  0.00000000000E+00  0.00000000000E+00  0.45593999997E+02  0.45594000000E+02  0.51100000000E-03 0. -1.
         11   -1    0    0    0    0 -0.00000000000E+00 -0.00000000000E+00 -0.45593999997E+02  0.45594000000E+02  0.51100000000E-03 0.  1.
    9900012    2    1    2    0    0  0.21133134376E+02 -0.86079866721E+01 -0.33652011383E+02  0.50528872203E+02  0.30000037548E+02 0.  0.
         12    1    1    2    0    0 -0.21133134376E+02  0.86079866721E+01  0.33652011383E+02  0.40659127797E+02  0.00000000000E+00 0. -1.
         11    1    3    3    0    0  0.71197261067E+01  0.32302314535E+01  0.30667302127E+01  0.83981979934E+01  0.51100000000E-03 0. -1.
        -11    1    3    3    0    0  0.13161543573E+02 -0.55698512088E+01 -0.24219031779E+02  0.28121361494E+02  0.51100000000E-03 0.  1.
         12    1    3    3    0    0  0.85186469629E+00 -0.62683669168E+01 -0.12499709817E+02  0.14009312716E+02  0.00000000000E+00 0. -1.
</event>
<event>
 7    1  0.2942034E-011  0.5052885E+02  0.7816164E-02  0.1300439E+00
        -11   -1    0    0    0    0  0.00000000000E+00  0.00000000000E+00  0.45593999997E+02  0.45594000000E+02  0.51100000000E-03 0. -1.
         11   -1    0    0    0    0 -0.00000000000E+00 -0.00000000000E+00 -0.45593999997E+02  0.45594000000E+02  0.51100000000E-03 0.  1.
    9900012    2    1    2    0    0 -0.20901727706E+02 -0.34312983972E+02 -0.62372906290E+01  0.50528845010E+02  0.29999954892E+02 0.  0.
         12    1    1    2    0    0  0.20901727706E+02  0.34312983972E+02  0.62372906290E+01  0.40659154990E+02  0.00000000000E+00 0. -1.
         11    1    3    3    0    0 -0.61325145165E+01  0.15956818839E+01  0.54425432327E+01  0.83531558151E+01  0.51100000000E-03 0. -1.
        -11    1    3    3    0    0 -0.73370288587E+01 -0.17897577385E+02 -0.11861986331E+02  0.22690570480E+02  0.51100000000E-03 0.  1.
         12    1    3    3    0    0 -0.74321843305E+01 -0.18011088471E+02  0.18215246940E+00  0.19485118715E+02  0.00000000000E+00 0. -1.
</event>
<event>
 7    1  0.2942034E-011  0.5052886E+02  0.7816164E-02  0.1300439E+00
        -11   -1    0    0    0    0  0.00000000000E+00  0.00000000000E+00  0.45593999997E+02  0.45594000000E+02  0.51100000000E-03 0. -1.
         11   -1    0    0    0    0 -0.00000000000E+00 -0.00000000000E+00 -0.45593999997E+02  0.45594000000E+02  0.51100000000E-03 0.  1.
    9900012    2    1    2    0    0 -0.10273534599E+02 -0.32420560435E+02 -0.22282894884E+02  0.50528860111E+02  0.30000000794E+02 0.  0.
         12    1    1    2    0    0  0.10273534599E+02  0.32420560435E+02  0.22282894884E+02  0.40659139889E+02  0.00000000000E+00 0. -1.
         11    1    3    3    0    0  0.42334136862E+01 -0.13823877358E+02 -0.16518657598E+01  0.14551633496E+02  0.51100000000E-03 0. -1.
        -11    1    3    3    0    0 -0.11065894182E+02 -0.21576891143E+02 -0.14208765412E+02  0.28105253250E+02  0.51100000000E-03 0.  1.
         12    1    3    3    0    0 -0.34410541034E+01  0.29802080666E+01 -0.64222637126E+01  0.78719733648E+01  0.00000000000E+00 0. -1.
</event>
<event>
 7    1  0.2942034E-011  0.5052886E+02  0.7816164E-02  0.1300439E+00
        -11   -1    0    0    0    0  0.00000000000E+00  0.00000000000E+00  0.45593999997E+02  0.45594000000E+02  0.51100000000E-03 0.  1.
         11   -1    0    0    0    0 -0.00000000000E+00 -0.00000000000E+00 -0.45593999997E+02  0.45594000000E+02  0.51100000000E-03 0. -1.
    9900012    2    1    2    0    0 -0.33809300629E+02 -0.20621646539E+02  0.92111033132E+01  0.50528861553E+02  0.30000005176E+02 0.  0.
         12    1    1    2    0    0  0.33809300629E+02  0.20621646539E+02 -0.92111033132E+01  0.40659138447E+02  0.00000000000E+00 0. -1.
         11    1    3    3    0    0  0.95545308781E+00 -0.65678900280E+01 -0.59396363426E+01  0.89067025417E+01  0.51100000000E-03 0. -1.
        -11    1    3    3    0    0  0.12369481349E-01 -0.18416448155E+01  0.22326813867E+00  0.18551704917E+01  0.51100000000E-03 0.  1.
         12    1    3    3    0    0 -0.34777123198E+02 -0.12212111696E+02  0.14927471517E+02  0.39766988520E+02  0.00000000000E+00 0. -1.
</event>
<event>
 7    1  0.2942034E-011  0.5052886E+02  0.7816164E-02  0.1300439E+00
        -11   -1    0    0    0    0  0.00000000000E+00  0.00000000000E+00  0.45593999997E+02  0.45594000000E+02  0.51100000000E-03 0.  1.
         11   -1    0    0    0    0 -0.00000000000E+00 -0.00000000000E+00 -0.45593999997E+02  0.45594000000E+02  0.51100000000E-03 0. -1.
    9900012    2    1    2    0    0 -0.63574474500E+01 -0.32055842129E+02  0.24190323371E+02  0.50528857148E+02  0.29999991788E+02 0.  0.
         12    1    1    2    0    0  0.63574474500E+01  0.32055842129E+02 -0.24190323371E+02  0.40659142852E+02  0.00000000000E+00 0. -1.
         11    1    3    3    0    0  0.67801386133E+01 -0.16633612693E+02 -0.46879097713E-01  0.17962448295E+02  0.51100000000E-03 0. -1.
        -11    1    3    3    0    0 -0.75320463947E+01 -0.10074995333E+02  0.89818573410E+01  0.15456746599E+02  0.51100000000E-03 0.  1.
         12    1    3    3    0    0 -0.56055396686E+01 -0.53472341019E+01  0.15255345127E+02  0.17109662255E+02  0.00000000000E+00 0. -1.
</event>
<event>
 7    1  0.2942034E-011  0.5052886E+02  0.7816164E-02  0.1300439E+00
        -11   -1    0    0    0    0  0.00000000000E+00  0.00000000000E+00  0.45593999997E+02  0.45594000000E+02  0.51100000000E-03 0.  1.
         11   -1    0    0    0    0 -0.00000000000E+00 -0.00000000000E+00 -0.45593999997E+02  0.45594000000E+02  0.51100000000E-03 0. -1.
    9900012    2    1    2    0    0  0.29238483542E+02  0.13801237047E+02  0.24653653509E+02  0.50528859635E+02  0.29999999347E+02 0.  0.
         12    1    1    2    0    0 -0.29238483542E+02 -0.13801237047E+02 -0.24653653509E+02  0.40659140365E+02  0.00000000000E+00 0. -1.
         11    1    3    3    0    0 -0.31573874605E+01 -0.10648429929E+01 -0.15340938111E+01  0.36683007316E+01  0.51100000000E-03 0. -1.
        -11    1    3    3    0    0  0.24564337565E+02  0.46147641976E+01  0.22000566620E+02  0.33297562380E+02  0.51100000000E-03 0.  1.
        -12    1    3    3    0    0  0.78315334382E+01  0.10251315842E+02  0.41871806995E+01  0.13562996523E+02  0.00000000000E+00 0.  1.
</event>
<event>
 7    1  0.2942034E-011  0.5052875E+02  0.7816164E-02  0.1300439E+00
        -11   -1    0    0    0    0  0.00000000000E+00  0.00000000000E+00  0.45593999997E+02  0.45594000000E+02  0.51100000000E-03 0.  1.
         11   -1    0    0    0    0 -0.00000000000E+00 -0.00000000000E+00 -0.45593999997E+02  0.45594000000E+02  0.51100000000E-03 0. -1.
    9900012    2    1    2    0    0 -0.29957565853E+02  0.25402438943E+02  0.10508797770E+02  0.50528751524E+02  0.29999670730E+02 0.  0.
         12    1    1    2    0    0  0.29957565853E+02 -0.25402438943E+02 -0.10508797770E+02  0.40659248476E+02  0.00000000000E+00 0. -1.
         11    1    3    3    0    0 -0.60328505465E+01 -0.14485669245E+01  0.86473738442E+01  0.10642871159E+02  0.51100000000E-03 0. -1.
        -11    1    3    3    0    0 -0.10807852921E+02  0.21031907450E+02  0.69728148251E+01  0.24653011228E+02  0.51100000000E-03 0.  1.
        -12    1    3    3    0    0 -0.13116862385E+02  0.58190984173E+01 -0.51113908990E+01  0.15232869137E+02  0.00000000000E+00 0.  1.
</event>
<event>
 7    1  0.2942034E-011  0.5052890E+02  0.7816164E-02  0.1300439E+00
        -11   -1    0    0    0    0  0.00000000000E+00  0.00000000000E+00  0.45593999997E+02  0.45594000000E+02  0.51100000000E-03 0.  1.
         11   -1    0    0    0    0 -0.00000000000E+00 -0.00000000000E+00 -0.45593999997E+02  0.45594000000E+02  0.51100000000E-03 0. -1.
    9900012    2    1    2    0    0  0.39512695567E+02 -0.56312734430E+01  0.77587660432E+01  0.50528895213E+02  0.30000107489E+02 0.  0.
         12    1    1    2    0    0 -0.39512695567E+02  0.56312734430E+01 -0.77587660432E+01  0.40659104787E+02  0.00000000000E+00 0. -1.
         11    1    3    3    0    0  0.94809295510E+01  0.83014620679E+00 -0.75443020279E+01  0.12144696835E+02  0.51100000000E-03 0. -1.
        -11    1    3    3    0    0  0.13111772689E+02  0.22791660539E+01  0.13968362883E+02  0.19293220126E+02  0.51100000000E-03 0.  1.
        -12    1    3    3    0    0  0.16919993327E+02 -0.87405857037E+01  0.13347051877E+01  0.19090978251E+02  0.00000000000E+00 0.  1.
</event>
<event>
 7    1  0.2942034E-011  0.5052886E+02  0.7816164E-02  0.1300439E+00
        -11   -1    0    0    0    0  0.00000000000E+00  0.00000000000E+00  0.45593999997E+02  0.45594000000E+02  0.51100000000E-03 0. -1.
         11   -1    0    0    0    0 -0.00000000000E+00 -0.00000000000E+00 -0.45593999997E+02  0.45594000000E+02  0.51100000000E-03 0.  1.
    9900012    2    1    2    0    0  0.26414010631E+02 -0.65696227153E+01 -0.30204399011E+02  0.50528860562E+02  0.30000002164E+02 0.  0.
         12    1    1    2    0    0 -0.26414010631E+02  0.65696227153E+01  0.30204399011E+02  0.40659139438E+02  0.00000000000E+00 0. -1.
         11    1    3    3    0    0  0.12340224596E+02 -0.13744029163E+02 -0.46565718236E+01  0.19048966957E+02  0.51100000000E-03 0. -1.
        -11    1    3    3    0    0  0.10348635538E+02  0.51361729776E-01 -0.13991239616E+02  0.17402634335E+02  0.51100000000E-03 0.  1.
         12    1    3    3    0    0  0.37251504962E+01  0.71230447176E+01 -0.11556587571E+02  0.14077259270E+02  0.00000000000E+00 0. -1.
</event>
<event>
 7    1  0.2942034E-011  0.5052886E+02  0.7816164E-02  0.1300439E+00
        -11   -1    0    0    0    0  0.00000000000E+00  0.00000000000E+00  0.45593999997E+02  0.45594000000E+02  0.51100000000E-03 0.  1.
         11   -1    0    0    0    0 -0.00000000000E+00 -0.00000000000E+00 -0.45593999997E+02  0.45594000000E+02  0.51100000000E-03 0. -1.
    9900012    2    1    2    0    0 -0.32924271846E+02  0.12925141276E+02  0.20052397934E+02  0.50528860603E+02  0.30000002289E+02 0.  0.
         12    1    1    2    0    0  0.32924271846E+02 -0.12925141276E+02 -0.20052397934E+02  0.40659139397E+02  0.00000000000E+00 0. -1.
         11    1    3    3    0    0 -0.21379231339E+02 -0.50229995436E+01  0.12905453668E+01  0.21999262821E+02  0.51100000000E-03 0. -1.
        -11    1    3    3    0    0 -0.50241085371E+01  0.98921094616E+01  0.89063049249E+01  0.14227359694E+02  0.51100000000E-03 0.  1.
         12    1    3    3    0    0 -0.65209319706E+01  0.80560313579E+01  0.98555476419E+01  0.14302238088E+02  0.00000000000E+00 0. -1.
</event>
<event>
 7    1  0.2942034E-011  0.5052886E+02  0.7816164E-02  0.1300439E+00
        -11   -1    0    0    0    0  0.00000000000E+00  0.00000000000E+00  0.45593999997E+02  0.45594000000E+02  0.51100000000E-03 0. -1.
         11   -1    0    0    0    0 -0.00000000000E+00 -0.00000000000E+00 -0.45593999997E+02  0.45594000000E+02  0.51100000000E-03 0.  1.
    9900012    2    1    2    0    0 -0.26516637801E+02  0.28271252697E+02 -0.12278848822E+02  0.50528856653E+02  0.29999990284E+02 0.  0.
         12    1    1    2    0    0  0.26516637801E+02 -0.28271252697E+02  0.12278848822E+02  0.40659143347E+02  0.00000000000E+00 0. -1.
         11    1    3    3    0    0  0.41791540928E+00  0.15329768243E+02 -0.92677419254E+01  0.17918356184E+02  0.51100000000E-03 0. -1.
        -11    1    3    3    0    0 -0.11558966183E+02  0.11152164598E+02 -0.54056774012E+01  0.16947029913E+02  0.51100000000E-03 0.  1.
         12    1    3    3    0    0 -0.15375587027E+02  0.17893198552E+01  0.23945705050E+01  0.15663470556E+02  0.00000000000E+00 0. -1.
</event>
<event>
 7    1  0.2942034E-011  0.5052887E+02  0.7816164E-02  0.1300439E+00
        -11   -1    0    0    0    0  0.00000000000E+00  0.00000000000E+00  0.45593999997E+02  0.45594000000E+02  0.51100000000E-03 0.  1.
         11   -1    0    0    0    0 -0.00000000000E+00 -0.00000000000E+00 -0.45593999997E+02  0.45594000000E+02  0.51100000000E-03 0. -1.
    9900012    2    1    2    0    0  0.10910558926E+02  0.15349788115E+02  0.36034828244E+02  0.50528866489E+02  0.30000020180E+02 0.  0.
         12    1    1    2    0    0 -0.10910558926E+02 -0.15349788115E+02 -0.36034828244E+02  0.40659133511E+02  0.00000000000E+00 0. -1.
         11    1    3    3    0    0  0.92474466720E+00  0.75552904597E+01 -0.36778737549E+01  0.84536573298E+01  0.51100000000E-03 0. -1.
        -11    1    3    3    0    0  0.15023599066E+01  0.40934137555E+00  0.12974531841E+02  0.13067636450E+02  0.51100000000E-03 0.  1.
         12    1    3    3    0    0  0.84834543526E+01  0.73851562799E+01  0.26738170159E+02  0.29007572709E+02  0.00000000000E+00 0. -1.
</event>
<event>
 7    1  0.2942034E-011  0.5052886E+02  0.7816164E-02  0.1300439E+00
        -11   -1    0    0    0    0  0.00000000000E+00  0.00000000000E+00  0.45593999997E+02  0.45594000000E+02  0.51100000000E-03 0.  1.
         11   -1    0    0    0    0 -0.00000000000E+00 -0.00000000000E+00 -0.45593999997E+02  0.45594000000E+02  0.51100000000E-03 0. -1.
    9900012    2    1    2    0    0 -0.19358170214E+02  0.33533491987E+02  0.12406932748E+02  0.50528858112E+02  0.29999994717E+02 0.  0.
         12    1    1    2    0    0  0.19358170214E+02 -0.33533491987E+02 -0.12406932748E+02  0.40659141888E+02  0.00000000000E+00 0. -1.
         11    1    3    3    0    0  0.28304871783E+01 -0.18297760361E+01  0.49925812087E+01  0.60237534309E+01  0.51100000000E-03 0. -1.
        -11    1    3    3    0    0 -0.10899926810E+02  0.71421224808E+01  0.51957200036E+01  0.14029035056E+02  0.51100000000E-03 0.  1.
         12    1    3    3    0    0 -0.11288730583E+02  0.28221145542E+02  0.22186315353E+01  0.30476069625E+02  0.00000000000E+00 0. -1.
</event>
<event>
 7    1  0.2942034E-011  0.5052877E+02  0.7816164E-02  0.1300439E+00
        -11   -1    0    0    0    0  0.00000000000E+00  0.00000000000E+00  0.45593999997E+02  0.45594000000E+02  0.51100000000E-03 0.  1.
         11   -1    0    0    0    0 -0.00000000000E+00 -0.00000000000E+00 -0.45593999997E+02  0.45594000000E+02  0.51100000000E-03 0. -1.
    9900012    2    1    2    0    0 -0.30074742623E+02  0.29653343333E+01  0.27200907806E+02  0.50528773040E+02  0.29999736130E+02 0.  0.
         12    1    1    2    0    0  0.30074742623E+02 -0.29653343333E+01 -0.27200907806E+02  0.40659226960E+02  0.00000000000E+00 0. -1.
         11    1    3    3    0    0 -0.15477791390E+02  0.98068697369E+01  0.94738187542E+01  0.20627408039E+02  0.51100000000E-03 0.  1.
        -11    1    3    3    0    0  0.17748759851E+01 -0.44456124520E+01  0.11080193850E+02  0.12069977252E+02  0.51100000000E-03 0. -1.
         12    1    3    3    0    0 -0.16371827218E+02 -0.23959229517E+01  0.66468952019E+01  0.17831387749E+02  0.00000000000E+00 0. -1.
</event>
<event>
 7    1  0.2942034E-011  0.5052887E+02  0.7816164E-02  0.1300439E+00
        -11   -1    0    0    0    0  0.00000000000E+00  0.00000000000E+00  0.45593999997E+02  0.45594000000E+02  0.51100000000E-03 0.  1.
         11   -1    0    0    0    0 -0.00000000000E+00 -0.00000000000E+00 -0.45593999997E+02  0.45594000000E+02  0.51100000000E-03 0. -1.
    9900012    2    1    2    0    0 -0.69925294202E+01  0.55076858840E+01  0.39672847764E+02  0.50528869153E+02  0.30000028279E+02 0.  0.
         12    1    1    2    0    0  0.69925294202E+01 -0.55076858840E+01 -0.39672847764E+02  0.40659130847E+02  0.00000000000E+00 0. -1.
         11    1    3    3    0    0  0.23712254428E+01  0.29421138265E+01 -0.16940130525E+01  0.41410656058E+01  0.51100000000E-03 0. -1.
        -11    1    3    3    0    0 -0.77935901963E+01 -0.48374715237E+01  0.35896487941E+02  0.37049953113E+02  0.51100000000E-03 0.  1.
        -12    1    3    3    0    0 -0.15701646667E+01  0.74030435813E+01  0.54703728756E+01  0.93378504349E+01  0.00000000000E+00 0.  1.
</event>
<event>
 7    1  0.2942034E-011  0.5052886E+02  0.7816164E-02  0.1300439E+00
        -11   -1    0    0    0    0  0.00000000000E+00  0.00000000000E+00  0.45593999997E+02  0.45594000000E+02  0.51100000000E-03 0.  1.
         11   -1    0    0    0    0 -0.00000000000E+00 -0.00000000000E+00 -0.45593999997E+02  0.45594000000E+02  0.51100000000E-03 0. -1.
    9900012    2    1    2    0    0  0.37800135859E+02 -0.42641532837E+01  0.14357316587E+02  0.50528858177E+02  0.29999994916E+02 0.  0.
         12    1    1    2    0    0 -0.37800135859E+02  0.42641532837E+01 -0.14357316587E+02  0.40659141823E+02  0.00000000000E+00 0. -1.
         11    1    3    3    0    0  0.80330207850E+01 -0.79652772661E+01  0.43447058252E+01  0.12118231464E+02  0.51100000000E-03 0.  1.
        -11    1    3    3    0    0  0.19779928232E+02  0.88531560645E+01  0.14750932339E+02  0.26214765654E+02  0.51100000000E-03 0. -1.
        -12    1    3    3    0    0  0.99871868419E+01 -0.51520320821E+01 -0.47383215776E+01  0.12195861059E+02  0.00000000000E+00 0.  1.
</event>
<event>
 7    1  0.2942034E-011  0.5052886E+02  0.7816164E-02  0.1300439E+00
        -11   -1    0    0    0    0  0.00000000000E+00  0.00000000000E+00  0.45593999997E+02  0.45594000000E+02  0.51100000000E-03 0.  1.
         11   -1    0    0    0    0 -0.00000000000E+00 -0.00000000000E+00 -0.45593999997E+02  0.45594000000E+02  0.51100000000E-03 0. -1.
    9900012    2    1    2    0    0 -0.55670329982E+01 -0.15457587709E+02  0.37191890965E+02  0.50528860465E+02  0.30000001869E+02 0.  0.
         12    1    1    2    0    0  0.55670329982E+01  0.15457587709E+02 -0.37191890965E+02  0.40659139535E+02  0.00000000000E+00 0. -1.
         11    1    3    3    0    0 -0.23893756083E+01 -0.16663177027E+02  0.95110518264E+01  0.19334701744E+02  0.51100000000E-03 0. -1.
        -11    1    3    3    0    0 -0.79496603040E+01  0.27186713855E+00  0.23402729897E+02  0.24717580334E+02  0.51100000000E-03 0.  1.
        -12    1    3    3    0    0  0.47720029141E+01  0.93372217912E+00  0.42781092416E+01  0.64765783870E+01  0.00000000000E+00 0.  1.
</event>
<event>
 7    1  0.2942034E-011  0.5052886E+02  0.7816164E-02  0.1300439E+00
        -11   -1    0    0    0    0  0.00000000000E+00  0.00000000000E+00  0.45593999997E+02  0.45594000000E+02  0.51100000000E-03 0. -1.
         11   -1    0    0    0    0 -0.00000000000E+00 -0.00000000000E+00 -0.45593999997E+02  0.45594000000E+02  0.51100000000E-03 0.  1.
    9900012    2    1    2    0    0  0.40314239498E+02 -0.44235639648E+01 -0.28913254919E+01  0.50528860959E+02  0.30000003370E+02 0.  0.
         12    1    1    2    0    0 -0.40314239498E+02  0.44235639648E+01  0.28913254919E+01  0.40659139041E+02  0.00000000000E+00 0. -1.
         11    1    3    3    0    0  0.17056324477E+01  0.44213092250E+01  0.40246085434E+01  0.62172848977E+01  0.51100000000E-03 0. -1.
        -11    1    3    3    0    0  0.35762376950E+02 -0.13405870485E+02 -0.46393936530E+01  0.38473223706E+02  0.51100000000E-03 0.  1.
        -12    1    3    3    0    0  0.28462301003E+01  0.45609972953E+01 -0.22765403823E+01  0.58383523552E+01  0.00000000000E+00 0.  1.
</event>
<event>
 7    1  0.2942034E-011  0.5052889E+02  0.7816164E-02  0.1300439E+00
        -11   -1    0    0    0    0  0.00000000000E+00  0.00000000000E+00  0.45593999997E+02  0.45594000000E+02  0.51100000000E-03 0. -1.
         11   -1    0    0    0    0 -0.00000000000E+00 -0.00000000000E+00 -0.45593999997E+02  0.45594000000E+02  0.51100000000E-03 0.  1.
    9900012    2    1    2    0    0  0.37928797482E+02  0.21051442968E+01 -0.14496143723E+02  0.50528886707E+02  0.30000081634E+02 0.  0.
         12    1    1    2    0    0 -0.37928797482E+02 -0.21051442968E+01  0.14496143723E+02  0.40659113293E+02  0.00000000000E+00 0. -1.
         11    1    3    3    0    0  0.74615800185E+01 -0.42797824299E+01  0.59291706911E+01  0.10447333601E+02  0.51100000000E-03 0. -1.
        -11    1    3    3    0    0  0.21327125071E+02  0.79841586657E+01 -0.20733830314E+02  0.30797479980E+02  0.51100000000E-03 0.  1.
        -12    1    3    3    0    0  0.91400923927E+01 -0.15992319390E+01  0.30851590031E+00  0.92840731256E+01  0.00000000000E+00 0.  1.
</event>
<event>
 7    1  0.2942034E-011  0.5052883E+02  0.7816164E-02  0.1300439E+00
        -11   -1    0    0    0    0  0.00000000000E+00  0.00000000000E+00  0.45593999997E+02  0.45594000000E+02  0.51100000000E-03 0.  1.
         11   -1    0    0    0    0 -0.00000000000E+00 -0.00000000000E+00 -0.45593999997E+02  0.45594000000E+02  0.51100000000E-03 0. -1.
    9900012    2    1    2    0    0  0.21220067947E+02  0.32947248726E+02  0.10833068509E+02  0.50528833068E+02  0.29999918593E+02 0.  0.
         12    1    1    2    0    0 -0.21220067947E+02 -0.32947248726E+02 -0.10833068509E+02  0.40659166932E+02  0.00000000000E+00 0. -1.
         11    1    3    3    0    0  0.12971022223E+02  0.14954250580E+02  0.10122282443E+02  0.22233704820E+02  0.51100000000E-03 0.  1.
        -11    1    3    3    0    0 -0.54431959855E+01  0.23644810317E+01  0.41400674359E+01  0.72359734466E+01  0.51100000000E-03 0. -1.
         12    1    3    3    0    0  0.13692241709E+02  0.15628517114E+02 -0.34292813697E+01  0.21059154801E+02  0.00000000000E+00 0. -1.
</event>
<event>
 7    1  0.2942034E-011  0.5052886E+02  0.7816164E-02  0.1300439E+00
        -11   -1    0    0    0    0  0.00000000000E+00  0.00000000000E+00  0.45593999997E+02  0.45594000000E+02  0.51100000000E-03 0.  1.
         11   -1    0    0    0    0 -0.00000000000E+00 -0.00000000000E+00 -0.45593999997E+02  0.45594000000E+02  0.51100000000E-03 0. -1.
    9900012    2    1    2    0    0  0.11651866778E+02 -0.22449120239E+02  0.31834515060E+02  0.50528863905E+02  0.30000012324E+02 0.  0.
         12    1    1    2    0    0 -0.11651866778E+02  0.22449120239E+02 -0.31834515060E+02  0.40659136095E+02  0.00000000000E+00 0. -1.
         11    1    3    3    0    0  0.22073941376E+01  0.52034434179E+01  0.78316781423E+01  0.96583432879E+01  0.51100000000E-03 0. -1.
        -11    1    3    3    0    0  0.93618477053E+01 -0.15729262489E+02  0.22261226149E+02  0.28820410838E+02  0.51100000000E-03 0.  1.
         12    1    3    3    0    0  0.82624935391E-01 -0.11923301168E+02  0.17416107683E+01  0.12050109779E+02  0.00000000000E+00 0. -1.
</event>
<event>
 7    1  0.2942034E-011  0.5052887E+02  0.7816164E-02  0.1300439E+00
        -11   -1    0    0    0    0  0.00000000000E+00  0.00000000000E+00  0.45593999997E+02  0.45594000000E+02  0.51100000000E-03 0.  1.
         11   -1    0    0    0    0 -0.00000000000E+00 -0.00000000000E+00 -0.45593999997E+02  0.45594000000E+02  0.51100000000E-03 0. -1.
    9900012    2    1    2    0    0 -0.16500847035E+02 -0.36636087497E+02  0.62196773442E+01  0.50528865157E+02  0.30000016131E+02 0.  0.
         12    1    1    2    0    0  0.16500847035E+02  0.36636087497E+02 -0.62196773442E+01  0.40659134843E+02  0.00000000000E+00 0. -1.
         11    1    3    3    0    0  0.80833889973E+01 -0.15736101293E+02  0.35151320207E+01  0.18036690799E+02  0.51100000000E-03 0. -1.
        -11    1    3    3    0    0 -0.13617938614E+02 -0.13219526960E+02  0.20209175188E+01  0.19086336815E+02  0.51100000000E-03 0.  1.
         12    1    3    3    0    0 -0.10966297418E+02 -0.76804592438E+01  0.68362780464E+00  0.13405837543E+02  0.00000000000E+00 0. -1.
</event>
<event>
 7    1  0.2942034E-011  0.5052888E+02  0.7816164E-02  0.1300439E+00
        -11   -1    0    0    0    0  0.00000000000E+00  0.00000000000E+00  0.45593999997E+02  0.45594000000E+02  0.51100000000E-03 0. -1.
         11   -1    0    0    0    0 -0.00000000000E+00 -0.00000000000E+00 -0.45593999997E+02  0.45594000000E+02  0.51100000000E-03 0.  1.
    9900012    2    1    2    0    0 -0.10776407055E+02  0.35109311901E+02 -0.17446174624E+02  0.50528883677E+02  0.30000072424E+02 0.  0.
         12    1    1    2    0    0  0.10776407055E+02 -0.35109311901E+02  0.17446174624E+02  0.40659116323E+02  0.00000000000E+00 0. -1.
         11    1    3    3    0    0 -0.10234142333E+02  0.24601469074E+02  0.54137589812E+00  0.26650760552E+02  0.51100000000E-03 0. -1.
        -11    1    3    3    0    0  0.44992604573E+01  0.94891439734E+01 -0.13020700260E+02  0.16727995503E+02  0.51100000000E-03 0.  1.
         12    1    3    3    0    0 -0.50415251793E+01  0.10186988537E+01 -0.49668502621E+01  0.71501276223E+01  0.00000000000E+00 0. -1.
</event>
<event>
 7    1  0.2942034E-011  0.5052885E+02  0.7816164E-02  0.1300439E+00
        -11   -1    0    0    0    0  0.00000000000E+00  0.00000000000E+00  0.45593999997E+02  0.45594000000E+02  0.51100000000E-03 0.  1.
         11   -1    0    0    0    0 -0.00000000000E+00 -0.00000000000E+00 -0.45593999997E+02  0.45594000000E+02  0.51100000000E-03 0. -1.
    9900012    2    1    2    0    0  0.12207426593E+02  0.34368095592E+02  0.17971612503E+02  0.50528854478E+02  0.29999983671E+02 0.  0.
         12    1    1    2    0    0 -0.12207426593E+02 -0.34368095592E+02 -0.17971612503E+02  0.40659145522E+02  0.00000000000E+00 0. -1.
         11    1    3    3    0    0 -0.13276125125E+01 -0.15965156568E+01 -0.19973293457E+01  0.28811008316E+01  0.51100000000E-03 0. -1.
        -11    1    3    3    0    0  0.10275319421E+02  0.34542787299E+02  0.23185409944E+02  0.42852649605E+02  0.51100000000E-03 0.  1.
        -12    1    3    3    0    0  0.32597196840E+01  0.14218239497E+01 -0.32164680955E+01  0.47951040418E+01  0.00000000000E+00 0.  1.
</event>
<event>
 7    1  0.2942034E-011  0.5052875E+02  0.7816164E-02  0.1300439E+00
        -11   -1    0    0    0    0  0.00000000000E+00  0.00000000000E+00  0.45593999997E+02  0.45594000000E+02  0.51100000000E-03 0. -1.
         11   -1    0    0    0    0 -0.00000000000E+00 -0.00000000000E+00 -0.45593999997E+02  0.45594000000E+02  0.51100000000E-03 0.  1.
    9900012    2    1    2    0    0 -0.28714617172E+02  0.24300470492E+02 -0.15431529641E+02  0.50528754895E+02  0.29999680976E+02 0.  0.
         12    1    1    2    0    0  0.28714617172E+02 -0.24300470492E+02  0.15431529641E+02  0.40659245105E+02  0.00000000000E+00 0. -1.
         11    1    3    3    0    0 -0.31399688269E+02  0.18082204738E+02 -0.13664893016E+02  0.38725132058E+02  0.51100000000E-03 0.  1.
        -11    1    3    3    0    0 -0.80966035356E+00 -0.90703384934E+00  0.25096481002E+01  0.27886545393E+01  0.51100000000E-03 0. -1.
         12    1    3    3    0    0  0.34947314499E+01  0.71252996030E+01 -0.42762847256E+01  0.90149682969E+01  0.00000000000E+00 0. -1.
</event>
<event>
 7    1  0.2942034E-011  0.5052886E+02  0.7816164E-02  0.1300439E+00
        -11   -1    0    0    0    0  0.00000000000E+00  0.00000000000E+00  0.45593999997E+02  0.45594000000E+02  0.51100000000E-03 0. -1.
         11   -1    0    0    0    0 -0.00000000000E+00 -0.00000000000E+00 -0.45593999997E+02  0.45594000000E+02  0.51100000000E-03 0.  1.
    9900012    2    1    2    0    0  0.15754727295E+02 -0.15008442314E+02 -0.34346770113E+02  0.50528863388E+02  0.30000010755E+02 0.  0.
         12    1    1    2    0    0 -0.15754727295E+02  0.15008442314E+02  0.34346770113E+02  0.40659136612E+02  0.00000000000E+00 0. -1.
         11    1    3    3    0    0  0.19670551045E+01 -0.61610107566E+01  0.35594867899E+01  0.73822290533E+01  0.51100000000E-03 0. -1.
        -11    1    3    3    0    0 -0.11211853247E+01 -0.10045949288E+01 -0.12947852644E+02  0.13035074064E+02  0.51100000000E-03 0.  1.
         12    1    3    3    0    0  0.14908857516E+02 -0.78428366288E+01 -0.24958404259E+02  0.30111560271E+02  0.00000000000E+00 0. -1.
</event>
<event>
 7    1  0.2942034E-011  0.5052887E+02  0.7816164E-02  0.1300439E+00
        -11   -1    0    0    0    0  0.00000000000E+00  0.00000000000E+00  0.45593999997E+02  0.45594000000E+02  0.51100000000E-03 0. -1.
         11   -1    0    0    0    0 -0.00000000000E+00 -0.00000000000E+00 -0.45593999997E+02  0.45594000000E+02  0.51100000000E-03 0.  1.
    9900012    2    1    2    0    0  0.23804561786E+02  0.32952629867E+02  0.79515317810E+00  0.50528865165E+02  0.30000016156E+02 0.  0.
         12    1    1    2    0    0 -0.23804561786E+02 -0.32952629867E+02 -0.79515317810E+00  0.40659134835E+02  0.00000000000E+00 0. -1.
         11    1    3    3    0    0  0.42960970958E+01  0.56734111843E+01  0.72774829747E+01  0.10178693601E+02  0.51100000000E-03 0. -1.
        -11    1    3    3    0    0  0.80262669953E+01  0.22539310425E+02 -0.11989911114E+02  0.26761902868E+02  0.51100000000E-03 0.  1.
        -12    1    3    3    0    0  0.11482197694E+02  0.47399082572E+01  0.55075813177E+01  0.13588268696E+02  0.00000000000E+00 0.  1.
</event>
<event>
 7    1  0.2942034E-011  0.5052887E+02  0.7816164E-02  0.1300439E+00
        -11   -1    0    0    0    0  0.00000000000E+00  0.00000000000E+00  0.45593999997E+02  0.45594000000E+02  0.51100000000E-03 0. -1.
         11   -1    0    0    0    0 -0.00000000000E+00 -0.00000000000E+00 -0.45593999997E+02  0.45594000000E+02  0.51100000000E-03 0.  1.
    9900012    2    1    2    0    0  0.67108918913E+01 -0.38562503936E+02  0.11002818077E+02  0.50528870823E+02  0.30000033354E+02 0.  0.
         12    1    1    2    0    0 -0.67108918913E+01  0.38562503936E+02 -0.11002818077E+02  0.40659129177E+02  0.00000000000E+00 0. -1.
         11    1    3    3    0    0  0.70491725704E+00  0.31143741310E+01 -0.32961958921E+01  0.45892420057E+01  0.51100000000E-03 0. -1.
        -11    1    3    3    0    0 -0.31352209282E+00 -0.28531865947E+02  0.59963434461E+01  0.29156848346E+02  0.51100000000E-03 0.  1.
         12    1    3    3    0    0  0.63194967270E+01 -0.13145012120E+02  0.83026705232E+01  0.16782780471E+02  0.00000000000E+00 0. -1.
</event>
<event>
 7    1  0.2942034E-011  0.5052889E+02  0.7816164E-02  0.1300439E+00
        -11   -1    0    0    0    0  0.00000000000E+00  0.00000000000E+00  0.45593999997E+02  0.45594000000E+02  0.51100000000E-03 0. -1.
         11   -1    0    0    0    0 -0.00000000000E+00 -0.00000000000E+00 -0.45593999997E+02  0.45594000000E+02  0.51100000000E-03 0.  1.
    9900012    2    1    2    0    0 -0.36462657646E+02  0.75114960452E+01 -0.16346709106E+02  0.50528894328E+02  0.30000104799E+02 0.  0.
         12    1    1    2    0    0  0.36462657646E+02 -0.75114960452E+01  0.16346709106E+02  0.40659105672E+02  0.00000000000E+00 0. -1.
         11    1    3    3    0    0 -0.27917599719E+02  0.10526669540E+02 -0.17044472222E+02  0.34361565436E+02  0.51100000000E-03 0. -1.
        -11    1    3    3    0    0 -0.58888848325E+01 -0.57762044965E+01 -0.47412869883E+01  0.95143736274E+01  0.51100000000E-03 0.  1.
         12    1    3    3    0    0 -0.26561730952E+01  0.27610310019E+01  0.54390501044E+01  0.66529552639E+01  0.00000000000E+00 0. -1.
</event>
<event>
 7    1  0.2942034E-011  0.5052887E+02  0.7816164E-02  0.1300439E+00
        -11   -1    0    0    0    0  0.00000000000E+00  0.00000000000E+00  0.45593999997E+02  0.45594000000E+02  0.51100000000E-03 0. -1.
         11   -1    0    0    0    0 -0.00000000000E+00 -0.00000000000E+00 -0.45593999997E+02  0.45594000000E+02  0.51100000000E-03 0.  1.
    9900012    2    1    2    0    0  0.32844872553E+02 -0.41748549492E+01  0.23599788070E+02  0.50528867400E+02  0.30000022948E+02 0.  0.
         12    1    1    2    0    0 -0.32844872553E+02  0.41748549492E+01 -0.23599788070E+02  0.40659132600E+02  0.00000000000E+00 0. -1.
         11    1    3    3    0    0 -0.82990128292E-01  0.26951877436E-01  0.38366452194E+00  0.39346218574E+00  0.51100000000E-03 0. -1.
        -11    1    3    3    0    0  0.28056616046E+02  0.58015549350E+01  0.25974969663E+02  0.38672093206E+02  0.51100000000E-03 0.  1.
        -12    1    3    3    0    0  0.48712466346E+01 -0.10003361762E+02 -0.27588461151E+01  0.11463312008E+02  0.00000000000E+00 0.  1.
</event>
<event>
 7    1  0.2942034E-011  0.5052888E+02  0.7816164E-02  0.1300439E+00
        -11   -1    0    0    0    0  0.00000000000E+00  0.00000000000E+00  0.45593999997E+02  0.45594000000E+02  0.51100000000E-03 0.  1.
         11   -1    0    0    0    0 -0.00000000000E+00 -0.00000000000E+00 -0.45593999997E+02  0.45594000000E+02  0.51100000000E-03 0. -1.
    9900012    2    1    2    0    0  0.11947468086E+02  0.38074768586E+01  0.38677187965E+02  0.50528883647E+02  0.30000072334E+02 0.  0.
         12    1    1    2    0    0 -0.11947468086E+02 -0.38074768586E+01 -0.38677187965E+02  0.40659116353E+02  0.00000000000E+00 0. -1.
         11    1    3    3    0    0  0.11279021304E+02 -0.66887282730E+01  0.68442195846E+01  0.14791847399E+02  0.51100000000E-03 0. -1.
        -11    1    3    3    0    0 -0.52573929943E+01  0.61203356748E+01  0.22127663685E+02  0.23552753348E+02  0.51100000000E-03 0.  1.
         12    1    3    3    0    0  0.59258397761E+01  0.43758694568E+01  0.97053046958E+01  0.12184282900E+02  0.00000000000E+00 0. -1.
</event>
<event>
 7    1  0.2942034E-011  0.5052887E+02  0.7816164E-02  0.1300439E+00
        -11   -1    0    0    0    0  0.00000000000E+00  0.00000000000E+00  0.45593999997E+02  0.45594000000E+02  0.51100000000E-03 0. -1.
         11   -1    0    0    0    0 -0.00000000000E+00 -0.00000000000E+00 -0.45593999997E+02  0.45594000000E+02  0.51100000000E-03 0.  1.
    9900012    2    1    2    0    0  0.31688110217E+02 -0.25382969195E+02 -0.21756887570E+01  0.50528867252E+02  0.30000022499E+02 0.  0.
         12    1    1    2    0    0 -0.31688110217E+02  0.25382969195E+02  0.21756887570E+01  0.40659132748E+02  0.00000000000E+00 0. -1.
         11    1    3    3    0    0 -0.30110759882E+01 -0.91250185105E+01 -0.27699394483E+01  0.10000255308E+02  0.51100000000E-03 0. -1.
        -11    1    3    3    0    0  0.15989489098E+02 -0.14515381135E+02 -0.13505899685E+01  0.21637563279E+02  0.51100000000E-03 0.  1.
         12    1    3    3    0    0  0.18709697107E+02 -0.17425695489E+01  0.19448406598E+01  0.18891048665E+02  0.00000000000E+00 0. -1.
</event>
<event>
 7    1  0.2942034E-011  0.5052885E+02  0.7816164E-02  0.1300439E+00
        -11   -1    0    0    0    0  0.00000000000E+00  0.00000000000E+00  0.45593999997E+02  0.45594000000E+02  0.51100000000E-03 0. -1.
         11   -1    0    0    0    0 -0.00000000000E+00 -0.00000000000E+00 -0.45593999997E+02  0.45594000000E+02  0.51100000000E-03 0.  1.
    9900012    2    1    2    0    0 -0.22035499421E+02  0.31956684118E+02  0.12098498841E+02  0.50528848893E+02  0.29999966694E+02 0.  0.
         12    1    1    2    0    0  0.22035499421E+02 -0.31956684118E+02 -0.12098498841E+02  0.40659151107E+02  0.00000000000E+00 0. -1.
         11    1    3    3    0    0 -0.10665668797E+02  0.14186838164E+02  0.10836080921E+02  0.20795276338E+02  0.51100000000E-03 0. -1.
        -11    1    3    3    0    0 -0.64272719558E+01  0.22262041066E+01 -0.83745161739E+01  0.10788805816E+02  0.51100000000E-03 0.  1.
        -12    1    3    3    0    0 -0.49425586677E+01  0.15543641847E+02  0.96369340944E+01  0.18944766739E+02  0.00000000000E+00 0.  1.
</event>
<event>
 7    1  0.2942034E-011  0.5052886E+02  0.7816164E-02  0.1300439E+00
        -11   -1    0    0    0    0  0.00000000000E+00  0.00000000000E+00  0.45593999997E+02  0.45594000000E+02  0.51100000000E-03 0. -1.
         11   -1    0    0    0    0 -0.00000000000E+00 -0.00000000000E+00 -0.45593999997E+02  0.45594000000E+02  0.51100000000E-03 0.  1.
    9900012    2    1    2    0    0  0.21445244371E+02  0.11238825417E+02 -0.32664288618E+02  0.50528862604E+02  0.30000008371E+02 0.  0.
         12    1    1    2    0    0 -0.21445244371E+02 -0.11238825417E+02  0.32664288618E+02  0.40659137396E+02  0.00000000000E+00 0. -1.
         11    1    3    3    0    0 -0.97380623870E+00 -0.13347863120E+01  0.12531601840E+01  0.20737318527E+01  0.51100000000E-03 0. -1.
        -11    1    3    3    0    0  0.24719784366E+02  0.72717375689E+01 -0.17759135199E+02  0.31294293244E+02  0.51100000000E-03 0.  1.
        -12    1    3    3    0    0 -0.23007337570E+01  0.53018741598E+01 -0.16158313603E+02  0.17160837507E+02  0.00000000000E+00 0.  1.
</event>
<event>
 7    1  0.2942034E-011  0.5052886E+02  0.7816164E-02  0.1300439E+00
        -11   -1    0    0    0    0  0.00000000000E+00  0.00000000000E+00  0.45593999997E+02  0.45594000000E+02  0.51100000000E-03 0. -1.
         11   -1    0    0    0    0 -0.00000000000E+00 -0.00000000000E+00 -0.45593999997E+02  0.45594000000E+02  0.51100000000E-03 0.  1.
    9900012    2    1    2    0    0  0.19057069765E+02 -0.24380973627E+01 -0.35833635233E+02  0.50528860304E+02  0.30000001380E+02 0.  0.
         12    1    1    2    0    0 -0.19057069765E+02  0.24380973627E+01  0.35833635233E+02  0.40659139696E+02  0.00000000000E+00 0. -1.
         11    1    3    3    0    0 -0.10804420767E+01 -0.65677886792E+01 -0.24569088211E+00  0.66605981328E+01  0.51100000000E-03 0.  1.
        -11    1    3    3    0    0  0.20596723326E+02  0.19615921337E+00 -0.33663700274E+02  0.39465278494E+02  0.51100000000E-03 0. -1.
         12    1    3    3    0    0 -0.45921148385E+00  0.39335321031E+01 -0.19242440776E+01  0.44029836774E+01  0.00000000000E+00 0. -1.
</event>
<event>
 7    1  0.2942034E-011  0.5052886E+02  0.7816164E-02  0.1300439E+00
        -11   -1    0    0    0    0  0.00000000000E+00  0.00000000000E+00  0.45593999997E+02  0.45594000000E+02  0.51100000000E-03 0. -1.
         11   -1    0    0    0    0 -0.00000000000E+00 -0.00000000000E+00 -0.45593999997E+02  0.45594000000E+02  0.51100000000E-03 0.  1.
    9900012    2    1    2    0    0  0.15377591234E+02  0.37184771209E+02 -0.58299318341E+01  0.50528860471E+02  0.30000001889E+02 0.  0.
         12    1    1    2    0    0 -0.15377591234E+02 -0.37184771209E+02  0.58299318341E+01  0.40659139529E+02  0.00000000000E+00 0. -1.
         11    1    3    3    0    0  0.51205305203E+01 -0.28874441374E+01 -0.61834838199E+01  0.85318602232E+01  0.51100000000E-03 0. -1.
        -11    1    3    3    0    0  0.42243761331E+01  0.86052698956E+01  0.24311121916E+01  0.98897083091E+01  0.51100000000E-03 0.  1.
         12    1    3    3    0    0  0.60326845806E+01  0.31466945451E+02 -0.20775602059E+01  0.32107291939E+02  0.00000000000E+00 0. -1.
</event>
<event>
 7    1  0.2942034E-011  0.5052887E+02  0.7816164E-02  0.1300439E+00
        -11   -1    0    0    0    0  0.00000000000E+00  0.00000000000E+00  0.45593999997E+02  0.45594000000E+02  0.51100000000E-03 0. -1.
         11   -1    0    0    0    0 -0.00000000000E+00 -0.00000000000E+00 -0.45593999997E+02  0.45594000000E+02  0.51100000000E-03 0.  1.
    9900012    2    1    2    0    0  0.18725500218E+01 -0.36665652994E+02 -0.17472496761E+02  0.50528871921E+02  0.30000036691E+02 0.  0.
         12    1    1    2    0    0 -0.18725500218E+01  0.36665652994E+02  0.17472496761E+02  0.40659128079E+02  0.00000000000E+00 0. -1.
         11    1    3    3    0    0 -0.39353382805E+01  0.23918526002E+01 -0.39480392135E+00  0.46220900728E+01  0.51100000000E-03 0. -1.
        -11    1    3    3    0    0  0.87463817549E+01 -0.34848704882E+02 -0.18724604270E+02  0.40515950329E+02  0.51100000000E-03 0.  1.
        -12    1    3    3    0    0 -0.29384934525E+01 -0.42088007123E+01  0.16469114305E+01  0.53908315190E+01  0.00000000000E+00 0.  1.
</event>
<event>
 7    1  0.2942034E-011  0.5052886E+02  0.7816164E-02  0.1300439E+00
        -11   -1    0    0    0    0  0.00000000000E+00  0.00000000000E+00  0.45593999997E+02  0.45594000000E+02  0.51100000000E-03 0.  1.
         11   -1    0    0    0    0 -0.00000000000E+00 -0.00000000000E+00 -0.45593999997E+02  0.45594000000E+02  0.51100000000E-03 0. -1.
    9900012    2    1    2    0    0  0.36645667456E+02 -0.11095778228E+02  0.13680063255E+02  0.50528863654E+02  0.30000011562E+02 0.  0.
         12    1    1    2    0    0 -0.36645667456E+02  0.11095778228E+02 -0.13680063255E+02  0.40659136346E+02  0.00000000000E+00 0. -1.
         11    1    3    3    0    0  0.24156012485E+01 -0.14922646505E+01 -0.26170635508E+01  0.38614770579E+01  0.51100000000E-03 0. -1.
        -11    1    3    3    0    0  0.24275519064E+02 -0.17969932591E+02  0.14622714427E+02  0.33556565388E+02  0.51100000000E-03 0.  1.
        -12    1    3    3    0    0  0.99545471432E+01  0.83664190132E+01  0.16744123781E+01  0.13110821208E+02  0.00000000000E+00 0.  1.
</event>
<event>
 7    1  0.2942034E-011  0.5052886E+02  0.7816164E-02  0.1300439E+00
        -11   -1    0    0    0    0  0.00000000000E+00  0.00000000000E+00  0.45593999997E+02  0.45594000000E+02  0.51100000000E-03 0. -1.
         11   -1    0    0    0    0 -0.00000000000E+00 -0.00000000000E+00 -0.45593999997E+02  0.45594000000E+02  0.51100000000E-03 0.  1.
    9900012    2    1    2    0    0 -0.32175661231E+02  0.12163587271E+02 -0.21678087588E+02  0.50528861883E+02  0.30000006181E+02 0.  0.
         12    1    1    2    0    0  0.32175661231E+02 -0.12163587271E+02  0.21678087588E+02  0.40659138117E+02  0.00000000000E+00 0. -1.
         11    1    3    3    0    0 -0.17273975423E+02  0.17610730455E+02 -0.27468078468E+01  0.24820818030E+02  0.51100000000E-03 0. -1.
        -11    1    3    3    0    0 -0.56834547671E+01 -0.34890106386E+01 -0.12892824648E+02  0.14515501404E+02  0.51100000000E-03 0.  1.
         12    1    3    3    0    0 -0.92182310401E+01 -0.19581325457E+01 -0.60384550924E+01  0.11192542449E+02  0.00000000000E+00 0. -1.
</event>
<event>
 7    1  0.2942034E-011  0.5052887E+02  0.7816164E-02  0.1300439E+00
        -11   -1    0    0    0    0  0.00000000000E+00  0.00000000000E+00  0.45593999997E+02  0.45594000000E+02  0.51100000000E-03 0.  1.
         11   -1    0    0    0    0 -0.00000000000E+00 -0.00000000000E+00 -0.45593999997E+02  0.45594000000E+02  0.51100000000E-03 0. -1.
    9900012    2    1    2    0    0  0.40074821687E+02  0.47234022084E+00  0.68520659595E+01  0.50528865154E+02  0.30000016121E+02 0.  0.
         12    1    1    2    0    0 -0.40074821687E+02 -0.47234022084E+00 -0.68520659595E+01  0.40659134846E+02  0.00000000000E+00 0. -1.
         11    1    3    3    0    0  0.49822957552E+01 -0.89731226833E+00 -0.22375660601E+01  0.55349022063E+01  0.51100000000E-03 0. -1.
        -11    1    3    3    0    0  0.27528251247E+02 -0.74046173402E+01  0.14754082919E+02  0.32098534822E+02  0.51100000000E-03 0.  1.
        -12    1    3    3    0    0  0.75642746847E+01  0.87742698294E+01 -0.56644508992E+01  0.12895428125E+02  0.00000000000E+00 0.  1.
</event>
<event>
 7    1  0.2942034E-011  0.5052884E+02  0.7816164E-02  0.1300439E+00
        -11   -1    0    0    0    0  0.00000000000E+00  0.00000000000E+00  0.45593999997E+02  0.45594000000E+02  0.51100000000E-03 0. -1.
         11   -1    0    0    0    0 -0.00000000000E+00 -0.00000000000E+00 -0.45593999997E+02  0.45594000000E+02  0.51100000000E-03 0.  1.
    9900012    2    1    2    0    0 -0.18556387173E+01 -0.23944558724E+02 -0.32808262721E+02  0.50528838790E+02  0.29999935986E+02 0.  0.
         12    1    1    2    0    0  0.18556387173E+01  0.23944558724E+02  0.32808262721E+02  0.40659161210E+02  0.00000000000E+00 0. -1.
         11    1    3    3    0    0 -0.67269392373E+01 -0.15969054184E+02 -0.16592166609E+02  0.23990881520E+02  0.51100000000E-03 0.  1.
        -11    1    3    3    0    0  0.86935334527E+01 -0.17687470188E+01 -0.17031138864E+02  0.19203272668E+02  0.51100000000E-03 0. -1.
        -12    1    3    3    0    0 -0.38222329327E+01 -0.62067575214E+01  0.81504275259E+00  0.73346846019E+01  0.00000000000E+00 0.  1.
</event>
<event>
 7    1  0.2942034E-011  0.5052886E+02  0.7816164E-02  0.1300439E+00
        -11   -1    0    0    0    0  0.00000000000E+00  0.00000000000E+00  0.45593999997E+02  0.45594000000E+02  0.51100000000E-03 0.  1.
         11   -1    0    0    0    0 -0.00000000000E+00 -0.00000000000E+00 -0.45593999997E+02  0.45594000000E+02  0.51100000000E-03 0. -1.
    9900012    2    1    2    0    0 -0.14698312921E+02  0.19174708842E+02  0.32702531627E+02  0.50528862813E+02  0.30000009008E+02 0.  0.
         12    1    1    2    0    0  0.14698312921E+02 -0.19174708842E+02 -0.32702531627E+02  0.40659137187E+02  0.00000000000E+00 0. -1.
         11    1    3    3    0    0 -0.39747905495E+01  0.39935718627E+01 -0.42628236703E+01  0.70653550541E+01  0.51100000000E-03 0. -1.
        -11    1    3    3    0    0 -0.48284694146E+01  0.12328434421E+02  0.33569915984E+02  0.36086613468E+02  0.51100000000E-03 0.  1.
         12    1    3    3    0    0 -0.58950529567E+01  0.28527025588E+01  0.33954393136E+01  0.73768942912E+01  0.00000000000E+00 0. -1.
</event>
<event>
 7    1  0.2942034E-011  0.5052886E+02  0.7816164E-02  0.1300439E+00
        -11   -1    0    0    0    0  0.00000000000E+00  0.00000000000E+00  0.45593999997E+02  0.45594000000E+02  0.51100000000E-03 0.  1.
         11   -1    0    0    0    0 -0.00000000000E+00 -0.00000000000E+00 -0.45593999997E+02  0.45594000000E+02  0.51100000000E-03 0. -1.
    9900012    2    1    2    0    0 -0.70201876432E+01  0.15922682304E+00  0.40048186657E+02  0.50528860287E+02  0.30000001327E+02 0.  0.
         12    1    1    2    0    0  0.70201876432E+01 -0.15922682304E+00 -0.40048186657E+02  0.40659139713E+02  0.00000000000E+00 0. -1.
         11    1    3    3    0    0 -0.10138296292E+02  0.53628121239E+01  0.77871890534E+01  0.13863084764E+02  0.51100000000E-03 0. -1.
        -11    1    3    3    0    0 -0.10497788645E-01 -0.20588709091E+01  0.32162937080E+02  0.32228769470E+02  0.51100000000E-03 0.  1.
         12    1    3    3    0    0  0.31286064370E+01 -0.31447143917E+01  0.98060523165E-01  0.44370060525E+01  0.00000000000E+00 0. -1.
</event>
<event>
 7    1  0.2942034E-011  0.5052886E+02  0.7816164E-02  0.1300439E+00
        -11   -1    0    0    0    0  0.00000000000E+00  0.00000000000E+00  0.45593999997E+02  0.45594000000E+02  0.51100000000E-03 0.  1.
         11   -1    0    0    0    0 -0.00000000000E+00 -0.00000000000E+00 -0.45593999997E+02  0.45594000000E+02  0.51100000000E-03 0. -1.
    9900012    2    1    2    0    0 -0.19989115067E+02 -0.29130580993E+02  0.20124869996E+02  0.50528857578E+02  0.29999993095E+02 0.  0.
         12    1    1    2    0    0  0.19989115067E+02  0.29130580993E+02 -0.20124869996E+02  0.40659142422E+02  0.00000000000E+00 0. -1.
         11    1    3    3    0    0 -0.23803352379E+01 -0.38183529401E+00  0.12596820285E+01  0.27200354980E+01  0.51100000000E-03 0. -1.
        -11    1    3    3    0    0  0.41999891864E+01 -0.17532864809E+02  0.13953800725E+02  0.22798022118E+02  0.51100000000E-03 0.  1.
        -12    1    3    3    0    0 -0.21808769015E+02 -0.11215880890E+02  0.49113872421E+01  0.25010799962E+02  0.00000000000E+00 0.  1.
</event>
<event>
 7    1  0.2942034E-011  0.5052873E+02  0.7816164E-02  0.1300439E+00
        -11   -1    0    0    0    0  0.00000000000E+00  0.00000000000E+00  0.45593999997E+02  0.45594000000E+02  0.51100000000E-03 0. -1.
         11   -1    0    0    0    0 -0.00000000000E+00 -0.00000000000E+00 -0.45593999997E+02  0.45594000000E+02  0.51100000000E-03 0.  1.
    9900012    2    1    2    0    0  0.10361083592E+02  0.34227246896E+02 -0.19347342315E+02  0.50528731218E+02  0.29999609007E+02 0.  0.
         12    1    1    2    0    0 -0.10361083592E+02 -0.34227246896E+02  0.19347342315E+02  0.40659268782E+02  0.00000000000E+00 0. -1.
         11    1    3    3    0    0  0.10131745688E+02  0.87069711944E+01  0.50839094287E+01  0.14293696282E+02  0.51100000000E-03 0. -1.
        -11    1    3    3    0    0  0.34311190668E+01  0.20622218955E+02 -0.18882763598E+02  0.28171035729E+02  0.51100000000E-03 0.  1.
         12    1    3    3    0    0 -0.32017811627E+01  0.48980567463E+01 -0.55484881461E+01  0.80639992070E+01  0.00000000000E+00 0. -1.
</event>
<event>
 7    1  0.2942034E-011  0.5052886E+02  0.7816164E-02  0.1300439E+00
        -11   -1    0    0    0    0  0.00000000000E+00  0.00000000000E+00  0.45593999997E+02  0.45594000000E+02  0.51100000000E-03 0. -1.
         11   -1    0    0    0    0 -0.00000000000E+00 -0.00000000000E+00 -0.45593999997E+02  0.45594000000E+02  0.51100000000E-03 0.  1.
    9900012    2    1    2    0    0  0.73340971185E+01 -0.23512565705E+02 -0.32350213231E+02  0.50528855608E+02  0.29999987107E+02 0.  0.
         12    1    1    2    0    0 -0.73340971185E+01  0.23512565705E+02  0.32350213231E+02  0.40659144392E+02  0.00000000000E+00 0. -1.
         11    1    3    3    0    0 -0.75079198170E+01 -0.11006727336E+02 -0.69636618145E+01  0.15033612099E+02  0.51100000000E-03 0. -1.
        -11    1    3    3    0    0  0.15203570380E+02 -0.15437904508E+02 -0.23621294972E+02  0.32053752110E+02  0.51100000000E-03 0.  1.
        -12    1    3    3    0    0 -0.36155344464E+00  0.29320661391E+01 -0.17652564449E+01  0.34414913996E+01  0.00000000000E+00 0.  1.
</event>
<event>
 7    1  0.2942034E-011  0.5052883E+02  0.7816164E-02  0.1300439E+00
        -11   -1    0    0    0    0  0.00000000000E+00  0.00000000000E+00  0.45593999997E+02  0.45594000000E+02  0.51100000000E-03 0.  1.
         11   -1    0    0    0    0 -0.00000000000E+00 -0.00000000000E+00 -0.45593999997E+02  0.45594000000E+02  0.51100000000E-03 0. -1.
    9900012    2    1    2    0    0 -0.72553815099E+01 -0.16501548997E+02  0.36444838970E+02  0.50528831690E+02  0.29999914404E+02 0.  0.
         12    1    1    2    0    0  0.72553815099E+01  0.16501548997E+02 -0.36444838970E+02  0.40659168310E+02  0.00000000000E+00 0. -1.
         11    1    3    3    0    0 -0.43979589266E+01  0.50712340092E+01  0.23379013841E+02  0.24323604699E+02  0.51100000000E-03 0. -1.
        -11    1    3    3    0    0 -0.29262193531E+01 -0.16572231851E+02  0.12895487652E+02  0.21201302561E+02  0.51100000000E-03 0.  1.
         12    1    3    3    0    0  0.68796769817E-01 -0.50005511549E+01  0.17033747654E+00  0.50039244303E+01  0.00000000000E+00 0. -1.
</event>
<event>
 7    1  0.2942034E-011  0.5052886E+02  0.7816164E-02  0.1300439E+00
        -11   -1    0    0    0    0  0.00000000000E+00  0.00000000000E+00  0.45593999997E+02  0.45594000000E+02  0.51100000000E-03 0.  1.
         11   -1    0    0    0    0 -0.00000000000E+00 -0.00000000000E+00 -0.45593999997E+02  0.45594000000E+02  0.51100000000E-03 0. -1.
    9900012    2    1    2    0    0 -0.25200506593E+02 -0.15095900569E+02  0.28110737277E+02  0.50528864535E+02  0.30000014240E+02 0.  0.
         12    1    1    2    0    0  0.25200506593E+02  0.15095900569E+02 -0.28110737277E+02  0.40659135465E+02  0.00000000000E+00 0. -1.
         11    1    3    3    0    0  0.33367387667E+01 -0.56632296434E+01  0.87679658275E+01  0.10958248975E+02  0.51100000000E-03 0. -1.
        -11    1    3    3    0    0 -0.25408528864E+02 -0.13474185786E+02  0.18955345854E+02  0.34444914840E+02  0.51100000000E-03 0.  1.
         12    1    3    3    0    0 -0.31287164963E+01  0.40415148600E+01  0.38742559502E+00  0.51257007199E+01  0.00000000000E+00 0. -1.
</event>
<event>
 7    1  0.2942034E-011  0.5052889E+02  0.7816164E-02  0.1300439E+00
        -11   -1    0    0    0    0  0.00000000000E+00  0.00000000000E+00  0.45593999997E+02  0.45594000000E+02  0.51100000000E-03 0. -1.
         11   -1    0    0    0    0 -0.00000000000E+00 -0.00000000000E+00 -0.45593999997E+02  0.45594000000E+02  0.51100000000E-03 0.  1.
    9900012    2    1    2    0    0 -0.27152001071E+02 -0.23177269734E+02 -0.19461410466E+02  0.50528886731E+02  0.30000081707E+02 0.  0.
         12    1    1    2    0    0  0.27152001071E+02  0.23177269734E+02  0.19461410466E+02  0.40659113269E+02  0.00000000000E+00 0. -1.
         11    1    3    3    0    0 -0.12042867741E+02  0.34399836069E+01  0.11201361768E+01  0.12574532037E+02  0.51100000000E-03 0. -1.
        -11    1    3    3    0    0 -0.15439450415E+02 -0.23840532183E+02 -0.16035791757E+02  0.32617391395E+02  0.51100000000E-03 0.  1.
         12    1    3    3    0    0  0.33031708472E+00 -0.27767211584E+01 -0.45457548857E+01  0.53369632985E+01  0.00000000000E+00 0. -1.
</event>
<event>
 7    1  0.2942034E-011  0.5052887E+02  0.7816164E-02  0.1300439E+00
        -11   -1    0    0    0    0  0.00000000000E+00  0.00000000000E+00  0.45593999997E+02  0.45594000000E+02  0.51100000000E-03 0.  1.
         11   -1    0    0    0    0 -0.00000000000E+00 -0.00000000000E+00 -0.45593999997E+02  0.45594000000E+02  0.51100000000E-03 0. -1.
    9900012    2    1    2    0    0 -0.20031168322E+02 -0.35139514935E+02 -0.41390836722E+01  0.50528865383E+02  0.30000016817E+02 0.  0.
         12    1    1    2    0    0  0.20031168322E+02  0.35139514935E+02  0.41390836722E+01  0.40659134617E+02  0.00000000000E+00 0. -1.
         11    1    3    3    0    0 -0.12217565974E+02 -0.20342422364E+02 -0.13913315586E+02  0.27507515642E+02  0.51100000000E-03 0. -1.
        -11    1    3    3    0    0 -0.31785789118E+01 -0.61347928949E+01  0.11133663053E+02  0.13103339307E+02  0.51100000000E-03 0.  1.
        -12    1    3    3    0    0 -0.46350234364E+01 -0.86622996759E+01 -0.13594311390E+01  0.99180104332E+01  0.00000000000E+00 0.  1.
</event>
<event>
 7    1  0.2942034E-011  0.5052886E+02  0.7816164E-02  0.1300439E+00
        -11   -1    0    0    0    0  0.00000000000E+00  0.00000000000E+00  0.45593999997E+02  0.45594000000E+02  0.51100000000E-03 0.  1.
         11   -1    0    0    0    0 -0.00000000000E+00 -0.00000000000E+00 -0.45593999997E+02  0.45594000000E+02  0.51100000000E-03 0. -1.
    9900012    2    1    2    0    0 -0.16281101714E+02 -0.88853821250E+01  0.36182063572E+02  0.50528855729E+02  0.29999987474E+02 0.  0.
         12    1    1    2    0    0  0.16281101714E+02  0.88853821250E+01 -0.36182063572E+02  0.40659144271E+02  0.00000000000E+00 0. -1.
         11    1    3    3    0    0  0.21148689120E+01  0.59258152561E+01  0.49949839036E+01  0.80335435160E+01  0.51100000000E-03 0. -1.
        -11    1    3    3    0    0 -0.82400364847E+01 -0.16619093089E+02  0.19968664175E+02  0.27255091370E+02  0.51100000000E-03 0.  1.
         12    1    3    3    0    0 -0.10155934141E+02  0.18078957081E+01  0.11218415493E+02  0.15240220843E+02  0.00000000000E+00 0. -1.
</event>
<event>
 7    1  0.2942034E-011  0.5052886E+02  0.7816164E-02  0.1300439E+00
        -11   -1    0    0    0    0  0.00000000000E+00  0.00000000000E+00  0.45593999997E+02  0.45594000000E+02  0.51100000000E-03 0.  1.
         11   -1    0    0    0    0 -0.00000000000E+00 -0.00000000000E+00 -0.45593999997E+02  0.45594000000E+02  0.51100000000E-03 0. -1.
    9900012    2    1    2    0    0  0.10036845725E+02 -0.11721459967E+01  0.39383411376E+02  0.50528864618E+02  0.30000014494E+02 0.  0.
         12    1    1    2    0    0 -0.10036845725E+02  0.11721459967E+01 -0.39383411376E+02  0.40659135382E+02  0.00000000000E+00 0. -1.
         11    1    3    3    0    0  0.53505364076E+01 -0.48452188265E-01 -0.23357757513E+01  0.58383590233E+01  0.51100000000E-03 0. -1.
        -11    1    3    3    0    0  0.38425149489E+01  0.32349175674E+01  0.39328964412E+02  0.39648418062E+02  0.51100000000E-03 0.  1.
        -12    1    3    3    0    0  0.84379436854E+00 -0.43586113759E+01  0.23902227156E+01  0.50420875332E+01  0.00000000000E+00 0.  1.
</event>
<event>
 7    1  0.2942034E-011  0.5052886E+02  0.7816164E-02  0.1300439E+00
        -11   -1    0    0    0    0  0.00000000000E+00  0.00000000000E+00  0.45593999997E+02  0.45594000000E+02  0.51100000000E-03 0.  1.
         11   -1    0    0    0    0 -0.00000000000E+00 -0.00000000000E+00 -0.45593999997E+02  0.45594000000E+02  0.51100000000E-03 0. -1.
    9900012    2    1    2    0    0 -0.78633988949E+01  0.32560493646E+02  0.23046619805E+02  0.50528862367E+02  0.30000007650E+02 0.  0.
         12    1    1    2    0    0  0.78633988949E+01 -0.32560493646E+02 -0.23046619805E+02  0.40659137633E+02  0.00000000000E+00 0. -1.
         11    1    3    3    0    0 -0.82500874708E+01  0.10493061674E+02  0.20702896389E+01  0.13507567731E+02  0.51100000000E-03 0. -1.
        -11    1    3    3    0    0  0.10553283782E+02  0.85442582664E+01  0.89130908588E+01  0.16242516333E+02  0.51100000000E-03 0.  1.
        -12    1    3    3    0    0 -0.10166595206E+02  0.13523173705E+02  0.12063239307E+02  0.20778778302E+02  0.00000000000E+00 0.  1.
</event>
<event>
 7    1  0.2942034E-011  0.5052885E+02  0.7816164E-02  0.1300439E+00
        -11   -1    0    0    0    0  0.00000000000E+00  0.00000000000E+00  0.45593999997E+02  0.45594000000E+02  0.51100000000E-03 0.  1.
         11   -1    0    0    0    0 -0.00000000000E+00 -0.00000000000E+00 -0.45593999997E+02  0.45594000000E+02  0.51100000000E-03 0. -1.
    9900012    2    1    2    0    0  0.20682846845E+02  0.96454694701E+01  0.33650421788E+02  0.50528854394E+02  0.29999983415E+02 0.  0.
         12    1    1    2    0    0 -0.20682846845E+02 -0.96454694701E+01 -0.33650421788E+02  0.40659145606E+02  0.00000000000E+00 0. -1.
         11    1    3    3    0    0  0.28710146884E+01  0.10760241471E+02  0.20220072980E+02  0.23084126006E+02  0.51100000000E-03 0. -1.
        -11    1    3    3    0    0  0.11700247265E+02 -0.29962287565E+01  0.16421769742E+02  0.20384986989E+02  0.51100000000E-03 0.  1.
         12    1    3    3    0    0  0.61115848923E+01  0.18814567560E+01 -0.29914209342E+01  0.70597413994E+01  0.00000000000E+00 0. -1.
</event>
<event>
 7    1  0.2942034E-011  0.5052886E+02  0.7816164E-02  0.1300439E+00
        -11   -1    0    0    0    0  0.00000000000E+00  0.00000000000E+00  0.45593999997E+02  0.45594000000E+02  0.51100000000E-03 0. -1.
         11   -1    0    0    0    0 -0.00000000000E+00 -0.00000000000E+00 -0.45593999997E+02  0.45594000000E+02  0.51100000000E-03 0.  1.
    9900012    2    1    2    0    0 -0.14830209605E+02 -0.20180632064E+02 -0.32030808256E+02  0.50528859515E+02  0.29999998982E+02 0.  0.
         12    1    1    2    0    0  0.14830209605E+02  0.20180632064E+02  0.32030808256E+02  0.40659140485E+02  0.00000000000E+00 0. -1.
         11    1    3    3    0    0 -0.19717650167E+01 -0.10232711644E+01  0.35778165917E+01  0.42113789881E+01  0.51100000000E-03 0. -1.
        -11    1    3    3    0    0 -0.17244188975E+02 -0.13457614618E+02 -0.30336824925E+02  0.37400433037E+02  0.51100000000E-03 0.  1.
        -12    1    3    3    0    0  0.43857443869E+01 -0.56997462815E+01 -0.52717999235E+01  0.89170474898E+01  0.00000000000E+00 0.  1.
</event>
<event>
 7    1  0.2942034E-011  0.5052886E+02  0.7816164E-02  0.1300439E+00
        -11   -1    0    0    0    0  0.00000000000E+00  0.00000000000E+00  0.45593999997E+02  0.45594000000E+02  0.51100000000E-03 0.  1.
         11   -1    0    0    0    0 -0.00000000000E+00 -0.00000000000E+00 -0.45593999997E+02  0.45594000000E+02  0.51100000000E-03 0. -1.
    9900012    2    1    2    0    0  0.89121969676E+01  0.39568824391E+02 -0.28366251058E+01  0.50528861292E+02  0.30000004383E+02 0.  0.
         12    1    1    2    0    0 -0.89121969676E+01 -0.39568824391E+02  0.28366251058E+01  0.40659138708E+02  0.00000000000E+00 0. -1.
         11    1    3    3    0    0  0.29366919621E+01 -0.19386468156E+01  0.20885166750E+00  0.35250716923E+01  0.51100000000E-03 0. -1.
        -11    1    3    3    0    0  0.81641253737E+01  0.39276981219E+02  0.29687167618E+01  0.40226203851E+02  0.51100000000E-03 0.  1.
        -12    1    3    3    0    0 -0.21886203682E+01  0.22304899878E+01 -0.60141935351E+01  0.67775857486E+01  0.00000000000E+00 0.  1.
</event>
<event>
 7    1  0.2942034E-011  0.5052886E+02  0.7816164E-02  0.1300439E+00
        -11   -1    0    0    0    0  0.00000000000E+00  0.00000000000E+00  0.45593999997E+02  0.45594000000E+02  0.51100000000E-03 0. -1.
         11   -1    0    0    0    0 -0.00000000000E+00 -0.00000000000E+00 -0.45593999997E+02  0.45594000000E+02  0.51100000000E-03 0.  1.
    9900012    2    1    2    0    0  0.33772916379E+02 -0.22314909746E+02  0.38210414888E+01  0.50528862825E+02  0.30000009043E+02 0.  0.
         12    1    1    2    0    0 -0.33772916379E+02  0.22314909746E+02 -0.38210414888E+01  0.40659137175E+02  0.00000000000E+00 0. -1.
         11    1    3    3    0    0 -0.33405717814E+01  0.19056579195E+01 -0.79210647080E+00  0.39266251228E+01  0.51100000000E-03 0. -1.
        -11    1    3    3    0    0  0.23666533204E+02 -0.22358443457E+02  0.54075755147E+01  0.33003737075E+02  0.51100000000E-03 0.  1.
         12    1    3    3    0    0  0.13446954957E+02 -0.18621242091E+01 -0.79442755510E+00  0.13598500627E+02  0.00000000000E+00 0. -1.
</event>
<event>
 7    1  0.2942034E-011  0.5052892E+02  0.7816164E-02  0.1300439E+00
        -11   -1    0    0    0    0  0.00000000000E+00  0.00000000000E+00  0.45593999997E+02  0.45594000000E+02  0.51100000000E-03 0.  1.
         11   -1    0    0    0    0 -0.00000000000E+00 -0.00000000000E+00 -0.45593999997E+02  0.45594000000E+02  0.51100000000E-03 0. -1.
    9900012    2    1    2    0    0 -0.40159112372E+02  0.59461589722E+00 -0.63287264910E+01  0.50528921634E+02  0.30000187800E+02 0.  0.
         12    1    1    2    0    0  0.40159112372E+02 -0.59461589722E+00  0.63287264910E+01  0.40659078366E+02  0.00000000000E+00 0. -1.
         11    1    3    3    0    0  0.15436104418E+01  0.49472928138E+00  0.13455840690E+01  0.21066767683E+01  0.51100000000E-03 0. -1.
        -11    1    3    3    0    0 -0.42336483402E+02  0.51097172534E+01 -0.58022594197E+01  0.43036650101E+02  0.51100000000E-03 0.  1.
        -12    1    3    3    0    0  0.63376058903E+00 -0.50098306376E+01 -0.18720511403E+01  0.53855947650E+01  0.00000000000E+00 0.  1.
</event>
<event>
 7    1  0.2942034E-011  0.5052886E+02  0.7816164E-02  0.1300439E+00
        -11   -1    0    0    0    0  0.00000000000E+00  0.00000000000E+00  0.45593999997E+02  0.45594000000E+02  0.51100000000E-03 0. -1.
         11   -1    0    0    0    0 -0.00000000000E+00 -0.00000000000E+00 -0.45593999997E+02  0.45594000000E+02  0.51100000000E-03 0.  1.
    9900012    2    1    2    0    0 -0.81158676343E+01  0.39543095587E+02  0.48622689228E+01  0.50528863571E+02  0.30000011310E+02 0.  0.
         12    1    1    2    0    0  0.81158676343E+01 -0.39543095587E+02 -0.48622689228E+01  0.40659136429E+02  0.00000000000E+00 0. -1.
         11    1    3    3    0    0  0.37326571196E+01  0.16889854474E+02 -0.10306003628E+01  0.17328071176E+02  0.51100000000E-03 0. -1.
        -11    1    3    3    0    0 -0.15276257786E+02  0.16217348996E+02  0.10443492019E+02  0.24605547875E+02  0.51100000000E-03 0.  1.
        -12    1    3    3    0    0  0.34277330324E+01  0.64358921174E+01 -0.45506227336E+01  0.85952445196E+01  0.00000000000E+00 0.  1.
</event>
<event>
 7    1  0.2942034E-011  0.5052887E+02  0.7816164E-02  0.1300439E+00
        -11   -1    0    0    0    0  0.00000000000E+00  0.00000000000E+00  0.45593999997E+02  0.45594000000E+02  0.51100000000E-03 0. -1.
         11   -1    0    0    0    0 -0.00000000000E+00 -0.00000000000E+00 -0.45593999997E+02  0.45594000000E+02  0.51100000000E-03 0.  1.
    9900012    2    1    2    0    0  0.99803434696E+01 -0.39361636890E+02  0.20541460726E+01  0.50528865350E+02  0.30000016717E+02 0.  0.
         12    1    1    2    0    0 -0.99803434696E+01  0.39361636890E+02 -0.20541460726E+01  0.40659134650E+02  0.00000000000E+00 0. -1.
         11    1    3    3    0    0  0.45243897886E+01 -0.25779553600E+02 -0.86303450741E+01  0.27559723205E+02  0.51100000000E-03 0.  1.
        -11    1    3    3    0    0  0.96709811260E+00 -0.13726983528E+02  0.12032858634E+02  0.18279908170E+02  0.51100000000E-03 0. -1.
        -12    1    3    3    0    0  0.44888555684E+01  0.14490023755E+00 -0.13483674873E+01  0.46892339752E+01  0.00000000000E+00 0.  1.
</event>
<event>
 7    1  0.2942034E-011  0.5052883E+02  0.7816164E-02  0.1300439E+00
        -11   -1    0    0    0    0  0.00000000000E+00  0.00000000000E+00  0.45593999997E+02  0.45594000000E+02  0.51100000000E-03 0.  1.
         11   -1    0    0    0    0 -0.00000000000E+00 -0.00000000000E+00 -0.45593999997E+02  0.45594000000E+02  0.51100000000E-03 0. -1.
    9900012    2    1    2    0    0 -0.87883576481E+01  0.32278474311E+00  0.39696710039E+02  0.50528828734E+02  0.29999905420E+02 0.  0.
         12    1    1    2    0    0  0.87883576481E+01 -0.32278474311E+00 -0.39696710039E+02  0.40659171266E+02  0.00000000000E+00 0. -1.
         11    1    3    3    0    0 -0.60252197420E+01  0.29514834806E+01  0.70074563187E+01  0.97014932869E+01  0.51100000000E-03 0.  1.
        -11    1    3    3    0    0  0.84054511126E+01 -0.17792522039E+01  0.30081327778E+01  0.91030879311E+01  0.51100000000E-03 0. -1.
        -12    1    3    3    0    0 -0.11168589019E+02 -0.84944653364E+00  0.29681120942E+02  0.31724247516E+02  0.00000000000E+00 0.  1.
</event>
<event>
 7    1  0.2942034E-011  0.5052886E+02  0.7816164E-02  0.1300439E+00
        -11   -1    0    0    0    0  0.00000000000E+00  0.00000000000E+00  0.45593999997E+02  0.45594000000E+02  0.51100000000E-03 0.  1.
         11   -1    0    0    0    0 -0.00000000000E+00 -0.00000000000E+00 -0.45593999997E+02  0.45594000000E+02  0.51100000000E-03 0. -1.
    9900012    2    1    2    0    0  0.34126939532E+02 -0.10410533679E+02  0.19497147772E+02  0.50528856077E+02  0.29999988532E+02 0.  0.
         12    1    1    2    0    0 -0.34126939532E+02  0.10410533679E+02 -0.19497147772E+02  0.40659143923E+02  0.00000000000E+00 0. -1.
         11    1    3    3    0    0  0.10017486779E+01 -0.17064709308E+01 -0.47239832679E+01  0.51216756660E+01  0.51100000000E-03 0. -1.
        -11    1    3    3    0    0  0.26568470653E+02  0.18628585601E+00  0.12708925537E+02  0.29452251591E+02  0.51100000000E-03 0.  1.
        -12    1    3    3    0    0  0.65567202015E+01 -0.88903486046E+01  0.11512205503E+02  0.15954928820E+02  0.00000000000E+00 0.  1.
</event>
<event>
 7    1  0.2942034E-011  0.5052885E+02  0.7816164E-02  0.1300439E+00
        -11   -1    0    0    0    0  0.00000000000E+00  0.00000000000E+00  0.45593999997E+02  0.45594000000E+02  0.51100000000E-03 0.  1.
         11   -1    0    0    0    0 -0.00000000000E+00 -0.00000000000E+00 -0.45593999997E+02  0.45594000000E+02  0.51100000000E-03 0. -1.
    9900012    2    1    2    0    0 -0.34395438186E+02  0.92395545182E+01  0.19615059927E+02  0.50528854514E+02  0.29999983781E+02 0.  0.
         12    1    1    2    0    0  0.34395438186E+02 -0.92395545182E+01 -0.19615059927E+02  0.40659145486E+02  0.00000000000E+00 0. -1.
         11    1    3    3    0    0  0.14120918556E+01 -0.24812300859E+01  0.10372501815E+02  0.10758220127E+02  0.51100000000E-03 0. -1.
        -11    1    3    3    0    0 -0.23576544983E+02  0.40938388733E+01  0.82916230149E+01  0.25325165400E+02  0.51100000000E-03 0.  1.
         12    1    3    3    0    0 -0.12230985059E+02  0.76269457308E+01  0.95093509704E+00  0.14445468987E+02  0.00000000000E+00 0. -1.
</event>
<event>
 7    1  0.2942034E-011  0.5052886E+02  0.7816164E-02  0.1300439E+00
        -11   -1    0    0    0    0  0.00000000000E+00  0.00000000000E+00  0.45593999997E+02  0.45594000000E+02  0.51100000000E-03 0.  1.
         11   -1    0    0    0    0 -0.00000000000E+00 -0.00000000000E+00 -0.45593999997E+02  0.45594000000E+02  0.51100000000E-03 0. -1.
    9900012    2    1    2    0    0 -0.21848614060E+02 -0.34173971784E+02  0.28184262408E+01  0.50528858219E+02  0.29999995044E+02 0.  0.
         12    1    1    2    0    0  0.21848614060E+02  0.34173971784E+02 -0.28184262408E+01  0.40659141781E+02  0.00000000000E+00 0. -1.
         11    1    3    3    0    0 -0.14829037787E+00 -0.73197854860E+01 -0.58458622349E+01  0.93688502565E+01  0.51100000000E-03 0. -1.
        -11    1    3    3    0    0 -0.69659729003E+01  0.44001090068E+00  0.73187995641E+01  0.10113516469E+02  0.51100000000E-03 0.  1.
        -12    1    3    3    0    0 -0.14734350782E+02 -0.27294197199E+02  0.13454889116E+01  0.31046491494E+02  0.00000000000E+00 0.  1.
</event>
<event>
 7    1  0.2942034E-011  0.5052886E+02  0.7816164E-02  0.1300439E+00
        -11   -1    0    0    0    0  0.00000000000E+00  0.00000000000E+00  0.45593999997E+02  0.45594000000E+02  0.51100000000E-03 0.  1.
         11   -1    0    0    0    0 -0.00000000000E+00 -0.00000000000E+00 -0.45593999997E+02  0.45594000000E+02  0.51100000000E-03 0. -1.
    9900012    2    1    2    0    0  0.11568317656E+01  0.33836011646E+02  0.22515586398E+02  0.50528861117E+02  0.30000003853E+02 0.  0.
         12    1    1    2    0    0 -0.11568317656E+01 -0.33836011646E+02 -0.22515586398E+02  0.40659138883E+02  0.00000000000E+00 0. -1.
         11    1    3    3    0    0 -0.30382429363E+01  0.33845622704E+02  0.99867031249E+01  0.35418799188E+02  0.51100000000E-03 0.  1.
        -11    1    3    3    0    0  0.24174738357E+00  0.24012429837E+01  0.89161545189E+01  0.92370028326E+01  0.51100000000E-03 0. -1.
         12    1    3    3    0    0  0.39533273184E+01 -0.24108540422E+01  0.36127287544E+01  0.58730590966E+01  0.00000000000E+00 0. -1.
</event>
<event>
 7    1  0.2942034E-011  0.5052885E+02  0.7816164E-02  0.1300439E+00
        -11   -1    0    0    0    0  0.00000000000E+00  0.00000000000E+00  0.45593999997E+02  0.45594000000E+02  0.51100000000E-03 0.  1.
         11   -1    0    0    0    0 -0.00000000000E+00 -0.00000000000E+00 -0.45593999997E+02  0.45594000000E+02  0.51100000000E-03 0. -1.
    9900012    2    1    2    0    0  0.32570929559E+02 -0.46563424505E+01  0.23887643042E+02  0.50528850138E+02  0.29999970479E+02 0.  0.
         12    1    1    2    0    0 -0.32570929559E+02  0.46563424505E+01 -0.23887643042E+02  0.40659149862E+02  0.00000000000E+00 0. -1.
         11    1    3    3    0    0 -0.81507235178E+00 -0.87832115571E+01  0.10083350837E+02  0.13397130759E+02  0.51100000000E-03 0. -1.
        -11    1    3    3    0    0  0.33368920432E+02  0.42894410209E+01  0.12614303180E+02  0.35930555243E+02  0.51100000000E-03 0.  1.
        -12    1    3    3    0    0  0.17081479481E-01 -0.16257191433E+00  0.11899890248E+01  0.12011641367E+01  0.00000000000E+00 0.  1.
</event>
<event>
 7    1  0.2942034E-011  0.5052886E+02  0.7816164E-02  0.1300439E+00
        -11   -1    0    0    0    0  0.00000000000E+00  0.00000000000E+00  0.45593999997E+02  0.45594000000E+02  0.51100000000E-03 0. -1.
         11   -1    0    0    0    0 -0.00000000000E+00 -0.00000000000E+00 -0.45593999997E+02  0.45594000000E+02  0.51100000000E-03 0.  1.
    9900012    2    1    2    0    0 -0.35585423998E+02 -0.18236376120E+01 -0.19583600554E+02  0.50528862455E+02  0.30000007918E+02 0.  0.
         12    1    1    2    0    0  0.35585423998E+02  0.18236376120E+01  0.19583600554E+02  0.40659137545E+02  0.00000000000E+00 0. -1.
         11    1    3    3    0    0 -0.11268251293E+02  0.85250642975E+01 -0.30700891179E+01  0.14459448673E+02  0.51100000000E-03 0. -1.
        -11    1    3    3    0    0 -0.26706790862E+02 -0.67515027832E+01 -0.15592292640E+02  0.31653673689E+02  0.51100000000E-03 0.  1.
        -12    1    3    3    0    0  0.23896181575E+01 -0.35971991262E+01 -0.92121879611E+00  0.44157400922E+01  0.00000000000E+00 0.  1.
</event>
<event>
 7    1  0.2942034E-011  0.5052886E+02  0.7816164E-02  0.1300439E+00
        -11   -1    0    0    0    0  0.00000000000E+00  0.00000000000E+00  0.45593999997E+02  0.45594000000E+02  0.51100000000E-03 0.  1.
         11   -1    0    0    0    0 -0.00000000000E+00 -0.00000000000E+00 -0.45593999997E+02  0.45594000000E+02  0.51100000000E-03 0. -1.
    9900012    2    1    2    0    0 -0.29850684813E+00  0.15864510861E+02  0.37435190113E+02  0.50528864864E+02  0.30000015242E+02 0.  0.
         12    1    1    2    0    0  0.29850684813E+00 -0.15864510861E+02 -0.37435190113E+02  0.40659135136E+02  0.00000000000E+00 0. -1.
         11    1    3    3    0    0  0.28055067457E+01  0.90316914326E+00  0.95662614973E+01  0.10009992103E+02  0.51100000000E-03 0. -1.
        -11    1    3    3    0    0  0.36814487943E+01  0.12778726223E+02  0.17120594845E+01  0.13408208569E+02  0.51100000000E-03 0.  1.
        -12    1    3    3    0    0 -0.67854623881E+01  0.21826154950E+01  0.26156869131E+02  0.27110664192E+02  0.00000000000E+00 0.  1.
</event>
<event>
 7    1  0.2942034E-011  0.5052890E+02  0.7816164E-02  0.1300439E+00
        -11   -1    0    0    0    0  0.00000000000E+00  0.00000000000E+00  0.45593999997E+02  0.45594000000E+02  0.51100000000E-03 0.  1.
         11   -1    0    0    0    0 -0.00000000000E+00 -0.00000000000E+00 -0.45593999997E+02  0.45594000000E+02  0.51100000000E-03 0. -1.
    9900012    2    1    2    0    0 -0.19293879012E+02 -0.18851679626E+02  0.30422405061E+02  0.50528901120E+02  0.30000125444E+02 0.  0.
         12    1    1    2    0    0  0.19293879012E+02  0.18851679626E+02 -0.30422405061E+02  0.40659098880E+02  0.00000000000E+00 0. -1.
         11    1    3    3    0    0 -0.10106597823E+02 -0.12380668519E+01  0.42088569308E+00  0.10190842660E+02  0.51100000000E-03 0. -1.
        -11    1    3    3    0    0  0.54067967341E+01 -0.73369201482E+01  0.99804721204E+01  0.13515682454E+02  0.51100000000E-03 0.  1.
        -12    1    3    3    0    0 -0.14594077923E+02 -0.10276692626E+02  0.20021047248E+02  0.26822376007E+02  0.00000000000E+00 0.  1.
</event>
<event>
 7    1  0.2942034E-011  0.5052887E+02  0.7816164E-02  0.1300439E+00
        -11   -1    0    0    0    0  0.00000000000E+00  0.00000000000E+00  0.45593999997E+02  0.45594000000E+02  0.51100000000E-03 0.  1.
         11   -1    0    0    0    0 -0.00000000000E+00 -0.00000000000E+00 -0.45593999997E+02  0.45594000000E+02  0.51100000000E-03 0. -1.
    9900012    2    1    2    0    0 -0.23459680391E+02 -0.27622205987E+02  0.18434251638E+02  0.50528874320E+02  0.30000043983E+02 0.  0.
         12    1    1    2    0    0  0.23459680391E+02  0.27622205987E+02 -0.18434251638E+02  0.40659125680E+02  0.00000000000E+00 0. -1.
         11    1    3    3    0    0 -0.97279341244E+01 -0.90821571468E+00  0.14536122302E+02  0.17514462879E+02  0.51100000000E-03 0. -1.
        -11    1    3    3    0    0 -0.14133248422E+02 -0.19869210961E+02  0.71725336680E+01  0.25416126665E+02  0.51100000000E-03 0.  1.
         12    1    3    3    0    0  0.40150215598E+00 -0.68447793108E+01 -0.32744043322E+01  0.75982847752E+01  0.00000000000E+00 0. -1.
</event>
<event>
 7    1  0.2942034E-011  0.5052883E+02  0.7816164E-02  0.1300439E+00
        -11   -1    0    0    0    0  0.00000000000E+00  0.00000000000E+00  0.45593999997E+02  0.45594000000E+02  0.51100000000E-03 0.  1.
         11   -1    0    0    0    0 -0.00000000000E+00 -0.00000000000E+00 -0.45593999997E+02  0.45594000000E+02  0.51100000000E-03 0. -1.
    9900012    2    1    2    0    0  0.12095440280E+02 -0.29755788586E+02  0.24929131602E+02  0.50528828435E+02  0.29999904511E+02 0.  0.
         12    1    1    2    0    0 -0.12095440280E+02  0.29755788586E+02 -0.24929131602E+02  0.40659171565E+02  0.00000000000E+00 0. -1.
         11    1    3    3    0    0  0.14492414013E+02 -0.35863402060E+01  0.61054653178E+01  0.16129742931E+02  0.51100000000E-03 0. -1.
        -11    1    3    3    0    0  0.44099961818E+01 -0.14061863240E+02  0.78507056228E+01  0.16697833486E+02  0.51100000000E-03 0.  1.
         12    1    3    3    0    0 -0.68069699145E+01 -0.12107585140E+02  0.10972960661E+02  0.17701252018E+02  0.00000000000E+00 0. -1.
</event>
<event>
 7    1  0.2942034E-011  0.5052886E+02  0.7816164E-02  0.1300439E+00
        -11   -1    0    0    0    0  0.00000000000E+00  0.00000000000E+00  0.45593999997E+02  0.45594000000E+02  0.51100000000E-03 0.  1.
         11   -1    0    0    0    0 -0.00000000000E+00 -0.00000000000E+00 -0.45593999997E+02  0.45594000000E+02  0.51100000000E-03 0. -1.
    9900012    2    1    2    0    0 -0.78041428012E+01 -0.28135545169E+00  0.39902157024E+02  0.50528856614E+02  0.29999990163E+02 0.  0.
         12    1    1    2    0    0  0.78041428012E+01  0.28135545169E+00 -0.39902157024E+02  0.40659143386E+02  0.00000000000E+00 0. -1.
         11    1    3    3    0    0 -0.12035108987E+01 -0.10445407562E+01 -0.31493091941E+01  0.35295399892E+01  0.51100000000E-03 0. -1.
        -11    1    3    3    0    0  0.16546688847E+01  0.14383436065E+01  0.36154497937E+02  0.36220912230E+02  0.51100000000E-03 0.  1.
        -12    1    3    3    0    0 -0.82553007871E+01 -0.67515830203E+00  0.68969682806E+01  0.10778404394E+02  0.00000000000E+00 0.  1.
</event>
<event>
 7    1  0.2942034E-011  0.5052886E+02  0.7816164E-02  0.1300439E+00
        -11   -1    0    0    0    0  0.00000000000E+00  0.00000000000E+00  0.45593999997E+02  0.45594000000E+02  0.51100000000E-03 0. -1.
         11   -1    0    0    0    0 -0.00000000000E+00 -0.00000000000E+00 -0.45593999997E+02  0.45594000000E+02  0.51100000000E-03 0.  1.
    9900012    2    1    2    0    0  0.10498008533E+02  0.11784543965E+02 -0.37471084292E+02  0.50528858130E+02  0.29999994771E+02 0.  0.
         12    1    1    2    0    0 -0.10498008533E+02 -0.11784543965E+02  0.37471084292E+02  0.40659141870E+02  0.00000000000E+00 0. -1.
         11    1    3    3    0    0  0.13042780276E+01 -0.30734511132E+01 -0.75309660202E+01  0.82378815467E+01  0.51100000000E-03 0. -1.
        -11    1    3    3    0    0  0.57216938376E+01  0.17387841341E+02 -0.80735772695E+01  0.20006435391E+02  0.51100000000E-03 0.  1.
        -12    1    3    3    0    0  0.34720366679E+01 -0.25298462626E+01 -0.21866541002E+02  0.22284541192E+02  0.00000000000E+00 0.  1.
</event>
<event>
 7    1  0.2942034E-011  0.5052886E+02  0.7816164E-02  0.1300439E+00
        -11   -1    0    0    0    0  0.00000000000E+00  0.00000000000E+00  0.45593999997E+02  0.45594000000E+02  0.51100000000E-03 0.  1.
         11   -1    0    0    0    0 -0.00000000000E+00 -0.00000000000E+00 -0.45593999997E+02  0.45594000000E+02  0.51100000000E-03 0. -1.
    9900012    2    1    2    0    0  0.11458955166E+02  0.33136081852E+02  0.20587818571E+02  0.50528857762E+02  0.29999993654E+02 0.  0.
         12    1    1    2    0    0 -0.11458955166E+02 -0.33136081852E+02 -0.20587818571E+02  0.40659142238E+02  0.00000000000E+00 0. -1.
         11    1    3    3    0    0 -0.45605158972E+01  0.89593120380E+00  0.50348450501E+01  0.68520553785E+01  0.51100000000E-03 0. -1.
        -11    1    3    3    0    0  0.18441451179E+02  0.32404596639E+02  0.11617190342E+02  0.39052581433E+02  0.51100000000E-03 0.  1.
        -12    1    3    3    0    0 -0.24219801158E+01 -0.16444599030E+00  0.39357831790E+01  0.46242209503E+01  0.00000000000E+00 0.  1.
</event>
<event>
 7    1  0.2942034E-011  0.5052885E+02  0.7816164E-02  0.1300439E+00
        -11   -1    0    0    0    0  0.00000000000E+00  0.00000000000E+00  0.45593999997E+02  0.45594000000E+02  0.51100000000E-03 0.  1.
         11   -1    0    0    0    0 -0.00000000000E+00 -0.00000000000E+00 -0.45593999997E+02  0.45594000000E+02  0.51100000000E-03 0. -1.
    9900012    2    1    2    0    0  0.20502537844E+02 -0.73677668747E+01  0.34329698339E+02  0.50528852999E+02  0.29999979176E+02 0.  0.
         12    1    1    2    0    0 -0.20502537844E+02  0.73677668747E+01 -0.34329698339E+02  0.40659147001E+02  0.00000000000E+00 0. -1.
         11    1    3    3    0    0 -0.62725431886E+01 -0.36625243796E+01  0.86577112688E+00  0.73149465336E+01  0.51100000000E-03 0. -1.
        -11    1    3    3    0    0  0.19740771988E+02 -0.18238256352E+01  0.26858529710E+02  0.33382705658E+02  0.51100000000E-03 0.  1.
         12    1    3    3    0    0  0.70343090453E+01 -0.18814168599E+01  0.66053975029E+01  0.98312008075E+01  0.00000000000E+00 0. -1.
</event>
<event>
 7    1  0.2942034E-011  0.5052886E+02  0.7816164E-02  0.1300439E+00
        -11   -1    0    0    0    0  0.00000000000E+00  0.00000000000E+00  0.45593999997E+02  0.45594000000E+02  0.51100000000E-03 0.  1.
         11   -1    0    0    0    0 -0.00000000000E+00 -0.00000000000E+00 -0.45593999997E+02  0.45594000000E+02  0.51100000000E-03 0. -1.
    9900012    2    1    2    0    0 -0.47501830976E+01 -0.74294547554E+01  0.39691370728E+02  0.50528856531E+02  0.29999989910E+02 0.  0.
         12    1    1    2    0    0  0.47501830976E+01  0.74294547554E+01 -0.39691370728E+02  0.40659143469E+02  0.00000000000E+00 0. -1.
         11    1    3    3    0    0  0.12629550506E+01  0.31417381588E+01 -0.11492504781E+01  0.35758007552E+01  0.51100000000E-03 0. -1.
        -11    1    3    3    0    0  0.46808002721E+01 -0.10065205725E+02  0.28669403990E+02  0.30743340464E+02  0.51100000000E-03 0.  1.
        -12    1    3    3    0    0 -0.10693938420E+02 -0.50598718955E+00  0.12171217216E+02  0.16209715312E+02  0.00000000000E+00 0.  1.
</event>
<event>
 7    1  0.2942034E-011  0.5052886E+02  0.7816164E-02  0.1300439E+00
        -11   -1    0    0    0    0  0.00000000000E+00  0.00000000000E+00  0.45593999997E+02  0.45594000000E+02  0.51100000000E-03 0.  1.
         11   -1    0    0    0    0 -0.00000000000E+00 -0.00000000000E+00 -0.45593999997E+02  0.45594000000E+02  0.51100000000E-03 0. -1.
    9900012    2    1    2    0    0  0.39560505263E+02 -0.75465718336E+01  0.55840410963E+01  0.50528857878E+02  0.29999994007E+02 0.  0.
         12    1    1    2    0    0 -0.39560505263E+02  0.75465718336E+01 -0.55840410963E+01  0.40659142122E+02  0.00000000000E+00 0. -1.
         11    1    3    3    0    0 -0.27487505354E+01 -0.21329749176E+01  0.38648197686E+01  0.52001964972E+01  0.51100000000E-03 0. -1.
        -11    1    3    3    0    0  0.29936898762E+02 -0.10453609290E+02  0.32778477223E+01  0.31878521620E+02  0.51100000000E-03 0.  1.
        -12    1    3    3    0    0  0.12372357036E+02  0.50400123744E+01 -0.15586263946E+01  0.13450139762E+02  0.00000000000E+00 0.  1.
</event>
<event>
 7    1  0.2942034E-011  0.5052886E+02  0.7816164E-02  0.1300439E+00
        -11   -1    0    0    0    0  0.00000000000E+00  0.00000000000E+00  0.45593999997E+02  0.45594000000E+02  0.51100000000E-03 0.  1.
         11   -1    0    0    0    0 -0.00000000000E+00 -0.00000000000E+00 -0.45593999997E+02  0.45594000000E+02  0.51100000000E-03 0. -1.
    9900012    2    1    2    0    0  0.31999581675E+02  0.59514439825E+01  0.24367456703E+02  0.50528857620E+02  0.29999993223E+02 0.  0.
         12    1    1    2    0    0 -0.31999581675E+02 -0.59514439825E+01 -0.24367456703E+02  0.40659142380E+02  0.00000000000E+00 0. -1.
         11    1    3    3    0    0  0.87057895452E+01 -0.93623083322E+01 -0.45560295301E+00  0.12792621437E+02  0.51100000000E-03 0. -1.
        -11    1    3    3    0    0  0.21510614891E+02  0.11934591516E+02  0.21327802285E+02  0.32557889646E+02  0.51100000000E-03 0.  1.
         12    1    3    3    0    0  0.17831772389E+01  0.33791607990E+01  0.34952573717E+01  0.51783465378E+01  0.00000000000E+00 0. -1.
</event>
<event>
 7    1  0.2942034E-011  0.5052886E+02  0.7816164E-02  0.1300439E+00
        -11   -1    0    0    0    0  0.00000000000E+00  0.00000000000E+00  0.45593999997E+02  0.45594000000E+02  0.51100000000E-03 0. -1.
         11   -1    0    0    0    0 -0.00000000000E+00 -0.00000000000E+00 -0.45593999997E+02  0.45594000000E+02  0.51100000000E-03 0.  1.
    9900012    2    1    2    0    0  0.30473084857E+02  0.17967150686E+02 -0.20043405631E+02  0.50528861866E+02  0.30000006129E+02 0.  0.
         12    1    1    2    0    0 -0.30473084857E+02 -0.17967150686E+02  0.20043405631E+02  0.40659138134E+02  0.00000000000E+00 0. -1.
         11    1    3    3    0    0 -0.51448177955E+01  0.40421160013E+01 -0.26561831156E+00  0.65481604490E+01  0.51100000000E-03 0. -1.
        -11    1    3    3    0    0  0.61164256398E+01  0.43651977915E+01 -0.75300649771E+01  0.10638021112E+02  0.51100000000E-03 0.  1.
         12    1    3    3    0    0  0.29501477013E+02  0.95598368928E+01 -0.12247722343E+02  0.33342680305E+02  0.00000000000E+00 0. -1.
</event>
<event>
 7    1  0.2942034E-011  0.5052886E+02  0.7816164E-02  0.1300439E+00
        -11   -1    0    0    0    0  0.00000000000E+00  0.00000000000E+00  0.45593999997E+02  0.45594000000E+02  0.51100000000E-03 0. -1.
         11   -1    0    0    0    0 -0.00000000000E+00 -0.00000000000E+00 -0.45593999997E+02  0.45594000000E+02  0.51100000000E-03 0.  1.
    9900012    2    1    2    0    0 -0.39060989207E+02  0.10685348418E+02 -0.36370130626E+01  0.50528863110E+02  0.30000009908E+02 0.  0.
         12    1    1    2    0    0  0.39060989207E+02 -0.10685348418E+02  0.36370130626E+01  0.40659136890E+02  0.00000000000E+00 0. -1.
         11    1    3    3    0    0 -0.12134912314E+02 -0.11916939554E+01  0.57561189332E+01  0.13483661846E+02  0.51100000000E-03 0. -1.
        -11    1    3    3    0    0 -0.26533636921E+01  0.80463642056E+01 -0.91508725398E+01  0.12470877448E+02  0.51100000000E-03 0.  1.
        -12    1    3    3    0    0 -0.24272713201E+02  0.38306781675E+01 -0.24225945602E+00  0.24574323816E+02  0.00000000000E+00 0.  1.
</event>
<event>
 7    1  0.2942034E-011  0.5052886E+02  0.7816164E-02  0.1300439E+00
        -11   -1    0    0    0    0  0.00000000000E+00  0.00000000000E+00  0.45593999997E+02  0.45594000000E+02  0.51100000000E-03 0.  1.
         11   -1    0    0    0    0 -0.00000000000E+00 -0.00000000000E+00 -0.45593999997E+02  0.45594000000E+02  0.51100000000E-03 0. -1.
    9900012    2    1    2    0    0  0.23205309817E+02  0.27111092828E+02  0.19485076943E+02  0.50528856114E+02  0.29999988645E+02 0.  0.
         12    1    1    2    0    0 -0.23205309817E+02 -0.27111092828E+02 -0.19485076943E+02  0.40659143886E+02  0.00000000000E+00 0. -1.
         11    1    3    3    0    0 -0.29166675094E+01  0.13609876587E+02  0.30983088993E+01  0.14259565505E+02  0.51100000000E-03 0. -1.
        -11    1    3    3    0    0  0.11399487683E+02 -0.93960658973E+00  0.82344133970E+01  0.14093854840E+02  0.51100000000E-03 0.  1.
        -12    1    3    3    0    0  0.14722489643E+02  0.14440822830E+02  0.81523546464E+01  0.22175435770E+02  0.00000000000E+00 0.  1.
</event>
<event>
 7    1  0.2942034E-011  0.5052887E+02  0.7816164E-02  0.1300439E+00
        -11   -1    0    0    0    0  0.00000000000E+00  0.00000000000E+00  0.45593999997E+02  0.45594000000E+02  0.51100000000E-03 0.  1.
         11   -1    0    0    0    0 -0.00000000000E+00 -0.00000000000E+00 -0.45593999997E+02  0.45594000000E+02  0.51100000000E-03 0. -1.
    9900012    2    1    2    0    0  0.13339072893E+02  0.36820078574E+02  0.10932332921E+02  0.50528868739E+02  0.30000027019E+02 0.  0.
         12    1    1    2    0    0 -0.13339072893E+02 -0.36820078574E+02 -0.10932332921E+02  0.40659131261E+02  0.00000000000E+00 0. -1.
         11    1    3    3    0    0  0.16712787483E+01  0.30249395184E+01 -0.83432104475E+01  0.90306474063E+01  0.51100000000E-03 0. -1.
        -11    1    3    3    0    0  0.92543594438E+01  0.19580014991E+02  0.15380750577E+02  0.26562899772E+02  0.51100000000E-03 0.  1.
         12    1    3    3    0    0  0.24134347012E+01  0.14215124065E+02  0.38947927917E+01  0.14935321561E+02  0.00000000000E+00 0. -1.
</event>
<event>
 7    1  0.2942034E-011  0.5052886E+02  0.7816164E-02  0.1300439E+00
        -11   -1    0    0    0    0  0.00000000000E+00  0.00000000000E+00  0.45593999997E+02  0.45594000000E+02  0.51100000000E-03 0. -1.
         11   -1    0    0    0    0 -0.00000000000E+00 -0.00000000000E+00 -0.45593999997E+02  0.45594000000E+02  0.51100000000E-03 0.  1.
    9900012    2    1    2    0    0 -0.16708432131E+02 -0.12881574564E+02 -0.34757146887E+02  0.50528856782E+02  0.29999990674E+02 0.  0.
         12    1    1    2    0    0  0.16708432131E+02  0.12881574564E+02  0.34757146887E+02  0.40659143218E+02  0.00000000000E+00 0. -1.
         11    1    3    3    0    0 -0.25676206724E+01  0.79313795987E+01 -0.13581600700E+02  0.15936101659E+02  0.51100000000E-03 0. -1.
        -11    1    3    3    0    0 -0.73958349094E+01 -0.68600684734E+01 -0.26309427863E+01  0.10425007131E+02  0.51100000000E-03 0.  1.
         12    1    3    3    0    0 -0.67449765490E+01 -0.13952885689E+02 -0.18544603401E+02  0.24167747992E+02  0.00000000000E+00 0. -1.
</event>
<event>
 7    1  0.2942034E-011  0.5052889E+02  0.7816164E-02  0.1300439E+00
        -11   -1    0    0    0    0  0.00000000000E+00  0.00000000000E+00  0.45593999997E+02  0.45594000000E+02  0.51100000000E-03 0.  1.
         11   -1    0    0    0    0 -0.00000000000E+00 -0.00000000000E+00 -0.45593999997E+02  0.45594000000E+02  0.51100000000E-03 0. -1.
    9900012    2    1    2    0    0 -0.18810146177E+02 -0.17563270631E+02  0.31478136565E+02  0.50528890860E+02  0.30000094257E+02 0.  0.
         12    1    1    2    0    0  0.18810146177E+02  0.17563270631E+02 -0.31478136565E+02  0.40659109140E+02  0.00000000000E+00 0. -1.
         11    1    3    3    0    0 -0.13983006650E+02  0.50979291689E+01  0.10875616126E+02  0.18433458254E+02  0.51100000000E-03 0. -1.
        -11    1    3    3    0    0 -0.50365770132E+01 -0.16029479089E+02  0.18811997958E+02  0.25223056423E+02  0.51100000000E-03 0.  1.
         12    1    3    3    0    0  0.20943748690E+00 -0.66317207106E+01  0.17905224811E+01  0.68723761830E+01  0.00000000000E+00 0. -1.
</event>
<event>
 7    1  0.2942034E-011  0.5052886E+02  0.7816164E-02  0.1300439E+00
        -11   -1    0    0    0    0  0.00000000000E+00  0.00000000000E+00  0.45593999997E+02  0.45594000000E+02  0.51100000000E-03 0. -1.
         11   -1    0    0    0    0 -0.00000000000E+00 -0.00000000000E+00 -0.45593999997E+02  0.45594000000E+02  0.51100000000E-03 0.  1.
    9900012    2    1    2    0    0  0.21325095028E+02  0.30390421236E+02 -0.16577943646E+02  0.50528860850E+02  0.30000003040E+02 0.  0.
         12    1    1    2    0    0 -0.21325095028E+02 -0.30390421236E+02  0.16577943646E+02  0.40659139150E+02  0.00000000000E+00 0. -1.
         11    1    3    3    0    0  0.23437652912E+01  0.45473794109E+01 -0.33066197991E-01  0.51159543471E+01  0.51100000000E-03 0. -1.
        -11    1    3    3    0    0  0.11675338050E+00  0.23056499539E+02 -0.11048852795E+02  0.25567419712E+02  0.51100000000E-03 0.  1.
        -12    1    3    3    0    0  0.18864576356E+02  0.27865422860E+01 -0.54960246535E+01  0.19845486791E+02  0.00000000000E+00 0.  1.
</event>
<event>
 7    1  0.2942034E-011  0.5052887E+02  0.7816164E-02  0.1300439E+00
        -11   -1    0    0    0    0  0.00000000000E+00  0.00000000000E+00  0.45593999997E+02  0.45594000000E+02  0.51100000000E-03 0.  1.
         11   -1    0    0    0    0 -0.00000000000E+00 -0.00000000000E+00 -0.45593999997E+02  0.45594000000E+02  0.51100000000E-03 0. -1.
    9900012    2    1    2    0    0 -0.16117585181E+01  0.24470579494E+02  0.32430821669E+02  0.50528865474E+02  0.30000017093E+02 0.  0.
         12    1    1    2    0    0  0.16117585181E+01 -0.24470579494E+02 -0.32430821669E+02  0.40659134526E+02  0.00000000000E+00 0. -1.
         11    1    3    3    0    0 -0.12000080997E+02  0.54392351429E+01  0.51596717333E+01  0.14149538350E+02  0.51100000000E-03 0. -1.
        -11    1    3    3    0    0  0.73938955570E+01  0.16205488941E+02  0.14522778852E+02  0.22982573162E+02  0.51100000000E-03 0.  1.
        -12    1    3    3    0    0  0.29944269219E+01  0.28258554103E+01  0.12748371084E+02  0.13396753961E+02  0.00000000000E+00 0.  1.
</event>
<event>
 7    1  0.2942034E-011  0.5052885E+02  0.7816164E-02  0.1300439E+00
        -11   -1    0    0    0    0  0.00000000000E+00  0.00000000000E+00  0.45593999997E+02  0.45594000000E+02  0.51100000000E-03 0. -1.
         11   -1    0    0    0    0 -0.00000000000E+00 -0.00000000000E+00 -0.45593999997E+02  0.45594000000E+02  0.51100000000E-03 0.  1.
    9900012    2    1    2    0    0 -0.16565355688E+02 -0.35175098720E+02 -0.11894025085E+02  0.50528850824E+02  0.29999972564E+02 0.  0.
         12    1    1    2    0    0  0.16565355688E+02  0.35175098720E+02  0.11894025085E+02  0.40659149176E+02  0.00000000000E+00 0. -1.
         11    1    3    3    0    0 -0.74742197309E+01 -0.17305549393E+02  0.15844093675E+01  0.18917091575E+02  0.51100000000E-03 0. -1.
        -11    1    3    3    0    0 -0.24311318006E+01  0.33114627041E+01 -0.76066442029E+01  0.86450693093E+01  0.51100000000E-03 0.  1.
        -12    1    3    3    0    0 -0.66600041560E+01 -0.21181012031E+02 -0.58717902498E+01  0.22966689939E+02  0.00000000000E+00 0.  1.
</event>
<event>
 7    1  0.2942034E-011  0.5052886E+02  0.7816164E-02  0.1300439E+00
        -11   -1    0    0    0    0  0.00000000000E+00  0.00000000000E+00  0.45593999997E+02  0.45594000000E+02  0.51100000000E-03 0. -1.
         11   -1    0    0    0    0 -0.00000000000E+00 -0.00000000000E+00 -0.45593999997E+02  0.45594000000E+02  0.51100000000E-03 0.  1.
    9900012    2    1    2    0    0  0.11402140582E+02 -0.29277563109E+02 -0.25806609254E+02  0.50528860897E+02  0.30000003182E+02 0.  0.
         12    1    1    2    0    0 -0.11402140582E+02  0.29277563109E+02  0.25806609254E+02  0.40659139103E+02  0.00000000000E+00 0. -1.
         11    1    3    3    0    0  0.99182611624E+01 -0.23747466523E+01 -0.11414494498E+01  0.10262272324E+02  0.51100000000E-03 0. -1.
        -11    1    3    3    0    0  0.11769897092E+01 -0.13396784882E+02 -0.23015714242E+02  0.26656748719E+02  0.51100000000E-03 0.  1.
        -12    1    3    3    0    0  0.30688971081E+00 -0.13506031574E+02 -0.16494455619E+01  0.13609839853E+02  0.00000000000E+00 0.  1.
</event>
<event>
 7    1  0.2942034E-011  0.5052883E+02  0.7816164E-02  0.1300439E+00
        -11   -1    0    0    0    0  0.00000000000E+00  0.00000000000E+00  0.45593999997E+02  0.45594000000E+02  0.51100000000E-03 0. -1.
         11   -1    0    0    0    0 -0.00000000000E+00 -0.00000000000E+00 -0.45593999997E+02  0.45594000000E+02  0.51100000000E-03 0.  1.
    9900012    2    1    2    0    0 -0.23237677043E+01 -0.39556853589E+02 -0.91117326790E+01  0.50528828407E+02  0.29999904425E+02 0.  0.
         12    1    1    2    0    0  0.23237677043E+01  0.39556853589E+02  0.91117326790E+01  0.40659171593E+02  0.00000000000E+00 0. -1.
         11    1    3    3    0    0  0.87592050897E+01 -0.82446346271E+01  0.25362664432E+01  0.12293507297E+02  0.51100000000E-03 0. -1.
        -11    1    3    3    0    0 -0.37490863096E+01 -0.17179806819E+02 -0.13551241168E+02  0.22199944773E+02  0.51100000000E-03 0.  1.
         12    1    3    3    0    0 -0.73338864844E+01 -0.14132412143E+02  0.19032420456E+01  0.16035376336E+02  0.00000000000E+00 0. -1.
</event>
<event>
 7    1  0.2942034E-011  0.5052886E+02  0.7816164E-02  0.1300439E+00
        -11   -1    0    0    0    0  0.00000000000E+00  0.00000000000E+00  0.45593999997E+02  0.45594000000E+02  0.51100000000E-03 0. -1.
         11   -1    0    0    0    0 -0.00000000000E+00 -0.00000000000E+00 -0.45593999997E+02  0.45594000000E+02  0.51100000000E-03 0.  1.
    9900012    2    1    2    0    0 -0.15652491365E+02 -0.34290423914E+02 -0.15242431754E+02  0.50528863464E+02  0.30000010984E+02 0.  0.
         12    1    1    2    0    0  0.15652491365E+02  0.34290423914E+02  0.15242431754E+02  0.40659136536E+02  0.00000000000E+00 0. -1.
         11    1    3    3    0    0 -0.43549555571E+01 -0.52589743160E+01  0.56091785335E+00  0.68510639947E+01  0.51100000000E-03 0. -1.
        -11    1    3    3    0    0 -0.39741752855E+01  0.14590903655E+01 -0.11213402128E+02  0.11985966854E+02  0.51100000000E-03 0.  1.
        -12    1    3    3    0    0 -0.73233605222E+01 -0.30490539963E+02 -0.45899474793E+01  0.31691832614E+02  0.00000000000E+00 0.  1.
</event>
<event>
 7    1  0.2942034E-011  0.5052886E+02  0.7816164E-02  0.1300439E+00
        -11   -1    0    0    0    0  0.00000000000E+00  0.00000000000E+00  0.45593999997E+02  0.45594000000E+02  0.51100000000E-03 0.  1.
         11   -1    0    0    0    0 -0.00000000000E+00 -0.00000000000E+00 -0.45593999997E+02  0.45594000000E+02  0.51100000000E-03 0. -1.
    9900012    2    1    2    0    0 -0.25488041853E+02  0.28351333919E+02  0.14132503292E+02  0.50528855128E+02  0.29999985646E+02 0.  0.
         12    1    1    2    0    0  0.25488041853E+02 -0.28351333919E+02 -0.14132503292E+02  0.40659144872E+02  0.00000000000E+00 0. -1.
         11    1    3    3    0    0 -0.81053620168E+01  0.24994849651E+02  0.18205979289E+02  0.31967125061E+02  0.51100000000E-03 0. -1.
        -11    1    3    3    0    0 -0.65814928371E+01 -0.26333796879E+00 -0.42640016413E+00  0.66005463571E+01  0.51100000000E-03 0.  1.
         12    1    3    3    0    0 -0.10801186999E+02  0.36198222361E+01 -0.36470758332E+01  0.11961183710E+02  0.00000000000E+00 0. -1.
</event>
<event>
 7    1  0.2942034E-011  0.5052886E+02  0.7816164E-02  0.1300439E+00
        -11   -1    0    0    0    0  0.00000000000E+00  0.00000000000E+00  0.45593999997E+02  0.45594000000E+02  0.51100000000E-03 0.  1.
         11   -1    0    0    0    0 -0.00000000000E+00 -0.00000000000E+00 -0.45593999997E+02  0.45594000000E+02  0.51100000000E-03 0. -1.
    9900012    2    1    2    0    0 -0.13064201310E+02 -0.93562781452E+01  0.37349061683E+02  0.50528859512E+02  0.29999998973E+02 0.  0.
         12    1    1    2    0    0  0.13064201310E+02  0.93562781452E+01 -0.37349061683E+02  0.40659140488E+02  0.00000000000E+00 0. -1.
         11    1    3    3    0    0  0.10600389189E+01 -0.23219766416E+01  0.22481934232E+02  0.22626370127E+02  0.51100000000E-03 0.  1.
        -11    1    3    3    0    0 -0.12858155341E+02  0.14166612897E+01  0.30007004756E+01  0.13279431147E+02  0.51100000000E-03 0. -1.
         12    1    3    3    0    0 -0.12660848876E+01 -0.84509627934E+01  0.11866426976E+02  0.14623058239E+02  0.00000000000E+00 0. -1.
</event>
<event>
 7    1  0.3342510E-011  0.5052885E+02  0.7816164E-02  0.1300439E+00
        -11   -1    0    0    0    0  0.00000000000E+00  0.00000000000E+00  0.45593999997E+02  0.45594000000E+02  0.51100000000E-03 0. -1.
         11   -1    0    0    0    0 -0.00000000000E+00 -0.00000000000E+00 -0.45593999997E+02  0.45594000000E+02  0.51100000000E-03 0.  1.
    9900012    2    1    2    0    0  0.13937448376E+02 -0.34318689423E+02 -0.16767279425E+02  0.50528848874E+02  0.29999966637E+02 0.  0.
         12    1    1    2    0    0 -0.13937448376E+02  0.34318689423E+02  0.16767279425E+02  0.40659151126E+02  0.00000000000E+00 0. -1.
         11    1    3    3    0    0 -0.14755933906E+01 -0.47363088754E+01  0.57421467247E+01  0.75882967052E+01  0.51100000000E-03 0. -1.
        -11    1    3    3    0    0  0.63206994608E+01 -0.24818218332E+02 -0.12113168268E+02  0.28330620335E+02  0.51100000000E-03 0.  1.
         12    1    3    3    0    0  0.90923423062E+01 -0.47641622163E+01 -0.10396257882E+02  0.14609931834E+02  0.00000000000E+00 0. -1.
</event>
<event>
 7    1  0.2942034E-011  0.5052886E+02  0.7816164E-02  0.1300439E+00
        -11   -1    0    0    0    0  0.00000000000E+00  0.00000000000E+00  0.45593999997E+02  0.45594000000E+02  0.51100000000E-03 0.  1.
         11   -1    0    0    0    0 -0.00000000000E+00 -0.00000000000E+00 -0.45593999997E+02  0.45594000000E+02  0.51100000000E-03 0. -1.
    9900012    2    1    2    0    0 -0.25867241936E+02 -0.19274449336E+02  0.24749690460E+02  0.50528858587E+02  0.29999996162E+02 0.  0.
         12    1    1    2    0    0  0.25867241936E+02  0.19274449336E+02 -0.24749690460E+02  0.40659141413E+02  0.00000000000E+00 0. -1.
         11    1    3    3    0    0 -0.57672948296E+00 -0.14050545689E+02  0.15959781918E+02  0.21271226814E+02  0.51100000000E-03 0.  1.
        -11    1    3    3    0    0 -0.17727056031E+02  0.82934909632E+00  0.30774516579E+01  0.18011303241E+02  0.51100000000E-03 0. -1.
         12    1    3    3    0    0 -0.75634564215E+01 -0.60532527432E+01  0.57124568834E+01  0.11246328532E+02  0.00000000000E+00 0. -1.
</event>
<event>
 7    1  0.2942034E-011  0.5052885E+02  0.7816164E-02  0.1300439E+00
        -11   -1    0    0    0    0  0.00000000000E+00  0.00000000000E+00  0.45593999997E+02  0.45594000000E+02  0.51100000000E-03 0.  1.
         11   -1    0    0    0    0 -0.00000000000E+00 -0.00000000000E+00 -0.45593999997E+02  0.45594000000E+02  0.51100000000E-03 0. -1.
    9900012    2    1    2    0    0 -0.26871048494E+02 -0.25666861643E+02  0.16502297353E+02  0.50528845414E+02  0.29999956120E+02 0.  0.
         12    1    1    2    0    0  0.26871048494E+02  0.25666861643E+02 -0.16502297353E+02  0.40659154586E+02  0.00000000000E+00 0. -1.
         11    1    3    3    0    0 -0.73306555090E+01  0.14950661491E+01 -0.54958814464E+01  0.92832346796E+01  0.51100000000E-03 0. -1.
        -11    1    3    3    0    0 -0.12082421408E+02 -0.21412513387E+02  0.11499900219E+02  0.27142740134E+02  0.51100000000E-03 0.  1.
        -12    1    3    3    0    0 -0.74579715761E+01 -0.57494144047E+01  0.10498278580E+02  0.14102870601E+02  0.00000000000E+00 0.  1.
</event>
<event>
 7    1  0.2942034E-011  0.5052886E+02  0.7816164E-02  0.1300439E+00
        -11   -1    0    0    0    0  0.00000000000E+00  0.00000000000E+00  0.45593999997E+02  0.45594000000E+02  0.51100000000E-03 0. -1.
         11   -1    0    0    0    0 -0.00000000000E+00 -0.00000000000E+00 -0.45593999997E+02  0.45594000000E+02  0.51100000000E-03 0.  1.
    9900012    2    1    2    0    0  0.12086944610E+02  0.34394179075E+02 -0.18003101776E+02  0.50528862555E+02  0.30000008222E+02 0.  0.
         12    1    1    2    0    0 -0.12086944610E+02 -0.34394179075E+02  0.18003101776E+02  0.40659137445E+02  0.00000000000E+00 0. -1.
         11    1    3    3    0    0  0.11531083046E+02  0.33984039011E+02 -0.81367144781E+01  0.36797919867E+02  0.51100000000E-03 0. -1.
        -11    1    3    3    0    0  0.21904729908E+01 -0.39149799211E+01 -0.28063375351E+01  0.52915754108E+01  0.51100000000E-03 0.  1.
         12    1    3    3    0    0 -0.16346114272E+01  0.43251199846E+01 -0.70600497624E+01  0.84393672776E+01  0.00000000000E+00 0. -1.
</event>
<event>
 7    1  0.2942034E-011  0.5052886E+02  0.7816164E-02  0.1300439E+00
        -11   -1    0    0    0    0  0.00000000000E+00  0.00000000000E+00  0.45593999997E+02  0.45594000000E+02  0.51100000000E-03 0.  1.
         11   -1    0    0    0    0 -0.00000000000E+00 -0.00000000000E+00 -0.45593999997E+02  0.45594000000E+02  0.51100000000E-03 0. -1.
    9900012    2    1    2    0    0 -0.16274590672E+01 -0.44216003475E+01  0.40385223093E+02  0.50528863057E+02  0.30000009749E+02 0.  0.
         12    1    1    2    0    0  0.16274590672E+01  0.44216003475E+01 -0.40385223093E+02  0.40659136943E+02  0.00000000000E+00 0. -1.
         11    1    3    3    0    0 -0.23031049674E+01  0.18623797825E+01  0.10357214837E+01  0.31377492249E+01  0.51100000000E-03 0. -1.
        -11    1    3    3    0    0 -0.86662956509E+01 -0.59392297518E+01  0.35934061115E+02  0.37438427836E+02  0.51100000000E-03 0.  1.
        -12    1    3    3    0    0  0.93419415511E+01 -0.34475037812E+00  0.34154404940E+01  0.99526859961E+01  0.00000000000E+00 0.  1.
</event>
<event>
 7    1  0.2942034E-011  0.5052884E+02  0.7816164E-02  0.1300439E+00
        -11   -1    0    0    0    0  0.00000000000E+00  0.00000000000E+00  0.45593999997E+02  0.45594000000E+02  0.51100000000E-03 0.  1.
         11   -1    0    0    0    0 -0.00000000000E+00 -0.00000000000E+00 -0.45593999997E+02  0.45594000000E+02  0.51100000000E-03 0. -1.
    9900012    2    1    2    0    0 -0.27188327378E+02 -0.25446060641E+02  0.16323606677E+02  0.50528840113E+02  0.29999940007E+02 0.  0.
         12    1    1    2    0    0  0.27188327378E+02  0.25446060641E+02 -0.16323606677E+02  0.40659159887E+02  0.00000000000E+00 0. -1.
         11    1    3    3    0    0 -0.14525688289E+02 -0.68165124319E+01  0.81708952314E+01  0.18006220901E+02  0.51100000000E-03 0. -1.
        -11    1    3    3    0    0 -0.94028911647E+01 -0.19112973719E+02 -0.24298361461E+01  0.21438848630E+02  0.51100000000E-03 0.  1.
        -12    1    3    3    0    0 -0.32597479246E+01  0.48342551024E+00  0.10582547592E+02  0.11083770581E+02  0.00000000000E+00 0.  1.
</event>
<event>
 7    1  0.2942034E-011  0.5052887E+02  0.7816164E-02  0.1300439E+00
        -11   -1    0    0    0    0  0.00000000000E+00  0.00000000000E+00  0.45593999997E+02  0.45594000000E+02  0.51100000000E-03 0. -1.
         11   -1    0    0    0    0 -0.00000000000E+00 -0.00000000000E+00 -0.45593999997E+02  0.45594000000E+02  0.51100000000E-03 0.  1.
    9900012    2    1    2    0    0 -0.36421120633E+01  0.48032670304E+01 -0.40209806849E+02  0.50528869152E+02  0.30000028276E+02 0.  0.
         12    1    1    2    0    0  0.36421120633E+01 -0.48032670304E+01  0.40209806849E+02  0.40659130848E+02  0.00000000000E+00 0. -1.
         11    1    3    3    0    0 -0.11624207609E+02  0.40988602390E+01 -0.38465649964E+02  0.40392190894E+02  0.51100000000E-03 0. -1.
        -11    1    3    3    0    0  0.34353843823E+01  0.77326297222E+00 -0.37698592489E+01  0.51586471576E+01  0.51100000000E-03 0.  1.
         12    1    3    3    0    0  0.45467111630E+01 -0.68856180822E-01  0.20257023641E+01  0.49780311009E+01  0.00000000000E+00 0. -1.
</event>
<event>
 7    1  0.2942034E-011  0.5052888E+02  0.7816164E-02  0.1300439E+00
        -11   -1    0    0    0    0  0.00000000000E+00  0.00000000000E+00  0.45593999997E+02  0.45594000000E+02  0.51100000000E-03 0. -1.
         11   -1    0    0    0    0 -0.00000000000E+00 -0.00000000000E+00 -0.45593999997E+02  0.45594000000E+02  0.51100000000E-03 0.  1.
    9900012    2    1    2    0    0 -0.40367901533E+02  0.43678179736E+01  0.21258084194E+01  0.50528875938E+02  0.30000048901E+02 0.  0.
         12    1    1    2    0    0  0.40367901533E+02 -0.43678179736E+01 -0.21258084194E+01  0.40659124062E+02  0.00000000000E+00 0. -1.
         11    1    3    3    0    0 -0.72191986649E+01 -0.46448533160E+01 -0.46003380750E+01  0.97393327470E+01  0.51100000000E-03 0. -1.
        -11    1    3    3    0    0 -0.20218098239E+02  0.13411354415E+01  0.13449232973E+02  0.24319786358E+02  0.51100000000E-03 0.  1.
        -12    1    3    3    0    0 -0.12930604630E+02  0.76715358481E+01 -0.67230864783E+01  0.16469756833E+02  0.00000000000E+00 0.  1.
</event>
<event>
 7    1  0.2942034E-011  0.5052886E+02  0.7816164E-02  0.1300439E+00
        -11   -1    0    0    0    0  0.00000000000E+00  0.00000000000E+00  0.45593999997E+02  0.45594000000E+02  0.51100000000E-03 0.  1.
         11   -1    0    0    0    0 -0.00000000000E+00 -0.00000000000E+00 -0.45593999997E+02  0.45594000000E+02  0.51100000000E-03 0. -1.
    9900012    2    1    2    0    0  0.22264468002E+02 -0.33925717110E+02 -0.25504607925E+01  0.50528859981E+02  0.30000000399E+02 0.  0.
         12    1    1    2    0    0 -0.22264468002E+02  0.33925717110E+02  0.25504607925E+01  0.40659140019E+02  0.00000000000E+00 0. -1.
         11    1    3    3    0    0 -0.24973428216E+01 -0.53187998656E+01  0.35304790178E+01  0.68549715926E+01  0.51100000000E-03 0. -1.
        -11    1    3    3    0    0  0.95837548502E+01 -0.18668713791E+02 -0.12504414727E+02  0.24428049852E+02  0.51100000000E-03 0.  1.
        -12    1    3    3    0    0  0.15178055973E+02 -0.99382034533E+01  0.64234749162E+01  0.19245838537E+02  0.00000000000E+00 0.  1.
</event>
<event>
 7    1  0.2942034E-011  0.5052886E+02  0.7816164E-02  0.1300439E+00
        -11   -1    0    0    0    0  0.00000000000E+00  0.00000000000E+00  0.45593999997E+02  0.45594000000E+02  0.51100000000E-03 0.  1.
         11   -1    0    0    0    0 -0.00000000000E+00 -0.00000000000E+00 -0.45593999997E+02  0.45594000000E+02  0.51100000000E-03 0. -1.
    9900012    2    1    2    0    0  0.50623779549E+00  0.34324197738E+02  0.21788963999E+02  0.50528858602E+02  0.29999996206E+02 0.  0.
         12    1    1    2    0    0 -0.50623779549E+00 -0.34324197738E+02 -0.21788963999E+02  0.40659141398E+02  0.00000000000E+00 0. -1.
         11    1    3    3    0    0  0.60008246665E+01  0.56260032464E+00 -0.26677685138E+01  0.65911611199E+01  0.51100000000E-03 0. -1.
        -11    1    3    3    0    0 -0.46753132929E+01  0.20957035950E+02  0.22245282226E+02  0.30917769838E+02  0.51100000000E-03 0.  1.
         12    1    3    3    0    0 -0.81927357813E+00  0.12804561464E+02  0.22114502874E+01  0.13019927644E+02  0.00000000000E+00 0. -1.
</event>
<event>
 7    1  0.2942034E-011  0.5052885E+02  0.7816164E-02  0.1300439E+00
        -11   -1    0    0    0    0  0.00000000000E+00  0.00000000000E+00  0.45593999997E+02  0.45594000000E+02  0.51100000000E-03 0. -1.
         11   -1    0    0    0    0 -0.00000000000E+00 -0.00000000000E+00 -0.45593999997E+02  0.45594000000E+02  0.51100000000E-03 0.  1.
    9900012    2    1    2    0    0 -0.13208539149E+02  0.44164515732E+01 -0.38199421738E+02  0.50528851311E+02  0.29999974046E+02 0.  0.
         12    1    1    2    0    0  0.13208539149E+02 -0.44164515732E+01  0.38199421738E+02  0.40659148689E+02  0.00000000000E+00 0. -1.
         11    1    3    3    0    0 -0.10009546507E+02 -0.10301307404E+02 -0.17954589421E+02  0.22992938852E+02  0.51100000000E-03 0. -1.
        -11    1    3    3    0    0 -0.71114197039E+01  0.83295607945E+01 -0.98999274577E+01  0.14763550967E+02  0.51100000000E-03 0.  1.
         12    1    3    3    0    0  0.39124270620E+01  0.63881981828E+01 -0.10344904859E+02  0.12772361492E+02  0.00000000000E+00 0. -1.
</event>
<event>
 7    1  0.2942034E-011  0.5052886E+02  0.7816164E-02  0.1300439E+00
        -11   -1    0    0    0    0  0.00000000000E+00  0.00000000000E+00  0.45593999997E+02  0.45594000000E+02  0.51100000000E-03 0.  1.
         11   -1    0    0    0    0 -0.00000000000E+00 -0.00000000000E+00 -0.45593999997E+02  0.45594000000E+02  0.51100000000E-03 0. -1.
    9900012    2    1    2    0    0 -0.56626227128E+01 -0.92108059150E+01  0.39195169949E+02  0.50528860942E+02  0.30000003320E+02 0.  0.
         12    1    1    2    0    0  0.56626227128E+01  0.92108059150E+01 -0.39195169949E+02  0.40659139058E+02  0.00000000000E+00 0. -1.
         11    1    3    3    0    0 -0.63660969412E+00  0.88597850948E+01  0.40780090743E+01  0.97740074740E+01  0.51100000000E-03 0. -1.
        -11    1    3    3    0    0 -0.25403318629E+00 -0.14525939980E+02  0.27403430329E+02  0.31016374051E+02  0.51100000000E-03 0.  1.
         12    1    3    3    0    0 -0.47719798324E+01 -0.35446510297E+01  0.77137305453E+01  0.97384794177E+01  0.00000000000E+00 0. -1.
</event>
<event>
 7    1  0.2942034E-011  0.5052887E+02  0.7816164E-02  0.1300439E+00
        -11   -1    0    0    0    0  0.00000000000E+00  0.00000000000E+00  0.45593999997E+02  0.45594000000E+02  0.51100000000E-03 0. -1.
         11   -1    0    0    0    0 -0.00000000000E+00 -0.00000000000E+00 -0.45593999997E+02  0.45594000000E+02  0.51100000000E-03 0.  1.
    9900012    2    1    2    0    0 -0.20690602510E+01  0.22571404486E+02 -0.33755232589E+02  0.50528867718E+02  0.30000023914E+02 0.  0.
         12    1    1    2    0    0  0.20690602510E+01 -0.22571404486E+02  0.33755232589E+02  0.40659132282E+02  0.00000000000E+00 0. -1.
         11    1    3    3    0    0  0.96085416366E+01 -0.14887537352E+01 -0.12679423383E+02  0.15978367803E+02  0.51100000000E-03 0. -1.
        -11    1    3    3    0    0 -0.47800083664E+01  0.16122216548E+02 -0.13931730142E+02  0.21837294965E+02  0.51100000000E-03 0.  1.
         12    1    3    3    0    0 -0.68975935213E+01  0.79379416738E+01 -0.71440790646E+01  0.12713204949E+02  0.00000000000E+00 0. -1.
</event>
<event>
 7    1  0.2942034E-011  0.5052886E+02  0.7816164E-02  0.1300439E+00
        -11   -1    0    0    0    0  0.00000000000E+00  0.00000000000E+00  0.45593999997E+02  0.45594000000E+02  0.51100000000E-03 0.  1.
         11   -1    0    0    0    0 -0.00000000000E+00 -0.00000000000E+00 -0.45593999997E+02  0.45594000000E+02  0.51100000000E-03 0. -1.
    9900012    2    1    2    0    0  0.49318894721E+01 -0.18073772970E+02  0.36085741754E+02  0.50528861285E+02  0.30000004361E+02 0.  0.
         12    1    1    2    0    0 -0.49318894721E+01  0.18073772970E+02 -0.36085741754E+02  0.40659138715E+02  0.00000000000E+00 0. -1.
         11    1    3    3    0    0  0.18479227159E+01 -0.46225557474E+01 -0.38344878309E+01  0.62837995822E+01  0.51100000000E-03 0. -1.
        -11    1    3    3    0    0  0.69553570136E+01 -0.12699889440E+02  0.35396846845E+02  0.38243966188E+02  0.51100000000E-03 0.  1.
         12    1    3    3    0    0 -0.38713902574E+01 -0.75132778234E+00  0.45233827399E+01  0.60010955144E+01  0.00000000000E+00 0. -1.
</event>
<event>
 7    1  0.2942034E-011  0.5052885E+02  0.7816164E-02  0.1300439E+00
        -11   -1    0    0    0    0  0.00000000000E+00  0.00000000000E+00  0.45593999997E+02  0.45594000000E+02  0.51100000000E-03 0. -1.
         11   -1    0    0    0    0 -0.00000000000E+00 -0.00000000000E+00 -0.45593999997E+02  0.45594000000E+02  0.51100000000E-03 0.  1.
    9900012    2    1    2    0    0  0.18055559016E+02 -0.35007185607E+02  0.10082665447E+02  0.50528850992E+02  0.29999973075E+02 0.  0.
         12    1    1    2    0    0 -0.18055559016E+02  0.35007185607E+02 -0.10082665447E+02  0.40659149008E+02  0.00000000000E+00 0. -1.
         11    1    3    3    0    0 -0.71062666925E+01 -0.59560245977E+01 -0.18100013849E+01  0.94471879725E+01  0.51100000000E-03 0.  1.
        -11    1    3    3    0    0  0.98540119364E+00 -0.14661332681E+01 -0.11992671666E+01  0.21351356562E+01  0.51100000000E-03 0. -1.
         12    1    3    3    0    0  0.24176424515E+02 -0.27585027742E+02  0.13091933998E+02  0.38946527363E+02  0.00000000000E+00 0. -1.
</event>
<event>
 7    1  0.2942034E-011  0.5052886E+02  0.7816164E-02  0.1300439E+00
        -11   -1    0    0    0    0  0.00000000000E+00  0.00000000000E+00  0.45593999997E+02  0.45594000000E+02  0.51100000000E-03 0.  1.
         11   -1    0    0    0    0 -0.00000000000E+00 -0.00000000000E+00 -0.45593999997E+02  0.45594000000E+02  0.51100000000E-03 0. -1.
    9900012    2    1    2    0    0 -0.39181542516E+01  0.35955938231E+02  0.18573762215E+02  0.50528855031E+02  0.29999985352E+02 0.  0.
         12    1    1    2    0    0  0.39181542516E+01 -0.35955938231E+02 -0.18573762215E+02  0.40659144969E+02  0.00000000000E+00 0. -1.
         11    1    3    3    0    0  0.68952494547E+01  0.10030103856E+02  0.15330631047E+02  0.19574874124E+02  0.51100000000E-03 0. -1.
        -11    1    3    3    0    0 -0.12813871381E+02  0.15243343203E+02  0.19404921384E+01  0.20008006442E+02  0.51100000000E-03 0.  1.
         12    1    3    3    0    0  0.20004676749E+01  0.10682491172E+02  0.13026390304E+01  0.10945974466E+02  0.00000000000E+00 0. -1.
</event>
<event>
 7    1  0.2942034E-011  0.5052886E+02  0.7816164E-02  0.1300439E+00
        -11   -1    0    0    0    0  0.00000000000E+00  0.00000000000E+00  0.45593999997E+02  0.45594000000E+02  0.51100000000E-03 0.  1.
         11   -1    0    0    0    0 -0.00000000000E+00 -0.00000000000E+00 -0.45593999997E+02  0.45594000000E+02  0.51100000000E-03 0. -1.
    9900012    2    1    2    0    0  0.29980994360E+02 -0.39643867970E+01  0.27176991896E+02  0.50528864815E+02  0.30000015090E+02 0.  0.
         12    1    1    2    0    0 -0.29980994360E+02  0.39643867970E+01 -0.27176991896E+02  0.40659135185E+02  0.00000000000E+00 0. -1.
         11    1    3    3    0    0  0.27341109116E+02 -0.68354401974E+01  0.28230574837E+02  0.39890159767E+02  0.51100000000E-03 0.  1.
        -11    1    3    3    0    0  0.28892220527E+01  0.14740565001E+00  0.39739074517E+01  0.49154118028E+01  0.51100000000E-03 0. -1.
         12    1    3    3    0    0 -0.24933680844E+00  0.27236477504E+01 -0.50274903926E+01  0.57232932443E+01  0.00000000000E+00 0. -1.
</event>
<event>
 7    1  0.2942034E-011  0.5052887E+02  0.7816164E-02  0.1300439E+00
        -11   -1    0    0    0    0  0.00000000000E+00  0.00000000000E+00  0.45593999997E+02  0.45594000000E+02  0.51100000000E-03 0.  1.
         11   -1    0    0    0    0 -0.00000000000E+00 -0.00000000000E+00 -0.45593999997E+02  0.45594000000E+02  0.51100000000E-03 0. -1.
    9900012    2    1    2    0    0  0.99886373381E+01  0.39529744178E+01  0.39214362527E+02  0.50528866819E+02  0.30000021183E+02 0.  0.
         12    1    1    2    0    0 -0.99886373381E+01 -0.39529744178E+01 -0.39214362527E+02  0.40659133181E+02  0.00000000000E+00 0. -1.
         11    1    3    3    0    0 -0.93576963383E+01 -0.12103449643E+01  0.89238531657E+01  0.12987169487E+02  0.51100000000E-03 0. -1.
        -11    1    3    3    0    0  0.36432303421E+01 -0.36997351040E+00  0.13132449375E+02  0.13633460110E+02  0.51100000000E-03 0.  1.
         12    1    3    3    0    0  0.15703103334E+02  0.55332928925E+01  0.17158059986E+02  0.23908237222E+02  0.00000000000E+00 0. -1.
</event>
<event>
 7    1  0.2942034E-011  0.5052886E+02  0.7816164E-02  0.1300439E+00
        -11   -1    0    0    0    0  0.00000000000E+00  0.00000000000E+00  0.45593999997E+02  0.45594000000E+02  0.51100000000E-03 0.  1.
         11   -1    0    0    0    0 -0.00000000000E+00 -0.00000000000E+00 -0.45593999997E+02  0.45594000000E+02  0.51100000000E-03 0. -1.
    9900012    2    1    2    0    0 -0.37436607629E+02 -0.10387273500E+02  0.11990448328E+02  0.50528857207E+02  0.29999991968E+02 0.  0.
         12    1    1    2    0    0  0.37436607629E+02  0.10387273500E+02 -0.11990448328E+02  0.40659142793E+02  0.00000000000E+00 0. -1.
         11    1    3    3    0    0 -0.86379741689E+01 -0.12729859608E+02  0.23755542220E+01  0.15566219243E+02  0.51100000000E-03 0. -1.
        -11    1    3    3    0    0 -0.17622112995E+02 -0.10308096067E+01  0.13960578000E+02  0.22505536501E+02  0.51100000000E-03 0.  1.
        -12    1    3    3    0    0 -0.11176520465E+02  0.33733957156E+01 -0.43456838941E+01  0.12457101464E+02  0.00000000000E+00 0.  1.
</event>
<event>
 7    1  0.2942034E-011  0.5052886E+02  0.7816164E-02  0.1300439E+00
        -11   -1    0    0    0    0  0.00000000000E+00  0.00000000000E+00  0.45593999997E+02  0.45594000000E+02  0.51100000000E-03 0.  1.
         11   -1    0    0    0    0 -0.00000000000E+00 -0.00000000000E+00 -0.45593999997E+02  0.45594000000E+02  0.51100000000E-03 0. -1.
    9900012    2    1    2    0    0  0.22836969034E+02 -0.16641669941E+02  0.29235143909E+02  0.50528856226E+02  0.29999988983E+02 0.  0.
         12    1    1    2    0    0 -0.22836969034E+02  0.16641669941E+02 -0.29235143909E+02  0.40659143774E+02  0.00000000000E+00 0. -1.
         11    1    3    3    0    0 -0.26814869927E+01 -0.10884993023E+02  0.14924535177E+02  0.18665883213E+02  0.51100000000E-03 0. -1.
        -11    1    3    3    0    0  0.88737820230E+01 -0.32428769879E+00  0.10841564918E+02  0.14013875268E+02  0.51100000000E-03 0.  1.
         12    1    3    3    0    0  0.16644674004E+02 -0.54323892186E+01  0.34690438146E+01  0.17849097745E+02  0.00000000000E+00 0. -1.
</event>
<event>
 7    1  0.2942034E-011  0.5052886E+02  0.7816164E-02  0.1300439E+00
        -11   -1    0    0    0    0  0.00000000000E+00  0.00000000000E+00  0.45593999997E+02  0.45594000000E+02  0.51100000000E-03 0.  1.
         11   -1    0    0    0    0 -0.00000000000E+00 -0.00000000000E+00 -0.45593999997E+02  0.45594000000E+02  0.51100000000E-03 0. -1.
    9900012    2    1    2    0    0  0.30215652679E+02 -0.24513974991E+02  0.11800204096E+02  0.50528862609E+02  0.30000008387E+02 0.  0.
         12    1    1    2    0    0 -0.30215652679E+02  0.24513974991E+02 -0.11800204096E+02  0.40659137391E+02  0.00000000000E+00 0. -1.
         11    1    3    3    0    0  0.26599072475E+01 -0.79014951421E+01 -0.43087295146E+01  0.93847686353E+01  0.51100000000E-03 0. -1.
        -11    1    3    3    0    0  0.23575839622E+02 -0.17968875663E+02  0.19718772876E+02  0.35602397539E+02  0.51100000000E-03 0.  1.
         12    1    3    3    0    0  0.39799058089E+01  0.13563958144E+01 -0.36098392661E+01  0.55416964352E+01  0.00000000000E+00 0. -1.
</event>
<event>
 7    1  0.2942034E-011  0.5052887E+02  0.7816164E-02  0.1300439E+00
        -11   -1    0    0    0    0  0.00000000000E+00  0.00000000000E+00  0.45593999997E+02  0.45594000000E+02  0.51100000000E-03 0.  1.
         11   -1    0    0    0    0 -0.00000000000E+00 -0.00000000000E+00 -0.45593999997E+02  0.45594000000E+02  0.51100000000E-03 0. -1.
    9900012    2    1    2    0    0  0.13249391242E+02 -0.30847544563E+02  0.22935732142E+02  0.50528865937E+02  0.30000018503E+02 0.  0.
         12    1    1    2    0    0 -0.13249391242E+02  0.30847544563E+02 -0.22935732142E+02  0.40659134063E+02  0.00000000000E+00 0. -1.
         11    1    3    3    0    0 -0.33701170986E+01 -0.12074566387E+02  0.48299144226E+01  0.13434318601E+02  0.51100000000E-03 0. -1.
        -11    1    3    3    0    0  0.21175489305E+02 -0.17841104858E+02  0.14874399858E+02  0.31431737802E+02  0.51100000000E-03 0.  1.
        -12    1    3    3    0    0 -0.45559809640E+01 -0.93187331785E+00  0.32314178615E+01  0.56628095341E+01  0.00000000000E+00 0.  1.
</event>
<event>
 7    1  0.2942034E-011  0.5052899E+02  0.7816164E-02  0.1300438E+00
        -11   -1    0    0    0    0  0.00000000000E+00  0.00000000000E+00  0.45593999997E+02  0.45594000000E+02  0.51100000000E-03 0.  1.
         11   -1    0    0    0    0 -0.00000000000E+00 -0.00000000000E+00 -0.45593999997E+02  0.45594000000E+02  0.51100000000E-03 0. -1.
    9900012    2    1    2    0    0  0.36329486803E+02 -0.17348417808E+02  0.56882060683E+01  0.50528992387E+02  0.30000402856E+02 0.  0.
         12    1    1    2    0    0 -0.36329486803E+02  0.17348417808E+02 -0.56882060683E+01  0.40659007613E+02  0.00000000000E+00 0. -1.
         11    1    3    3    0    0 -0.18349603691E+01  0.18218506047E+01 -0.22349724283E+01  0.34177947859E+01  0.51100000000E-03 0. -1.
        -11    1    3    3    0    0  0.27963710933E+02 -0.10935589530E+02  0.13429086676E+02  0.32892196897E+02  0.51100000000E-03 0.  1.
        -12    1    3    3    0    0  0.10200736239E+02 -0.82346788829E+01 -0.55059081798E+01  0.14219000704E+02  0.00000000000E+00 0.  1.
</event>
<event>
 7    1  0.2942034E-011  0.5052884E+02  0.7816164E-02  0.1300439E+00
        -11   -1    0    0    0    0  0.00000000000E+00  0.00000000000E+00  0.45593999997E+02  0.45594000000E+02  0.51100000000E-03 0.  1.
         11   -1    0    0    0    0 -0.00000000000E+00 -0.00000000000E+00 -0.45593999997E+02  0.45594000000E+02  0.51100000000E-03 0. -1.
    9900012    2    1    2    0    0  0.61120459282E+01 -0.31245229363E+02  0.25289241950E+02  0.50528840862E+02  0.29999942285E+02 0.  0.
         12    1    1    2    0    0 -0.61120459282E+01  0.31245229363E+02 -0.25289241950E+02  0.40659159138E+02  0.00000000000E+00 0. -1.
         11    1    3    3    0    0  0.36722480780E+01 -0.22724784942E+01  0.13005987535E+02  0.13704206525E+02  0.51100000000E-03 0. -1.
        -11    1    3    3    0    0 -0.18900795617E+00 -0.18263209778E+02 -0.24433205615E+01  0.18426892604E+02  0.51100000000E-03 0.  1.
        -12    1    3    3    0    0  0.26288058064E+01 -0.10709541090E+02  0.14726574976E+02  0.18397741733E+02  0.00000000000E+00 0.  1.
</event>
<event>
 7    1  0.2942034E-011  0.5052886E+02  0.7816164E-02  0.1300439E+00
        -11   -1    0    0    0    0  0.00000000000E+00  0.00000000000E+00  0.45593999997E+02  0.45594000000E+02  0.51100000000E-03 0.  1.
         11   -1    0    0    0    0 -0.00000000000E+00 -0.00000000000E+00 -0.45593999997E+02  0.45594000000E+02  0.51100000000E-03 0. -1.
    9900012    2    1    2    0    0  0.44478766538E+01 -0.29859307140E+02  0.27236074088E+02  0.50528861282E+02  0.30000004351E+02 0.  0.
         12    1    1    2    0    0 -0.44478766538E+01  0.29859307140E+02 -0.27236074088E+02  0.40659138718E+02  0.00000000000E+00 0. -1.
         11    1    3    3    0    0 -0.32638012072E+01 -0.28531677371E+01 -0.16406345892E+01  0.46351533494E+01  0.51100000000E-03 0. -1.
        -11    1    3    3    0    0 -0.15763877453E+00 -0.27605581906E+02  0.24255938443E+02  0.36748381629E+02  0.51100000000E-03 0.  1.
        -12    1    3    3    0    0  0.78693166356E+01  0.59944250367E+00  0.46207702348E+01  0.91453263030E+01  0.00000000000E+00 0.  1.
</event>
<event>
 7    1  0.2942034E-011  0.5052886E+02  0.7816164E-02  0.1300439E+00
        -11   -1    0    0    0    0  0.00000000000E+00  0.00000000000E+00  0.45593999997E+02  0.45594000000E+02  0.51100000000E-03 0. -1.
         11   -1    0    0    0    0 -0.00000000000E+00 -0.00000000000E+00 -0.45593999997E+02  0.45594000000E+02  0.51100000000E-03 0.  1.
    9900012    2    1    2    0    0  0.16634297488E+02 -0.25439494586E+01 -0.37013429762E+02  0.50528861858E+02  0.30000006102E+02 0.  0.
         12    1    1    2    0    0 -0.16634297488E+02  0.25439494586E+01  0.37013429762E+02  0.40659138142E+02  0.00000000000E+00 0. -1.
         11    1    3    3    0    0 -0.68876950080E+00 -0.52193597299E+01 -0.14417908492E+02  0.15349013159E+02  0.51100000000E-03 0. -1.
        -11    1    3    3    0    0  0.20321367412E+02  0.25032590524E+01 -0.24260623557E+02  0.31745899499E+02  0.51100000000E-03 0.  1.
        -12    1    3    3    0    0 -0.29983004234E+01  0.17215121895E+00  0.16651022877E+01  0.34339491987E+01  0.00000000000E+00 0.  1.
</event>
<event>
 7    1  0.2942034E-011  0.5052888E+02  0.7816164E-02  0.1300439E+00
        -11   -1    0    0    0    0  0.00000000000E+00  0.00000000000E+00  0.45593999997E+02  0.45594000000E+02  0.51100000000E-03 0. -1.
         11   -1    0    0    0    0 -0.00000000000E+00 -0.00000000000E+00 -0.45593999997E+02  0.45594000000E+02  0.51100000000E-03 0.  1.
    9900012    2    1    2    0    0  0.57030875574E+01  0.34274851307E+02 -0.21115715287E+02  0.50528879597E+02  0.30000060024E+02 0.  0.
         12    1    1    2    0    0 -0.57030875574E+01 -0.34274851307E+02  0.21115715287E+02  0.40659120403E+02  0.00000000000E+00 0. -1.
         11    1    3    3    0    0  0.99082681112E+01  0.48977198931E+01 -0.14521207217E+02  0.18249024533E+02  0.51100000000E-03 0.  1.
        -11    1    3    3    0    0 -0.37256479119E+01  0.17054337701E+02 -0.91146963840E+01  0.19692855994E+02  0.51100000000E-03 0. -1.
         12    1    3    3    0    0 -0.47953264193E+00  0.12322793713E+02  0.25201883136E+01  0.12586999070E+02  0.00000000000E+00 0. -1.
</event>
<event>
 7    1  0.2942034E-011  0.5052886E+02  0.7816164E-02  0.1300439E+00
        -11   -1    0    0    0    0  0.00000000000E+00  0.00000000000E+00  0.45593999997E+02  0.45594000000E+02  0.51100000000E-03 0.  1.
         11   -1    0    0    0    0 -0.00000000000E+00 -0.00000000000E+00 -0.45593999997E+02  0.45594000000E+02  0.51100000000E-03 0. -1.
    9900012    2    1    2    0    0  0.15211632547E+02  0.76765817895E+01  0.36916688742E+02  0.50528861047E+02  0.30000003639E+02 0.  0.
         12    1    1    2    0    0 -0.15211632547E+02 -0.76765817895E+01 -0.36916688742E+02  0.40659138953E+02  0.00000000000E+00 0. -1.
         11    1    3    3    0    0  0.78898995408E+01  0.58994481867E+01  0.28537720388E+02  0.30190321113E+02  0.51100000000E-03 0. -1.
        -11    1    3    3    0    0  0.12839505941E+02  0.19933236592E+01  0.54777244248E+01  0.14100770091E+02  0.51100000000E-03 0.  1.
         12    1    3    3    0    0 -0.55177729341E+01 -0.21619005644E+00  0.29012439289E+01  0.62377698441E+01  0.00000000000E+00 0. -1.
</event>
<event>
 7    1  0.2942034E-011  0.5052886E+02  0.7816164E-02  0.1300439E+00
        -11   -1    0    0    0    0  0.00000000000E+00  0.00000000000E+00  0.45593999997E+02  0.45594000000E+02  0.51100000000E-03 0. -1.
         11   -1    0    0    0    0 -0.00000000000E+00 -0.00000000000E+00 -0.45593999997E+02  0.45594000000E+02  0.51100000000E-03 0.  1.
    9900012    2    1    2    0    0  0.24892424165E+02  0.11402748879E+02 -0.30058443615E+02  0.50528862092E+02  0.30000006816E+02 0.  0.
         12    1    1    2    0    0 -0.24892424165E+02 -0.11402748879E+02  0.30058443615E+02  0.40659137908E+02  0.00000000000E+00 0. -1.
         11    1    3    3    0    0  0.11726277219E+02 -0.68550424820E+01 -0.18917081971E+02  0.23288477310E+02  0.51100000000E-03 0. -1.
        -11    1    3    3    0    0  0.13697783975E+02  0.18869022066E+02 -0.11858029413E+02  0.26158787078E+02  0.51100000000E-03 0.  1.
         12    1    3    3    0    0 -0.53163702876E+00 -0.61123070550E+00  0.71666776811E+00  0.10815977050E+01  0.00000000000E+00 0. -1.
</event>
<event>
 7    1  0.2942034E-011  0.5052886E+02  0.7816164E-02  0.1300439E+00
        -11   -1    0    0    0    0  0.00000000000E+00  0.00000000000E+00  0.45593999997E+02  0.45594000000E+02  0.51100000000E-03 0.  1.
         11   -1    0    0    0    0 -0.00000000000E+00 -0.00000000000E+00 -0.45593999997E+02  0.45594000000E+02  0.51100000000E-03 0. -1.
    9900012    2    1    2    0    0  0.16768451898E+02  0.85389977937E+01  0.36042619008E+02  0.50528857765E+02  0.29999993662E+02 0.  0.
         12    1    1    2    0    0 -0.16768451898E+02 -0.85389977937E+01 -0.36042619008E+02  0.40659142235E+02  0.00000000000E+00 0. -1.
         11    1    3    3    0    0  0.97842220037E+01 -0.43794642269E+01  0.97075877895E+01  0.14461948973E+02  0.51100000000E-03 0. -1.
        -11    1    3    3    0    0 -0.10257498568E+01  0.15948580004E+02  0.15585199061E+02  0.22322808894E+02  0.51100000000E-03 0.  1.
        -12    1    3    3    0    0  0.80099797508E+01 -0.30301179832E+01  0.10749832157E+02  0.13744099898E+02  0.00000000000E+00 0.  1.
</event>
<event>
 7    1  0.2942034E-011  0.5052886E+02  0.7816164E-02  0.1300439E+00
        -11   -1    0    0    0    0  0.00000000000E+00  0.00000000000E+00  0.45593999997E+02  0.45594000000E+02  0.51100000000E-03 0.  1.
         11   -1    0    0    0    0 -0.00000000000E+00 -0.00000000000E+00 -0.45593999997E+02  0.45594000000E+02  0.51100000000E-03 0. -1.
    9900012    2    1    2    0    0 -0.33352605114E+02  0.23178920859E+02 -0.18726441631E+01  0.50528862820E+02  0.30000009028E+02 0.  0.
         12    1    1    2    0    0  0.33352605114E+02 -0.23178920859E+02  0.18726441631E+01  0.40659137180E+02  0.00000000000E+00 0. -1.
         11    1    3    3    0    0 -0.42608024924E+01  0.97510911965E+01 -0.11903816157E+02  0.15966811102E+02  0.51100000000E-03 0. -1.
        -11    1    3    3    0    0 -0.26717359711E+02  0.11967065584E+02  0.63695552092E+01  0.29959959988E+02  0.51100000000E-03 0.  1.
         12    1    3    3    0    0 -0.23744429097E+01  0.14607640790E+01  0.36616167843E+01  0.46020917310E+01  0.00000000000E+00 0. -1.
</event>
<event>
 7    1  0.2942034E-011  0.5052885E+02  0.7816164E-02  0.1300439E+00
        -11   -1    0    0    0    0  0.00000000000E+00  0.00000000000E+00  0.45593999997E+02  0.45594000000E+02  0.51100000000E-03 0.  1.
         11   -1    0    0    0    0 -0.00000000000E+00 -0.00000000000E+00 -0.45593999997E+02  0.45594000000E+02  0.51100000000E-03 0. -1.
    9900012    2    1    2    0    0  0.83028779062E+01  0.30527071383E+02  0.25540682963E+02  0.50528851522E+02  0.29999974687E+02 0.  0.
         12    1    1    2    0    0 -0.83028779062E+01 -0.30527071383E+02 -0.25540682963E+02  0.40659148478E+02  0.00000000000E+00 0. -1.
         11    1    3    3    0    0 -0.39664595604E+01  0.71331604741E+01  0.14898363278E+02  0.16987525083E+02  0.51100000000E-03 0. -1.
        -11    1    3    3    0    0  0.64694006194E+01  0.24880879178E+02  0.75028810527E+01  0.26780674327E+02  0.51100000000E-03 0.  1.
        -12    1    3    3    0    0  0.57999368472E+01 -0.14869682696E+01  0.31394386317E+01  0.67606521127E+01  0.00000000000E+00 0.  1.
</event>
<event>
 7    1  0.2942034E-011  0.5052889E+02  0.7816164E-02  0.1300439E+00
        -11   -1    0    0    0    0  0.00000000000E+00  0.00000000000E+00  0.45593999997E+02  0.45594000000E+02  0.51100000000E-03 0.  1.
         11   -1    0    0    0    0 -0.00000000000E+00 -0.00000000000E+00 -0.45593999997E+02  0.45594000000E+02  0.51100000000E-03 0. -1.
    9900012    2    1    2    0    0  0.29892543805E+02  0.63941276693E+00  0.27553410425E+02  0.50528887247E+02  0.30000083277E+02 0.  0.
         12    1    1    2    0    0 -0.29892543805E+02 -0.63941276693E+00 -0.27553410425E+02  0.40659112753E+02  0.00000000000E+00 0. -1.
         11    1    3    3    0    0  0.42530155470E+01  0.73622338331E+01 -0.30717678279E+01  0.90402647144E+01  0.51100000000E-03 0. -1.
        -11    1    3    3    0    0  0.12769702641E+02 -0.33050406096E+01  0.85849151376E+01  0.15738150055E+02  0.51100000000E-03 0.  1.
         12    1    3    3    0    0  0.12869825617E+02 -0.34177804566E+01  0.22040263115E+02  0.25750472478E+02  0.00000000000E+00 0. -1.
</event>
<event>
 7    1  0.2942034E-011  0.5052886E+02  0.7816164E-02  0.1300439E+00
        -11   -1    0    0    0    0  0.00000000000E+00  0.00000000000E+00  0.45593999997E+02  0.45594000000E+02  0.51100000000E-03 0.  1.
         11   -1    0    0    0    0 -0.00000000000E+00 -0.00000000000E+00 -0.45593999997E+02  0.45594000000E+02  0.51100000000E-03 0. -1.
    9900012    2    1    2    0    0  0.14074722042E+02 -0.15545547014E+02  0.34833948185E+02  0.50528858608E+02  0.29999996225E+02 0.  0.
         12    1    1    2    0    0 -0.14074722042E+02  0.15545547014E+02 -0.34833948185E+02  0.40659141392E+02  0.00000000000E+00 0. -1.
         11    1    3    3    0    0 -0.34752538675E+00  0.20273373372E+01 -0.41868151203E+01  0.46647927806E+01  0.51100000000E-03 0. -1.
        -11    1    3    3    0    0  0.34741910020E+01 -0.10248043124E+02  0.19776983224E+02  0.22543767580E+02  0.51100000000E-03 0.  1.
         12    1    3    3    0    0  0.10948056427E+02 -0.73248412278E+01  0.19243780082E+02  0.23320298248E+02  0.00000000000E+00 0. -1.
</event>
<event>
 7    1  0.2942034E-011  0.5052886E+02  0.7816164E-02  0.1300439E+00
        -11   -1    0    0    0    0  0.00000000000E+00  0.00000000000E+00  0.45593999997E+02  0.45594000000E+02  0.51100000000E-03 0.  1.
         11   -1    0    0    0    0 -0.00000000000E+00 -0.00000000000E+00 -0.45593999997E+02  0.45594000000E+02  0.51100000000E-03 0. -1.
    9900012    2    1    2    0    0  0.15134498206E+02 -0.34268237590E+02  0.15805083930E+02  0.50528858082E+02  0.29999994627E+02 0.  0.
         12    1    1    2    0    0 -0.15134498206E+02  0.34268237590E+02 -0.15805083930E+02  0.40659141918E+02  0.00000000000E+00 0. -1.
         11    1    3    3    0    0 -0.70704550907E+01 -0.57295788376E+01 -0.19286151310E+01  0.93026321775E+01  0.51100000000E-03 0. -1.
        -11    1    3    3    0    0  0.11321891299E+01 -0.53101151461E+01  0.49865101404E+01  0.73718694191E+01  0.51100000000E-03 0.  1.
         12    1    3    3    0    0  0.21072764166E+02 -0.23228543606E+02  0.12747188921E+02  0.33854356486E+02  0.00000000000E+00 0. -1.
</event>
<event>
 7    1  0.2942034E-011  0.5052886E+02  0.7816164E-02  0.1300439E+00
        -11   -1    0    0    0    0  0.00000000000E+00  0.00000000000E+00  0.45593999997E+02  0.45594000000E+02  0.51100000000E-03 0.  1.
         11   -1    0    0    0    0 -0.00000000000E+00 -0.00000000000E+00 -0.45593999997E+02  0.45594000000E+02  0.51100000000E-03 0. -1.
    9900012    2    1    2    0    0  0.46755316385E+01  0.34089161146E+01  0.40245304392E+02  0.50528857968E+02  0.29999994279E+02 0.  0.
         12    1    1    2    0    0 -0.46755316385E+01 -0.34089161146E+01 -0.40245304392E+02  0.40659142032E+02  0.00000000000E+00 0. -1.
         11    1    3    3    0    0  0.43054456446E+01  0.55683512254E+00  0.27603831057E+01  0.51445741033E+01  0.51100000000E-03 0. -1.
        -11    1    3    3    0    0 -0.71317528875E+01  0.86885436009E+01  0.33024097993E+02  0.34884720691E+02  0.51100000000E-03 0.  1.
        -12    1    3    3    0    0  0.75018388814E+01 -0.58364626089E+01  0.44608232934E+01  0.10499563174E+02  0.00000000000E+00 0.  1.
</event>
<event>
 7    1  0.2942034E-011  0.5052887E+02  0.7816164E-02  0.1300439E+00
        -11   -1    0    0    0    0  0.00000000000E+00  0.00000000000E+00  0.45593999997E+02  0.45594000000E+02  0.51100000000E-03 0.  1.
         11   -1    0    0    0    0 -0.00000000000E+00 -0.00000000000E+00 -0.45593999997E+02  0.45594000000E+02  0.51100000000E-03 0. -1.
    9900012    2    1    2    0    0 -0.30046039453E+02 -0.25381351668E+01  0.27275600834E+02  0.50528867966E+02  0.30000024669E+02 0.  0.
         12    1    1    2    0    0  0.30046039453E+02  0.25381351668E+01 -0.27275600834E+02  0.40659132034E+02  0.00000000000E+00 0. -1.
         11    1    3    3    0    0  0.28780421455E+01 -0.44150357204E+01  0.30949014439E+01  0.61117986070E+01  0.51100000000E-03 0. -1.
        -11    1    3    3    0    0 -0.30454829520E+02  0.51225024504E+01  0.25584948976E+02  0.40103943531E+02  0.51100000000E-03 0.  1.
        -12    1    3    3    0    0 -0.24692520792E+01 -0.32456018967E+01 -0.14042495861E+01  0.43131258273E+01  0.00000000000E+00 0.  1.
</event>
<event>
 7    1  0.2942034E-011  0.5052886E+02  0.7816164E-02  0.1300439E+00
        -11   -1    0    0    0    0  0.00000000000E+00  0.00000000000E+00  0.45593999997E+02  0.45594000000E+02  0.51100000000E-03 0.  1.
         11   -1    0    0    0    0 -0.00000000000E+00 -0.00000000000E+00 -0.45593999997E+02  0.45594000000E+02  0.51100000000E-03 0. -1.
    9900012    2    1    2    0    0 -0.68047885457E+01  0.12188833967E+02  0.38187604793E+02  0.50528856128E+02  0.29999988686E+02 0.  0.
         12    1    1    2    0    0  0.68047885457E+01 -0.12188833967E+02 -0.38187604793E+02  0.40659143872E+02  0.00000000000E+00 0. -1.
         11    1    3    3    0    0 -0.36125716950E+01  0.12528852998E+02  0.92116050866E+01  0.15964852027E+02  0.51100000000E-03 0.  1.
        -11    1    3    3    0    0 -0.67646859086E+01 -0.77964998648E+01  0.18850892803E+02  0.21491918139E+02  0.51100000000E-03 0. -1.
         12    1    3    3    0    0  0.35724690579E+01  0.74564808333E+01  0.10125106903E+02  0.13072085962E+02  0.00000000000E+00 0. -1.
</event>
<event>
 7    1  0.2942034E-011  0.5052886E+02  0.7816164E-02  0.1300439E+00
        -11   -1    0    0    0    0  0.00000000000E+00  0.00000000000E+00  0.45593999997E+02  0.45594000000E+02  0.51100000000E-03 0.  1.
         11   -1    0    0    0    0 -0.00000000000E+00 -0.00000000000E+00 -0.45593999997E+02  0.45594000000E+02  0.51100000000E-03 0. -1.
    9900012    2    1    2    0    0  0.38154431328E+02  0.45516251397E+01  0.13292400023E+02  0.50528858103E+02  0.29999994691E+02 0.  0.
         12    1    1    2    0    0 -0.38154431328E+02 -0.45516251397E+01 -0.13292400023E+02  0.40659141897E+02  0.00000000000E+00 0. -1.
         11    1    3    3    0    0 -0.20610905787E+00  0.34384788706E+01  0.36157493954E+01  0.49939224903E+01  0.51100000000E-03 0. -1.
        -11    1    3    3    0    0  0.18584851576E+02 -0.99017646425E+01  0.37345212263E+00  0.21061365528E+02  0.51100000000E-03 0.  1.
        -12    1    3    3    0    0  0.19775688810E+02  0.11014910912E+02  0.93031985053E+01  0.24473570085E+02  0.00000000000E+00 0.  1.
</event>
<event>
 7    1  0.2942034E-011  0.5052887E+02  0.7816164E-02  0.1300439E+00
        -11   -1    0    0    0    0  0.00000000000E+00  0.00000000000E+00  0.45593999997E+02  0.45594000000E+02  0.51100000000E-03 0. -1.
         11   -1    0    0    0    0 -0.00000000000E+00 -0.00000000000E+00 -0.45593999997E+02  0.45594000000E+02  0.51100000000E-03 0.  1.
    9900012    2    1    2    0    0  0.27836663431E+02 -0.21586513491E+02 -0.20305348851E+02  0.50528873256E+02  0.30000040748E+02 0.  0.
         12    1    1    2    0    0 -0.27836663431E+02  0.21586513491E+02  0.20305348851E+02  0.40659126744E+02  0.00000000000E+00 0. -1.
         11    1    3    3    0    0  0.18222788043E+01  0.41202040002E+01  0.27276435339E+01  0.52665757901E+01  0.51100000000E-03 0. -1.
        -11    1    3    3    0    0  0.19762432087E+02 -0.26048378420E+02 -0.19610483012E+02  0.38126667630E+02  0.51100000000E-03 0.  1.
        -12    1    3    3    0    0  0.62519525401E+01  0.34166092942E+00 -0.34225093721E+01  0.71356298360E+01  0.00000000000E+00 0.  1.
</event>
<event>
 7    1  0.2942034E-011  0.5052887E+02  0.7816164E-02  0.1300439E+00
        -11   -1    0    0    0    0  0.00000000000E+00  0.00000000000E+00  0.45593999997E+02  0.45594000000E+02  0.51100000000E-03 0. -1.
         11   -1    0    0    0    0 -0.00000000000E+00 -0.00000000000E+00 -0.45593999997E+02  0.45594000000E+02  0.51100000000E-03 0.  1.
    9900012    2    1    2    0    0 -0.32937791724E+02  0.23309412573E+02 -0.49938332255E+01  0.50528865621E+02  0.30000017543E+02 0.  0.
         12    1    1    2    0    0  0.32937791724E+02 -0.23309412573E+02  0.49938332255E+01  0.40659134379E+02  0.00000000000E+00 0. -1.
         11    1    3    3    0    0  0.15936592111E+01  0.27341761984E-01 -0.22067368871E+01  0.27221655356E+01  0.51100000000E-03 0. -1.
        -11    1    3    3    0    0 -0.31823761841E+02  0.14695997879E+02 -0.97970811031E+01  0.36396524145E+02  0.51100000000E-03 0.  1.
        -12    1    3    3    0    0 -0.27076890938E+01  0.85860729312E+01  0.70099847647E+01  0.11410175941E+02  0.00000000000E+00 0.  1.
</event>
<event>
 7    1  0.2942034E-011  0.5052887E+02  0.7816164E-02  0.1300439E+00
        -11   -1    0    0    0    0  0.00000000000E+00  0.00000000000E+00  0.45593999997E+02  0.45594000000E+02  0.51100000000E-03 0.  1.
         11   -1    0    0    0    0 -0.00000000000E+00 -0.00000000000E+00 -0.45593999997E+02  0.45594000000E+02  0.51100000000E-03 0. -1.
    9900012    2    1    2    0    0  0.39251863857E+02 -0.61752070376E+01  0.86210797647E+01  0.50528868005E+02  0.30000024789E+02 0.  0.
         12    1    1    2    0    0 -0.39251863857E+02  0.61752070376E+01 -0.86210797647E+01  0.40659131995E+02  0.00000000000E+00 0. -1.
         11    1    3    3    0    0  0.18464829095E+02  0.16898833007E+01  0.19448019890E+01  0.18643708701E+02  0.51100000000E-03 0.  1.
        -11    1    3    3    0    0  0.11864283647E+02 -0.12992448246E+02 -0.28951537040E+01  0.17831064273E+02  0.51100000000E-03 0. -1.
        -12    1    3    3    0    0  0.89227511157E+01  0.51273579080E+01  0.95714314797E+01  0.14054095032E+02  0.00000000000E+00 0.  1.
</event>
<event>
 7    1  0.2942034E-011  0.5052888E+02  0.7816164E-02  0.1300439E+00
        -11   -1    0    0    0    0  0.00000000000E+00  0.00000000000E+00  0.45593999997E+02  0.45594000000E+02  0.51100000000E-03 0. -1.
         11   -1    0    0    0    0 -0.00000000000E+00 -0.00000000000E+00 -0.45593999997E+02  0.45594000000E+02  0.51100000000E-03 0.  1.
    9900012    2    1    2    0    0 -0.18585680412E+02 -0.31348727546E+02 -0.18027579231E+02  0.50528882350E+02  0.30000068392E+02 0.  0.
         12    1    1    2    0    0  0.18585680412E+02  0.31348727546E+02  0.18027579231E+02  0.40659117650E+02  0.00000000000E+00 0. -1.
         11    1    3    3    0    0 -0.15920922997E+02 -0.13773766241E+02 -0.64743797300E+01  0.22025213250E+02  0.51100000000E-03 0. -1.
        -11    1    3    3    0    0  0.78632106062E+01 -0.95350558863E+01 -0.82228859822E+01  0.14844636268E+02  0.51100000000E-03 0.  1.
        -12    1    3    3    0    0 -0.10527968021E+02 -0.80399054187E+01 -0.33303135184E+01  0.13659032833E+02  0.00000000000E+00 0.  1.
</event>
<event>
 7    1  0.2942034E-011  0.5052886E+02  0.7816164E-02  0.1300439E+00
        -11   -1    0    0    0    0  0.00000000000E+00  0.00000000000E+00  0.45593999997E+02  0.45594000000E+02  0.51100000000E-03 0. -1.
         11   -1    0    0    0    0 -0.00000000000E+00 -0.00000000000E+00 -0.45593999997E+02  0.45594000000E+02  0.51100000000E-03 0.  1.
    9900012    2    1    2    0    0  0.34349993194E+01 -0.38767352122E+02  0.11766850293E+02  0.50528861092E+02  0.30000003776E+02 0.  0.
         12    1    1    2    0    0 -0.34349993194E+01  0.38767352122E+02 -0.11766850293E+02  0.40659138908E+02  0.00000000000E+00 0. -1.
         11    1    3    3    0    0  0.11116038618E+02 -0.35725781200E+01  0.20867387771E+01  0.11861033174E+02  0.51100000000E-03 0. -1.
        -11    1    3    3    0    0 -0.83665747188E+01 -0.15247000441E+02  0.32072339622E+01  0.17684935536E+02  0.51100000000E-03 0.  1.
         12    1    3    3    0    0  0.68553542020E+00 -0.19947773562E+02  0.64728775540E+01  0.20982892382E+02  0.00000000000E+00 0. -1.
</event>
<event>
 7    1  0.2942034E-011  0.5052887E+02  0.7816164E-02  0.1300439E+00
        -11   -1    0    0    0    0  0.00000000000E+00  0.00000000000E+00  0.45593999997E+02  0.45594000000E+02  0.51100000000E-03 0.  1.
         11   -1    0    0    0    0 -0.00000000000E+00 -0.00000000000E+00 -0.45593999997E+02  0.45594000000E+02  0.51100000000E-03 0. -1.
    9900012    2    1    2    0    0 -0.14639826892E+02 -0.22454125204E+02  0.30572088828E+02  0.50528869594E+02  0.30000029616E+02 0.  0.
         12    1    1    2    0    0  0.14639826892E+02  0.22454125204E+02 -0.30572088828E+02  0.40659130406E+02  0.00000000000E+00 0. -1.
         11    1    3    3    0    0 -0.11412810243E+02 -0.32686687459E+01  0.46780753948E+01  0.12760126280E+02  0.51100000000E-03 0.  1.
        -11    1    3    3    0    0  0.74453648691E+00 -0.14181192763E+02  0.27701450519E+02  0.31129261538E+02  0.51100000000E-03 0. -1.
        -12    1    3    3    0    0 -0.39715531358E+01 -0.50042636945E+01 -0.18074370856E+01  0.66394817760E+01  0.00000000000E+00 0.  1.
</event>
<event>
 7    1  0.2942034E-011  0.5052884E+02  0.7816164E-02  0.1300439E+00
        -11   -1    0    0    0    0  0.00000000000E+00  0.00000000000E+00  0.45593999997E+02  0.45594000000E+02  0.51100000000E-03 0. -1.
         11   -1    0    0    0    0 -0.00000000000E+00 -0.00000000000E+00 -0.45593999997E+02  0.45594000000E+02  0.51100000000E-03 0.  1.
    9900012    2    1    2    0    0 -0.38385629908E+02 -0.11744417873E+02 -0.64636671120E+01  0.50528844486E+02  0.29999953300E+02 0.  0.
         12    1    1    2    0    0  0.38385629908E+02  0.11744417873E+02  0.64636671120E+01  0.40659155514E+02  0.00000000000E+00 0. -1.
         11    1    3    3    0    0 -0.11361971066E+02 -0.10055083454E+02  0.47509871572E+01  0.15898772563E+02  0.51100000000E-03 0. -1.
        -11    1    3    3    0    0 -0.19376619929E+02  0.63844663083E+01 -0.11664555408E+02  0.23500567292E+02  0.51100000000E-03 0.  1.
        -12    1    3    3    0    0 -0.76470389122E+01 -0.80738007267E+01  0.44990113860E+00  0.11129504631E+02  0.00000000000E+00 0.  1.
</event>
<event>
 7    1  0.2942034E-011  0.5052892E+02  0.7816164E-02  0.1300439E+00
        -11   -1    0    0    0    0  0.00000000000E+00  0.00000000000E+00  0.45593999997E+02  0.45594000000E+02  0.51100000000E-03 0.  1.
         11   -1    0    0    0    0 -0.00000000000E+00 -0.00000000000E+00 -0.45593999997E+02  0.45594000000E+02  0.51100000000E-03 0. -1.
    9900012    2    1    2    0    0 -0.15747101488E+02 -0.32645544096E+02  0.18424395058E+02  0.50528916294E+02  0.30000171567E+02 0.  0.
         12    1    1    2    0    0  0.15747101488E+02  0.32645544096E+02 -0.18424395058E+02  0.40659083706E+02  0.00000000000E+00 0. -1.
         11    1    3    3    0    0  0.36211383859E+01 -0.10250060762E+01  0.10059920577E+02  0.10740823197E+02  0.51100000000E-03 0. -1.
        -11    1    3    3    0    0 -0.12013991721E+02 -0.16330689076E+02  0.10249043788E+02  0.22717180758E+02  0.51100000000E-03 0.  1.
         12    1    3    3    0    0 -0.73542481525E+01 -0.15289848943E+02 -0.18845693075E+01  0.17070912339E+02  0.00000000000E+00 0. -1.
</event>
<event>
 7    1  0.2942034E-011  0.5052887E+02  0.7816164E-02  0.1300439E+00
        -11   -1    0    0    0    0  0.00000000000E+00  0.00000000000E+00  0.45593999997E+02  0.45594000000E+02  0.51100000000E-03 0. -1.
         11   -1    0    0    0    0 -0.00000000000E+00 -0.00000000000E+00 -0.45593999997E+02  0.45594000000E+02  0.51100000000E-03 0.  1.
    9900012    2    1    2    0    0 -0.39143434282E+02  0.79166735066E+01  0.76343186421E+01  0.50528868333E+02  0.30000025786E+02 0.  0.
         12    1    1    2    0    0  0.39143434282E+02 -0.79166735066E+01 -0.76343186421E+01  0.40659131667E+02  0.00000000000E+00 0. -1.
         11    1    3    3    0    0 -0.14666763305E+02  0.68093731314E+01  0.16278131815E+02  0.22944696205E+02  0.51100000000E-03 0. -1.
        -11    1    3    3    0    0 -0.19606415122E+02  0.32627748912E+01 -0.97592085293E+01  0.22142704562E+02  0.51100000000E-03 0.  1.
         12    1    3    3    0    0 -0.48702558549E+01 -0.21554745161E+01  0.11153953566E+01  0.54414675671E+01  0.00000000000E+00 0. -1.
</event>
<event>
 7    1  0.2942034E-011  0.5052886E+02  0.7816164E-02  0.1300439E+00
        -11   -1    0    0    0    0  0.00000000000E+00  0.00000000000E+00  0.45593999997E+02  0.45594000000E+02  0.51100000000E-03 0. -1.
         11   -1    0    0    0    0 -0.00000000000E+00 -0.00000000000E+00 -0.45593999997E+02  0.45594000000E+02  0.51100000000E-03 0.  1.
    9900012    2    1    2    0    0 -0.20051205301E+02  0.29448585244E+02 -0.19593256997E+02  0.50528859248E+02  0.29999998171E+02 0.  0.
         12    1    1    2    0    0  0.20051205301E+02 -0.29448585244E+02  0.19593256997E+02  0.40659140752E+02  0.00000000000E+00 0. -1.
         11    1    3    3    0    0 -0.37912756696E+01 -0.28819149484E+01 -0.21448192330E+01  0.52229737483E+01  0.51100000000E-03 0. -1.
        -11    1    3    3    0    0 -0.25218843345E+01  0.26763129981E+02 -0.12779064214E+02  0.29764568020E+02  0.51100000000E-03 0.  1.
        -12    1    3    3    0    0 -0.13738045297E+02  0.55673702117E+01 -0.46693735500E+01  0.15541317480E+02  0.00000000000E+00 0.  1.
</event>
<event>
 7    1  0.2942034E-011  0.5052889E+02  0.7816164E-02  0.1300439E+00
        -11   -1    0    0    0    0  0.00000000000E+00  0.00000000000E+00  0.45593999997E+02  0.45594000000E+02  0.51100000000E-03 0. -1.
         11   -1    0    0    0    0 -0.00000000000E+00 -0.00000000000E+00 -0.45593999997E+02  0.45594000000E+02  0.51100000000E-03 0.  1.
    9900012    2    1    2    0    0 -0.13667656916E+02  0.37736795541E+02 -0.65032576938E+01  0.50528893469E+02  0.30000102189E+02 0.  0.
         12    1    1    2    0    0  0.13667656916E+02 -0.37736795541E+02  0.65032576938E+01  0.40659106531E+02  0.00000000000E+00 0. -1.
         11    1    3    3    0    0 -0.24535939701E+01  0.84639139123E+00  0.32867278725E+00  0.26162048505E+01  0.51100000000E-03 0. -1.
        -11    1    3    3    0    0 -0.66828708674E+01  0.22298720560E+02  0.98627011660E+01  0.25281743931E+02  0.51100000000E-03 0.  1.
        -12    1    3    3    0    0 -0.45311920784E+01  0.14591683590E+02 -0.16694631647E+02  0.22630944688E+02  0.00000000000E+00 0.  1.
</event>
<event>
 7    1  0.2942034E-011  0.5052886E+02  0.7816164E-02  0.1300439E+00
        -11   -1    0    0    0    0  0.00000000000E+00  0.00000000000E+00  0.45593999997E+02  0.45594000000E+02  0.51100000000E-03 0.  1.
         11   -1    0    0    0    0 -0.00000000000E+00 -0.00000000000E+00 -0.45593999997E+02  0.45594000000E+02  0.51100000000E-03 0. -1.
    9900012    2    1    2    0    0 -0.20266573791E+02  0.12997825531E+02  0.32764132292E+02  0.50528857774E+02  0.29999993689E+02 0.  0.
         12    1    1    2    0    0  0.20266573791E+02 -0.12997825531E+02 -0.32764132292E+02  0.40659142226E+02  0.00000000000E+00 0. -1.
         11    1    3    3    0    0 -0.61089662235E+01  0.22345311266E+01  0.19640444784E+02  0.20689602926E+02  0.51100000000E-03 0. -1.
        -11    1    3    3    0    0  0.24919883168E+01  0.75279879639E+01 -0.69702848340E+00  0.79603051150E+01  0.51100000000E-03 0.  1.
         12    1    3    3    0    0 -0.16649595884E+02  0.32353064401E+01  0.13820715991E+02  0.21878949732E+02  0.00000000000E+00 0. -1.
</event>
<event>
 7    1  0.2942034E-011  0.5052885E+02  0.7816164E-02  0.1300439E+00
        -11   -1    0    0    0    0  0.00000000000E+00  0.00000000000E+00  0.45593999997E+02  0.45594000000E+02  0.51100000000E-03 0. -1.
         11   -1    0    0    0    0 -0.00000000000E+00 -0.00000000000E+00 -0.45593999997E+02  0.45594000000E+02  0.51100000000E-03 0.  1.
    9900012    2    1    2    0    0 -0.35338804002E+02  0.15567672098E+02  0.12727268546E+02  0.50528845465E+02  0.29999956276E+02 0.  0.
         12    1    1    2    0    0  0.35338804002E+02 -0.15567672098E+02 -0.12727268546E+02  0.40659154535E+02  0.00000000000E+00 0. -1.
         11    1    3    3    0    0  0.35695277322E+01  0.52629403115E+01  0.41663122354E+01  0.76025145088E+01  0.51100000000E-03 0. -1.
        -11    1    3    3    0    0 -0.22571689706E+02  0.11585763163E+02  0.26646267640E+01  0.25511003906E+02  0.51100000000E-03 0.  1.
        -12    1    3    3    0    0 -0.16336642028E+02 -0.12810313765E+01  0.58963295464E+01  0.17415327050E+02  0.00000000000E+00 0.  1.
</event>
<event>
 7    1  0.2942034E-011  0.5052886E+02  0.7816164E-02  0.1300439E+00
        -11   -1    0    0    0    0  0.00000000000E+00  0.00000000000E+00  0.45593999997E+02  0.45594000000E+02  0.51100000000E-03 0.  1.
         11   -1    0    0    0    0 -0.00000000000E+00 -0.00000000000E+00 -0.45593999997E+02  0.45594000000E+02  0.51100000000E-03 0. -1.
    9900012    2    1    2    0    0  0.27943384488E+02  0.28970754651E+02  0.57470008798E+01  0.50528863502E+02  0.30000011100E+02 0.  0.
         12    1    1    2    0    0 -0.27943384488E+02 -0.28970754651E+02 -0.57470008798E+01  0.40659136498E+02  0.00000000000E+00 0. -1.
         11    1    3    3    0    0  0.23124500412E+02  0.22845740190E+02  0.11314077833E+02  0.34419162129E+02  0.51100000000E-03 0. -1.
        -11    1    3    3    0    0 -0.24149567023E+00 -0.25449167506E+01  0.22350198312E+01  0.33956200219E+01  0.51100000000E-03 0.  1.
         12    1    3    3    0    0  0.50603797460E+01  0.86699312109E+01 -0.78020967843E+01  0.12714081351E+02  0.00000000000E+00 0. -1.
</event>
<event>
 7    1  0.2942034E-011  0.5052883E+02  0.7816164E-02  0.1300439E+00
        -11   -1    0    0    0    0  0.00000000000E+00  0.00000000000E+00  0.45593999997E+02  0.45594000000E+02  0.51100000000E-03 0.  1.
         11   -1    0    0    0    0 -0.00000000000E+00 -0.00000000000E+00 -0.45593999997E+02  0.45594000000E+02  0.51100000000E-03 0. -1.
    9900012    2    1    2    0    0  0.70426424981E+01 -0.12382684323E+02  0.38081995884E+02  0.50528830125E+02  0.29999909648E+02 0.  0.
         12    1    1    2    0    0 -0.70426424981E+01  0.12382684323E+02 -0.38081995884E+02  0.40659169875E+02  0.00000000000E+00 0. -1.
         11    1    3    3    0    0 -0.59264535579E+01 -0.12294887461E+02  0.20268736817E+02  0.24435809826E+02  0.51100000000E-03 0. -1.
        -11    1    3    3    0    0  0.10980674662E+02 -0.57697140882E+01  0.86240032762E+01  0.15107556039E+02  0.51100000000E-03 0.  1.
         12    1    3    3    0    0  0.19884213939E+01  0.56819172268E+01  0.91892557914E+01  0.10985464260E+02  0.00000000000E+00 0. -1.
</event>
<event>
 7    1  0.2942034E-011  0.5052886E+02  0.7816164E-02  0.1300439E+00
        -11   -1    0    0    0    0  0.00000000000E+00  0.00000000000E+00  0.45593999997E+02  0.45594000000E+02  0.51100000000E-03 0.  1.
         11   -1    0    0    0    0 -0.00000000000E+00 -0.00000000000E+00 -0.45593999997E+02  0.45594000000E+02  0.51100000000E-03 0. -1.
    9900012    2    1    2    0    0  0.26890260400E+01 -0.18215643299E-02  0.40570119257E+02  0.50528862762E+02  0.30000008852E+02 0.  0.
         12    1    1    2    0    0 -0.26890260400E+01  0.18215643299E-02 -0.40570119257E+02  0.40659137238E+02  0.00000000000E+00 0. -1.
         11    1    3    3    0    0  0.12248420228E+02 -0.50548834295E+01  0.31317377922E+02  0.34005202612E+02  0.51100000000E-03 0. -1.
        -11    1    3    3    0    0  0.61217290042E+00  0.32946567482E+01  0.26232453644E+01  0.42556944500E+01  0.51100000000E-03 0.  1.
         12    1    3    3    0    0 -0.10171567088E+02  0.17584051169E+01  0.66294959713E+01  0.12267965700E+02  0.00000000000E+00 0. -1.
</event>
<event>
 7    1  0.2942034E-011  0.5052886E+02  0.7816164E-02  0.1300439E+00
        -11   -1    0    0    0    0  0.00000000000E+00  0.00000000000E+00  0.45593999997E+02  0.45594000000E+02  0.51100000000E-03 0.  1.
         11   -1    0    0    0    0 -0.00000000000E+00 -0.00000000000E+00 -0.45593999997E+02  0.45594000000E+02  0.51100000000E-03 0. -1.
    9900012    2    1    2    0    0 -0.29321927212E+01  0.36961119318E+02  0.16686637302E+02  0.50528856381E+02  0.29999989456E+02 0.  0.
         12    1    1    2    0    0  0.29321927212E+01 -0.36961119318E+02 -0.16686637302E+02  0.40659143619E+02  0.00000000000E+00 0. -1.
         11    1    3    3    0    0  0.45721769751E+01 -0.24177728444E+01  0.19702458388E+01  0.55346451327E+01  0.51100000000E-03 0. -1.
        -11    1    3    3    0    0 -0.11118972666E+02  0.23249730294E+02  0.67258684872E+01  0.26634917290E+02  0.51100000000E-03 0.  1.
         12    1    3    3    0    0  0.36146029701E+01  0.16129161869E+02  0.79905229759E+01  0.18359293958E+02  0.00000000000E+00 0. -1.
</event>
<event>
 7    1  0.2942034E-011  0.5052886E+02  0.7816164E-02  0.1300439E+00
        -11   -1    0    0    0    0  0.00000000000E+00  0.00000000000E+00  0.45593999997E+02  0.45594000000E+02  0.51100000000E-03 0.  1.
         11   -1    0    0    0    0 -0.00000000000E+00 -0.00000000000E+00 -0.45593999997E+02  0.45594000000E+02  0.51100000000E-03 0. -1.
    9900012    2    1    2    0    0 -0.21408152066E+02 -0.17860470144E+02  0.29594936853E+02  0.50528860118E+02  0.30000000814E+02 0.  0.
         12    1    1    2    0    0  0.21408152066E+02  0.17860470144E+02 -0.29594936853E+02  0.40659139882E+02  0.00000000000E+00 0. -1.
         11    1    3    3    0    0 -0.37000277091E+01 -0.89705815984E+00 -0.27841938077E+01  0.47166358573E+01  0.51100000000E-03 0. -1.
        -11    1    3    3    0    0 -0.20694727199E+02 -0.16222436998E+02  0.33455337640E+02  0.42552306787E+02  0.51100000000E-03 0.  1.
        -12    1    3    3    0    0  0.29866028426E+01 -0.74097498620E+00 -0.10762069801E+01  0.32599174735E+01  0.00000000000E+00 0.  1.
</event>
<event>
 7    1  0.2942034E-011  0.5052882E+02  0.7816164E-02  0.1300439E+00
        -11   -1    0    0    0    0  0.00000000000E+00  0.00000000000E+00  0.45593999997E+02  0.45594000000E+02  0.51100000000E-03 0.  1.
         11   -1    0    0    0    0 -0.00000000000E+00 -0.00000000000E+00 -0.45593999997E+02  0.45594000000E+02  0.51100000000E-03 0. -1.
    9900012    2    1    2    0    0  0.23988594546E+02 -0.39439216068E+01  0.32590820100E+02  0.50528822184E+02  0.29999885510E+02 0.  0.
         12    1    1    2    0    0 -0.23988594546E+02  0.39439216068E+01 -0.32590820100E+02  0.40659177816E+02  0.00000000000E+00 0. -1.
         11    1    3    3    0    0  0.48045486557E+01 -0.12960936908E+02  0.10720867050E+02  0.17493043300E+02  0.51100000000E-03 0. -1.
        -11    1    3    3    0    0  0.23484415523E+01  0.56301686405E+01  0.11381461947E+02  0.12913235573E+02  0.51100000000E-03 0.  1.
         12    1    3    3    0    0  0.16835604338E+02  0.33868466607E+01  0.10488491102E+02  0.20122543311E+02  0.00000000000E+00 0. -1.
</event>
<event>
 7    1  0.2942034E-011  0.5052884E+02  0.7816164E-02  0.1300439E+00
        -11   -1    0    0    0    0  0.00000000000E+00  0.00000000000E+00  0.45593999997E+02  0.45594000000E+02  0.51100000000E-03 0.  1.
         11   -1    0    0    0    0 -0.00000000000E+00 -0.00000000000E+00 -0.45593999997E+02  0.45594000000E+02  0.51100000000E-03 0. -1.
    9900012    2    1    2    0    0 -0.77090902406E+01 -0.39895896560E+02  0.14334983706E+01  0.50528836798E+02  0.29999929932E+02 0.  0.
         12    1    1    2    0    0  0.77090902406E+01  0.39895896560E+02 -0.14334983706E+01  0.40659163202E+02  0.00000000000E+00 0. -1.
         11    1    3    3    0    0 -0.25556827419E+01 -0.13516942237E+02  0.13209260899E+02  0.19071544654E+02  0.51100000000E-03 0. -1.
        -11    1    3    3    0    0 -0.48444180555E+00 -0.17540411488E+02 -0.12330025075E+02  0.21445984185E+02  0.51100000000E-03 0.  1.
        -12    1    3    3    0    0 -0.46689656931E+01 -0.88385428351E+01  0.55426254703E+00  0.10011307960E+02  0.00000000000E+00 0.  1.
</event>
<event>
 7    1  0.2942034E-011  0.5052888E+02  0.7816164E-02  0.1300439E+00
        -11   -1    0    0    0    0  0.00000000000E+00  0.00000000000E+00  0.45593999997E+02  0.45594000000E+02  0.51100000000E-03 0. -1.
         11   -1    0    0    0    0 -0.00000000000E+00 -0.00000000000E+00 -0.45593999997E+02  0.45594000000E+02  0.51100000000E-03 0.  1.
    9900012    2    1    2    0    0  0.26292064002E+02 -0.21454046815E+02 -0.22396767304E+02  0.50528881221E+02  0.30000064959E+02 0.  0.
         12    1    1    2    0    0 -0.26292064002E+02  0.21454046815E+02  0.22396767304E+02  0.40659118779E+02  0.00000000000E+00 0. -1.
         11    1    3    3    0    0 -0.30345277053E+01 -0.68020133256E+01 -0.51126549629E+01  0.90341012119E+01  0.51100000000E-03 0. -1.
        -11    1    3    3    0    0  0.10398735318E+02  0.80934138070E+00  0.16741263158E+01  0.10563684436E+02  0.51100000000E-03 0.  1.
        -12    1    3    3    0    0  0.18927856389E+02 -0.15461374870E+02 -0.18958238657E+02  0.30931095573E+02  0.00000000000E+00 0.  1.
</event>
<event>
 7    1  0.2942034E-011  0.5052890E+02  0.7816164E-02  0.1300439E+00
        -11   -1    0    0    0    0  0.00000000000E+00  0.00000000000E+00  0.45593999997E+02  0.45594000000E+02  0.51100000000E-03 0. -1.
         11   -1    0    0    0    0 -0.00000000000E+00 -0.00000000000E+00 -0.45593999997E+02  0.45594000000E+02  0.51100000000E-03 0.  1.
    9900012    2    1    2    0    0 -0.23487033597E+02 -0.17776844435E+02 -0.28026876023E+02  0.50528896163E+02  0.30000110376E+02 0.  0.
         12    1    1    2    0    0  0.23487033597E+02  0.17776844435E+02  0.28026876023E+02  0.40659103837E+02  0.00000000000E+00 0. -1.
         11    1    3    3    0    0  0.33242851060E+01  0.24767044416E+01 -0.69519616843E+01  0.80941156329E+01  0.51100000000E-03 0. -1.
        -11    1    3    3    0    0 -0.24523251407E+02 -0.17478356345E+02 -0.23412744876E+02  0.38144979000E+02  0.51100000000E-03 0.  1.
        -12    1    3    3    0    0 -0.22880672963E+01 -0.27751925321E+01  0.23378305371E+01  0.42898015295E+01  0.00000000000E+00 0.  1.
</event>
<event>
 7    1  0.2942034E-011  0.5052886E+02  0.7816164E-02  0.1300439E+00
        -11   -1    0    0    0    0  0.00000000000E+00  0.00000000000E+00  0.45593999997E+02  0.45594000000E+02  0.51100000000E-03 0. -1.
         11   -1    0    0    0    0 -0.00000000000E+00 -0.00000000000E+00 -0.45593999997E+02  0.45594000000E+02  0.51100000000E-03 0.  1.
    9900012    2    1    2    0    0 -0.77813264932E+01 -0.38125519027E+02  0.11792435822E+02  0.50528858523E+02  0.29999995966E+02 0.  0.
         12    1    1    2    0    0  0.77813264932E+01  0.38125519027E+02 -0.11792435822E+02  0.40659141477E+02  0.00000000000E+00 0. -1.
         11    1    3    3    0    0 -0.80068516194E+01 -0.60302005525E+01 -0.41862478831E+01  0.10862672929E+02  0.51100000000E-03 0. -1.
        -11    1    3    3    0    0 -0.23681636721E+01 -0.33343209769E+02  0.14718113800E+02  0.36523974469E+02  0.51100000000E-03 0.  1.
        -12    1    3    3    0    0  0.25936887984E+01  0.12478912953E+01  0.12605699057E+01  0.31422111251E+01  0.00000000000E+00 0.  1.
</event>
<event>
 7    1  0.2942034E-011  0.5052886E+02  0.7816164E-02  0.1300439E+00
        -11   -1    0    0    0    0  0.00000000000E+00  0.00000000000E+00  0.45593999997E+02  0.45594000000E+02  0.51100000000E-03 0. -1.
         11   -1    0    0    0    0 -0.00000000000E+00 -0.00000000000E+00 -0.45593999997E+02  0.45594000000E+02  0.51100000000E-03 0.  1.
    9900012    2    1    2    0    0  0.37895289015E+02  0.75678491422E+01 -0.12642806126E+02  0.50528858138E+02  0.29999994797E+02 0.  0.
         12    1    1    2    0    0 -0.37895289015E+02 -0.75678491422E+01  0.12642806126E+02  0.40659141862E+02  0.00000000000E+00 0. -1.
         11    1    3    3    0    0  0.34125513439E+02  0.78595284998E+01  0.11667682409E+01  0.35038324790E+02  0.51100000000E-03 0. -1.
        -11    1    3    3    0    0  0.42570766561E+01  0.12459650010E+01 -0.12894347523E+02  0.13635957200E+02  0.51100000000E-03 0.  1.
         12    1    3    3    0    0 -0.48730107953E+00 -0.15376443586E+01 -0.91522684362E+00  0.18545761486E+01  0.00000000000E+00 0. -1.
</event>
<event>
 7    1  0.2942034E-011  0.5052885E+02  0.7816164E-02  0.1300439E+00
        -11   -1    0    0    0    0  0.00000000000E+00  0.00000000000E+00  0.45593999997E+02  0.45594000000E+02  0.51100000000E-03 0.  1.
         11   -1    0    0    0    0 -0.00000000000E+00 -0.00000000000E+00 -0.45593999997E+02  0.45594000000E+02  0.51100000000E-03 0. -1.
    9900012    2    1    2    0    0 -0.28631310299E+02 -0.21690776014E+02  0.19050580143E+02  0.50528852231E+02  0.29999976840E+02 0.  0.
         12    1    1    2    0    0  0.28631310299E+02  0.21690776014E+02 -0.19050580143E+02  0.40659147769E+02  0.00000000000E+00 0. -1.
         11    1    3    3    0    0 -0.14787192636E+02  0.47375108646E+01  0.56577954053E+01  0.16526213249E+02  0.51100000000E-03 0. -1.
        -11    1    3    3    0    0 -0.12155321020E+02 -0.19658061939E+02  0.13960997441E+02  0.27001864345E+02  0.51100000000E-03 0.  1.
        -12    1    3    3    0    0 -0.16887966426E+01 -0.67702249395E+01 -0.56821270254E+00  0.70007746362E+01  0.00000000000E+00 0.  1.
</event>
<event>
 7    1  0.2942034E-011  0.5052886E+02  0.7816164E-02  0.1300439E+00
        -11   -1    0    0    0    0  0.00000000000E+00  0.00000000000E+00  0.45593999997E+02  0.45594000000E+02  0.51100000000E-03 0.  1.
         11   -1    0    0    0    0 -0.00000000000E+00 -0.00000000000E+00 -0.45593999997E+02  0.45594000000E+02  0.51100000000E-03 0. -1.
    9900012    2    1    2    0    0  0.39411599997E+02  0.98859172334E+01  0.14698532554E+01  0.50528855365E+02  0.29999986368E+02 0.  0.
         12    1    1    2    0    0 -0.39411599997E+02 -0.98859172334E+01 -0.14698532554E+01  0.40659144635E+02  0.00000000000E+00 0. -1.
         11    1    3    3    0    0  0.44742599470E+01  0.20477180829E+01 -0.11404164371E+02  0.12420431421E+02  0.51100000000E-03 0. -1.
        -11    1    3    3    0    0  0.15688595911E+02  0.24748213484E+01  0.54411246600E+01  0.16788764701E+02  0.51100000000E-03 0.  1.
         12    1    3    3    0    0  0.19248744139E+02  0.53633778021E+01  0.74328929668E+01  0.21319659243E+02  0.00000000000E+00 0. -1.
</event>
<event>
 7    1  0.2942034E-011  0.5052886E+02  0.7816164E-02  0.1300439E+00
        -11   -1    0    0    0    0  0.00000000000E+00  0.00000000000E+00  0.45593999997E+02  0.45594000000E+02  0.51100000000E-03 0. -1.
         11   -1    0    0    0    0 -0.00000000000E+00 -0.00000000000E+00 -0.45593999997E+02  0.45594000000E+02  0.51100000000E-03 0.  1.
    9900012    2    1    2    0    0  0.27732607588E+02 -0.20521751020E+02 -0.21515705425E+02  0.50528863653E+02  0.30000011559E+02 0.  0.
         12    1    1    2    0    0 -0.27732607588E+02  0.20521751020E+02  0.21515705425E+02  0.40659136347E+02  0.00000000000E+00 0. -1.
         11    1    3    3    0    0  0.10765657715E+02 -0.15155486653E+02 -0.18597584536E+01  0.18682795923E+02  0.51100000000E-03 0. -1.
        -11    1    3    3    0    0  0.16343178822E+02 -0.26989402387E+01 -0.22472125887E+02  0.27917381943E+02  0.51100000000E-03 0.  1.
        -12    1    3    3    0    0  0.62377105103E+00 -0.26673241282E+01  0.28161789155E+01  0.39286857870E+01  0.00000000000E+00 0.  1.
</event>
<event>
 7    1  0.2942034E-011  0.5052886E+02  0.7816164E-02  0.1300439E+00
        -11   -1    0    0    0    0  0.00000000000E+00  0.00000000000E+00  0.45593999997E+02  0.45594000000E+02  0.51100000000E-03 0. -1.
         11   -1    0    0    0    0 -0.00000000000E+00 -0.00000000000E+00 -0.45593999997E+02  0.45594000000E+02  0.51100000000E-03 0.  1.
    9900012    2    1    2    0    0 -0.20042724242E+02  0.21934308100E+02 -0.27755014518E+02  0.50528862063E+02  0.30000006727E+02 0.  0.
         12    1    1    2    0    0  0.20042724242E+02 -0.21934308100E+02  0.27755014518E+02  0.40659137937E+02  0.00000000000E+00 0. -1.
         11    1    3    3    0    0  0.22727033150E+01  0.14807137922E+02 -0.20881840521E+02  0.25699567654E+02  0.51100000000E-03 0. -1.
        -11    1    3    3    0    0 -0.18293559611E+02  0.75195703002E+01 -0.51641102275E+01  0.20441778187E+02  0.51100000000E-03 0.  1.
         12    1    3    3    0    0 -0.40218679461E+01 -0.39240012215E+00 -0.17090637689E+01  0.43875162220E+01  0.00000000000E+00 0. -1.
</event>
<event>
 7    1  0.2942034E-011  0.5052887E+02  0.7816164E-02  0.1300439E+00
        -11   -1    0    0    0    0  0.00000000000E+00  0.00000000000E+00  0.45593999997E+02  0.45594000000E+02  0.51100000000E-03 0.  1.
         11   -1    0    0    0    0 -0.00000000000E+00 -0.00000000000E+00 -0.45593999997E+02  0.45594000000E+02  0.51100000000E-03 0. -1.
    9900012    2    1    2    0    0 -0.22075990424E+02  0.23838013932E+02  0.24445138436E+02  0.50528867513E+02  0.30000023293E+02 0.  0.
         12    1    1    2    0    0  0.22075990424E+02 -0.23838013932E+02 -0.24445138436E+02  0.40659132487E+02  0.00000000000E+00 0. -1.
         11    1    3    3    0    0  0.26434441730E+01  0.50838801610E+01  0.98499088433E+01  0.11395364806E+02  0.51100000000E-03 0. -1.
        -11    1    3    3    0    0 -0.22684992417E+02  0.19947486125E+02  0.17870056476E+02  0.35097720758E+02  0.51100000000E-03 0.  1.
         12    1    3    3    0    0 -0.20344421799E+01 -0.11933523538E+01 -0.32748268834E+01  0.40357819490E+01  0.00000000000E+00 0. -1.
</event>
<event>
 7    1  0.2942034E-011  0.5052886E+02  0.7816164E-02  0.1300439E+00
        -11   -1    0    0    0    0  0.00000000000E+00  0.00000000000E+00  0.45593999997E+02  0.45594000000E+02  0.51100000000E-03 0.  1.
         11   -1    0    0    0    0 -0.00000000000E+00 -0.00000000000E+00 -0.45593999997E+02  0.45594000000E+02  0.51100000000E-03 0. -1.
    9900012    2    1    2    0    0 -0.40288732991E+02  0.15879609989E+01 -0.52404492488E+01  0.50528856693E+02  0.29999990403E+02 0.  0.
         12    1    1    2    0    0  0.40288732991E+02 -0.15879609989E+01  0.52404492488E+01  0.40659143307E+02  0.00000000000E+00 0. -1.
         11    1    3    3    0    0  0.28229166706E+01  0.28818160040E+00 -0.97670381955E+00  0.30009761372E+01  0.51100000000E-03 0. -1.
        -11    1    3    3    0    0 -0.26866504580E+02  0.10165807983E+02 -0.41262281332E+01  0.29020311493E+02  0.51100000000E-03 0.  1.
        -12    1    3    3    0    0 -0.16245145082E+02 -0.88660285846E+01 -0.13751729603E+00  0.18507569062E+02  0.00000000000E+00 0.  1.
</event>
<event>
 7    1  0.2942034E-011  0.5052886E+02  0.7816164E-02  0.1300439E+00
        -11   -1    0    0    0    0  0.00000000000E+00  0.00000000000E+00  0.45593999997E+02  0.45594000000E+02  0.51100000000E-03 0.  1.
         11   -1    0    0    0    0 -0.00000000000E+00 -0.00000000000E+00 -0.45593999997E+02  0.45594000000E+02  0.51100000000E-03 0. -1.
    9900012    2    1    2    0    0 -0.39874655077E+02 -0.20649335111E+01  0.76755149746E+01  0.50528860830E+02  0.30000002979E+02 0.  0.
         12    1    1    2    0    0  0.39874655077E+02  0.20649335111E+01 -0.76755149746E+01  0.40659139170E+02  0.00000000000E+00 0. -1.
         11    1    3    3    0    0 -0.27016712039E+02 -0.14393739395E+02  0.85573951800E+01  0.31785397209E+02  0.51100000000E-03 0. -1.
        -11    1    3    3    0    0 -0.95377830388E+01  0.53335206880E+01  0.17032501604E+00  0.10929078602E+02  0.51100000000E-03 0.  1.
         12    1    3    3    0    0 -0.33201599987E+01  0.69952851963E+01 -0.10522052214E+01  0.78143850188E+01  0.00000000000E+00 0. -1.
</event>
<event>
 7    1  0.2942034E-011  0.5052886E+02  0.7816164E-02  0.1300439E+00
        -11   -1    0    0    0    0  0.00000000000E+00  0.00000000000E+00  0.45593999997E+02  0.45594000000E+02  0.51100000000E-03 0. -1.
         11   -1    0    0    0    0 -0.00000000000E+00 -0.00000000000E+00 -0.45593999997E+02  0.45594000000E+02  0.51100000000E-03 0.  1.
    9900012    2    1    2    0    0  0.18405141794E+02  0.21971737821E+02 -0.28838499204E+02  0.50528861499E+02  0.30000005011E+02 0.  0.
         12    1    1    2    0    0 -0.18405141794E+02 -0.21971737821E+02  0.28838499204E+02  0.40659138501E+02  0.00000000000E+00 0. -1.
         11    1    3    3    0    0  0.90490152420E+01  0.12581027927E+02 -0.99527018396E+01  0.18418013322E+02  0.51100000000E-03 0. -1.
        -11    1    3    3    0    0 -0.54139112460E+01 -0.29965503140E+01 -0.20545311219E+01  0.65200342910E+01  0.51100000000E-03 0.  1.
        -12    1    3    3    0    0  0.14770037798E+02  0.12387260208E+02 -0.16831266242E+02  0.25590813886E+02  0.00000000000E+00 0.  1.
</event>
<event>
 7    1  0.2942034E-011  0.5052886E+02  0.7816164E-02  0.1300439E+00
        -11   -1    0    0    0    0  0.00000000000E+00  0.00000000000E+00  0.45593999997E+02  0.45594000000E+02  0.51100000000E-03 0.  1.
         11   -1    0    0    0    0 -0.00000000000E+00 -0.00000000000E+00 -0.45593999997E+02  0.45594000000E+02  0.51100000000E-03 0. -1.
    9900012    2    1    2    0    0  0.35486420245E+01  0.13047146783E+02  0.38345078481E+02  0.50528856587E+02  0.29999990081E+02 0.  0.
         12    1    1    2    0    0 -0.35486420245E+01 -0.13047146783E+02 -0.38345078481E+02  0.40659143413E+02  0.00000000000E+00 0. -1.
         11    1    3    3    0    0  0.45843448602E+00 -0.17141981095E+01 -0.27115929691E+01  0.32405823594E+01  0.51100000000E-03 0. -1.
        -11    1    3    3    0    0  0.93888951623E+01  0.14235636805E+02  0.31720089451E+02  0.36013452801E+02  0.51100000000E-03 0.  1.
        -12    1    3    3    0    0 -0.62986876237E+01  0.52570808767E+00  0.93365819994E+01  0.11274821427E+02  0.00000000000E+00 0.  1.
</event>
<event>
 7    1  0.2942034E-011  0.5052885E+02  0.7816164E-02  0.1300439E+00
        -11   -1    0    0    0    0  0.00000000000E+00  0.00000000000E+00  0.45593999997E+02  0.45594000000E+02  0.51100000000E-03 0.  1.
         11   -1    0    0    0    0 -0.00000000000E+00 -0.00000000000E+00 -0.45593999997E+02  0.45594000000E+02  0.51100000000E-03 0. -1.
    9900012    2    1    2    0    0  0.32199102511E+02 -0.19062363975E+02 -0.15906299979E+02  0.50528852175E+02  0.29999976671E+02 0.  0.
         12    1    1    2    0    0 -0.32199102511E+02  0.19062363975E+02  0.15906299979E+02  0.40659147825E+02  0.00000000000E+00 0. -1.
         11    1    3    3    0    0  0.39725989274E+01  0.41370354413E+01 -0.39973625055E+01  0.69911023267E+01  0.51100000000E-03 0. -1.
        -11    1    3    3    0    0  0.30829453125E+02 -0.23244417255E+02 -0.12964122886E+02  0.40728694994E+02  0.51100000000E-03 0.  1.
         12    1    3    3    0    0 -0.26029495406E+01  0.45017838531E-01  0.10551854129E+01  0.28090548539E+01  0.00000000000E+00 0. -1.
</event>
<event>
 7    1  0.2942034E-011  0.5052886E+02  0.7816164E-02  0.1300439E+00
        -11   -1    0    0    0    0  0.00000000000E+00  0.00000000000E+00  0.45593999997E+02  0.45594000000E+02  0.51100000000E-03 0. -1.
         11   -1    0    0    0    0 -0.00000000000E+00 -0.00000000000E+00 -0.45593999997E+02  0.45594000000E+02  0.51100000000E-03 0.  1.
    9900012    2    1    2    0    0 -0.14810434124E+02  0.36758461148E+02 -0.90902347541E+01  0.50528858435E+02  0.29999995700E+02 0.  0.
         12    1    1    2    0    0  0.14810434124E+02 -0.36758461148E+02  0.90902347541E+01  0.40659141565E+02  0.00000000000E+00 0. -1.
         11    1    3    3    0    0  0.71366396391E+01  0.15699987197E+02 -0.11497822599E+00  0.17246287820E+02  0.51100000000E-03 0. -1.
        -11    1    3    3    0    0 -0.22476385714E+02  0.19181127195E+02 -0.67237595054E+01  0.30303671351E+02  0.51100000000E-03 0.  1.
        -12    1    3    3    0    0  0.52931195049E+00  0.18773467559E+01 -0.22514970228E+01  0.29788992642E+01  0.00000000000E+00 0.  1.
</event>
<event>
 7    1  0.2942034E-011  0.5052886E+02  0.7816164E-02  0.1300439E+00
        -11   -1    0    0    0    0  0.00000000000E+00  0.00000000000E+00  0.45593999997E+02  0.45594000000E+02  0.51100000000E-03 0.  1.
         11   -1    0    0    0    0 -0.00000000000E+00 -0.00000000000E+00 -0.45593999997E+02  0.45594000000E+02  0.51100000000E-03 0. -1.
    9900012    2    1    2    0    0 -0.13310836647E+02 -0.16326673698E+02  0.34776817893E+02  0.50528859465E+02  0.29999998829E+02 0.  0.
         12    1    1    2    0    0  0.13310836647E+02  0.16326673698E+02 -0.34776817893E+02  0.40659140535E+02  0.00000000000E+00 0. -1.
         11    1    3    3    0    0  0.31602062329E+01 -0.12322947313E+02  0.18033315706E+02  0.22069037349E+02  0.51100000000E-03 0. -1.
        -11    1    3    3    0    0 -0.15888100639E+02 -0.10610074490E+01  0.55369411853E+01  0.16858683124E+02  0.51100000000E-03 0.  1.
        -12    1    3    3    0    0 -0.58294224023E+00 -0.29427189362E+01  0.11206561002E+02  0.11601138991E+02  0.00000000000E+00 0.  1.
</event>
<event>
 7    1  0.2942034E-011  0.5052886E+02  0.7816164E-02  0.1300439E+00
        -11   -1    0    0    0    0  0.00000000000E+00  0.00000000000E+00  0.45593999997E+02  0.45594000000E+02  0.51100000000E-03 0.  1.
         11   -1    0    0    0    0 -0.00000000000E+00 -0.00000000000E+00 -0.45593999997E+02  0.45594000000E+02  0.51100000000E-03 0. -1.
    9900012    2    1    2    0    0 -0.34035991308E+02 -0.21526261064E+02  0.55979642385E+01  0.50528858060E+02  0.29999994558E+02 0.  0.
         12    1    1    2    0    0  0.34035991308E+02  0.21526261064E+02 -0.55979642385E+01  0.40659141940E+02  0.00000000000E+00 0. -1.
         11    1    3    3    0    0 -0.59180575531E+01  0.35952207727E+01  0.64649352750E+01  0.94733524149E+01  0.51100000000E-03 0. -1.
        -11    1    3    3    0    0 -0.17921442282E+02 -0.24142315140E+02  0.27492875458E+01  0.30192516558E+02  0.51100000000E-03 0.  1.
        -12    1    3    3    0    0 -0.10196491473E+02 -0.97916669649E+00 -0.36162585823E+01  0.10862989087E+02  0.00000000000E+00 0.  1.
</event>
<event>
 7    1  0.2942034E-011  0.5052886E+02  0.7816164E-02  0.1300439E+00
        -11   -1    0    0    0    0  0.00000000000E+00  0.00000000000E+00  0.45593999997E+02  0.45594000000E+02  0.51100000000E-03 0.  1.
         11   -1    0    0    0    0 -0.00000000000E+00 -0.00000000000E+00 -0.45593999997E+02  0.45594000000E+02  0.51100000000E-03 0. -1.
    9900012    2    1    2    0    0  0.57679200184E+01  0.24091406427E+02  0.32241292881E+02  0.50528859187E+02  0.29999997985E+02 0.  0.
         12    1    1    2    0    0 -0.57679200184E+01 -0.24091406427E+02 -0.32241292881E+02  0.40659140813E+02  0.00000000000E+00 0. -1.
         11    1    3    3    0    0  0.15589041028E+01  0.61324207681E+01 -0.29282776900E+01  0.69722002961E+01  0.51100000000E-03 0. -1.
        -11    1    3    3    0    0  0.86940669015E+00 -0.83659542224E+00  0.17508789802E+02  0.17550312832E+02  0.51100000000E-03 0.  1.
        -12    1    3    3    0    0  0.33396092255E+01  0.18795581081E+02  0.17660780769E+02  0.26006346059E+02  0.00000000000E+00 0.  1.
</event>
<event>
 7    1  0.2942034E-011  0.5052886E+02  0.7816164E-02  0.1300439E+00
        -11   -1    0    0    0    0  0.00000000000E+00  0.00000000000E+00  0.45593999997E+02  0.45594000000E+02  0.51100000000E-03 0.  1.
         11   -1    0    0    0    0 -0.00000000000E+00 -0.00000000000E+00 -0.45593999997E+02  0.45594000000E+02  0.51100000000E-03 0. -1.
    9900012    2    1    2    0    0 -0.12676214950E+02 -0.30479385907E+02  0.23737861862E+02  0.50528862325E+02  0.30000007522E+02 0.  0.
         12    1    1    2    0    0  0.12676214950E+02  0.30479385907E+02 -0.23737861862E+02  0.40659137675E+02  0.00000000000E+00 0. -1.
         11    1    3    3    0    0  0.48112878790E+01 -0.15646304993E+02  0.10911078244E+02  0.19672492971E+02  0.51100000000E-03 0.  1.
        -11    1    3    3    0    0 -0.12057160833E+02 -0.41129752547E+00  0.87881410692E+01  0.14925673075E+02  0.51100000000E-03 0. -1.
        -12    1    3    3    0    0 -0.54303419957E+01 -0.14421783389E+02  0.40386425489E+01  0.15930696279E+02  0.00000000000E+00 0.  1.
</event>
<event>
 7    1  0.2942034E-011  0.5052885E+02  0.7816164E-02  0.1300439E+00
        -11   -1    0    0    0    0  0.00000000000E+00  0.00000000000E+00  0.45593999997E+02  0.45594000000E+02  0.51100000000E-03 0. -1.
         11   -1    0    0    0    0 -0.00000000000E+00 -0.00000000000E+00 -0.45593999997E+02  0.45594000000E+02  0.51100000000E-03 0.  1.
    9900012    2    1    2    0    0 -0.28302414730E+02  0.29191046438E+02  0.14916489095E+00  0.50528854388E+02  0.29999983399E+02 0.  0.
         12    1    1    2    0    0  0.28302414730E+02 -0.29191046438E+02 -0.14916489095E+00  0.40659145612E+02  0.00000000000E+00 0. -1.
         11    1    3    3    0    0  0.31263462869E+00  0.42764481827E+01  0.84027505439E+01  0.94335553443E+01  0.51100000000E-03 0. -1.
        -11    1    3    3    0    0 -0.13735355881E+02  0.13944150818E+02  0.24626595674E+01  0.19727240953E+02  0.51100000000E-03 0.  1.
         12    1    3    3    0    0 -0.14879693478E+02  0.10970447437E+02 -0.10716245220E+02  0.21368058091E+02  0.00000000000E+00 0. -1.
</event>
<event>
 7    1  0.2942034E-011  0.5052889E+02  0.7816164E-02  0.1300439E+00
        -11   -1    0    0    0    0  0.00000000000E+00  0.00000000000E+00  0.45593999997E+02  0.45594000000E+02  0.51100000000E-03 0.  1.
         11   -1    0    0    0    0 -0.00000000000E+00 -0.00000000000E+00 -0.45593999997E+02  0.45594000000E+02  0.51100000000E-03 0. -1.
    9900012    2    1    2    0    0  0.38293097196E+02  0.73716685169E+01  0.11509157790E+02  0.50528886598E+02  0.30000081304E+02 0.  0.
         12    1    1    2    0    0 -0.38293097196E+02 -0.73716685169E+01 -0.11509157790E+02  0.40659113402E+02  0.00000000000E+00 0. -1.
         11    1    3    3    0    0  0.67986628956E+01  0.83089783470E+01 -0.31846154594E+00  0.10740686959E+02  0.51100000000E-03 0. -1.
        -11    1    3    3    0    0  0.19571647853E+02 -0.10096028285E+02  0.11281762376E+02  0.24743834573E+02  0.51100000000E-03 0.  1.
        -12    1    3    3    0    0  0.11922786447E+02  0.91587184553E+01  0.54585696044E+00  0.15044365066E+02  0.00000000000E+00 0.  1.
</event>
<event>
 7    1  0.2942034E-011  0.5052886E+02  0.7816164E-02  0.1300439E+00
        -11   -1    0    0    0    0  0.00000000000E+00  0.00000000000E+00  0.45593999997E+02  0.45594000000E+02  0.51100000000E-03 0.  1.
         11   -1    0    0    0    0 -0.00000000000E+00 -0.00000000000E+00 -0.45593999997E+02  0.45594000000E+02  0.51100000000E-03 0. -1.
    9900012    2    1    2    0    0 -0.13874174682E+02 -0.45137718196E+01  0.37951273729E+02  0.50528855434E+02  0.29999986577E+02 0.  0.
         12    1    1    2    0    0  0.13874174682E+02  0.45137718196E+01 -0.37951273729E+02  0.40659144566E+02  0.00000000000E+00 0. -1.
         11    1    3    3    0    0  0.24377750152E+01 -0.60790438354E+01  0.34587632342E+01  0.74067917717E+01  0.51100000000E-03 0. -1.
        -11    1    3    3    0    0 -0.77084310159E+01  0.15535548539E+01  0.33559099014E+02  0.34468051414E+02  0.51100000000E-03 0.  1.
        -12    1    3    3    0    0 -0.86035186815E+01  0.11717161955E-01  0.93341148132E+00  0.86540122480E+01  0.00000000000E+00 0.  1.
</event>
<event>
 7    1  0.2942034E-011  0.5052888E+02  0.7816164E-02  0.1300439E+00
        -11   -1    0    0    0    0  0.00000000000E+00  0.00000000000E+00  0.45593999997E+02  0.45594000000E+02  0.51100000000E-03 0. -1.
         11   -1    0    0    0    0 -0.00000000000E+00 -0.00000000000E+00 -0.45593999997E+02  0.45594000000E+02  0.51100000000E-03 0.  1.
    9900012    2    1    2    0    0 -0.47743642442E+01 -0.32192110592E+02 -0.24372879043E+02  0.50528883296E+02  0.30000071266E+02 0.  0.
         12    1    1    2    0    0  0.47743642442E+01  0.32192110592E+02  0.24372879043E+02  0.40659116704E+02  0.00000000000E+00 0. -1.
         11    1    3    3    0    0  0.64474040765E+01 -0.18764588144E+02 -0.10407158211E+02  0.22405082679E+02  0.51100000000E-03 0.  1.
        -11    1    3    3    0    0 -0.68768561720E+01  0.16781197591E+01  0.28471234904E-01  0.70787038085E+01  0.51100000000E-03 0. -1.
        -12    1    3    3    0    0 -0.43449121486E+01 -0.15105642207E+02 -0.13994192067E+02  0.21045096809E+02  0.00000000000E+00 0.  1.
</event>
<event>
 7    1  0.2942034E-011  0.5052885E+02  0.7816164E-02  0.1300439E+00
        -11   -1    0    0    0    0  0.00000000000E+00  0.00000000000E+00  0.45593999997E+02  0.45594000000E+02  0.51100000000E-03 0.  1.
         11   -1    0    0    0    0 -0.00000000000E+00 -0.00000000000E+00 -0.45593999997E+02  0.45594000000E+02  0.51100000000E-03 0. -1.
    9900012    2    1    2    0    0 -0.67356894616E+01  0.31669024996E+02  0.24594100921E+02  0.50528850270E+02  0.29999970880E+02 0.  0.
         12    1    1    2    0    0  0.67356894616E+01 -0.31669024996E+02 -0.24594100921E+02  0.40659149730E+02  0.00000000000E+00 0. -1.
         11    1    3    3    0    0 -0.60836621518E+00 -0.31931925392E+01 -0.13909876946E+01  0.35357368499E+01  0.51100000000E-03 0. -1.
        -11    1    3    3    0    0  0.31708122224E+01  0.25922554819E+02  0.15488171780E+02  0.30363075665E+02  0.51100000000E-03 0.  1.
        -12    1    3    3    0    0 -0.92981354689E+01  0.89396627156E+01  0.10496916835E+02  0.16630037754E+02  0.00000000000E+00 0.  1.
</event>
<event>
 7    1  0.2942034E-011  0.5052885E+02  0.7816164E-02  0.1300439E+00
        -11   -1    0    0    0    0  0.00000000000E+00  0.00000000000E+00  0.45593999997E+02  0.45594000000E+02  0.51100000000E-03 0.  1.
         11   -1    0    0    0    0 -0.00000000000E+00 -0.00000000000E+00 -0.45593999997E+02  0.45594000000E+02  0.51100000000E-03 0. -1.
    9900012    2    1    2    0    0  0.20424121494E+02 -0.18678460605E+02  0.29784838803E+02  0.50528852789E+02  0.29999978538E+02 0.  0.
         12    1    1    2    0    0 -0.20424121494E+02  0.18678460605E+02 -0.29784838803E+02  0.40659147211E+02  0.00000000000E+00 0. -1.
         11    1    3    3    0    0 -0.95415939677E+00 -0.28617520864E+01 -0.12885728311E+01  0.32803148265E+01  0.51100000000E-03 0. -1.
        -11    1    3    3    0    0  0.23997413870E+02 -0.66551061664E+01  0.16630640579E+02  0.29945692793E+02  0.51100000000E-03 0.  1.
        -12    1    3    3    0    0 -0.26191329789E+01 -0.91616023519E+01  0.14442771056E+02  0.17302845170E+02  0.00000000000E+00 0.  1.
</event>
<event>
 7    1  0.2942034E-011  0.5052886E+02  0.7816164E-02  0.1300439E+00
        -11   -1    0    0    0    0  0.00000000000E+00  0.00000000000E+00  0.45593999997E+02  0.45594000000E+02  0.51100000000E-03 0.  1.
         11   -1    0    0    0    0 -0.00000000000E+00 -0.00000000000E+00 -0.45593999997E+02  0.45594000000E+02  0.51100000000E-03 0. -1.
    9900012    2    1    2    0    0 -0.95513623600E+01 -0.11164322875E+01  0.39505582150E+02  0.50528856318E+02  0.29999989264E+02 0.  0.
         12    1    1    2    0    0  0.95513623600E+01  0.11164322875E+01 -0.39505582150E+02  0.40659143682E+02  0.00000000000E+00 0. -1.
         11    1    3    3    0    0 -0.18939351094E+00 -0.13132966755E+02  0.12197586909E+02  0.17924614706E+02  0.51100000000E-03 0. -1.
        -11    1    3    3    0    0 -0.45829904690E+01  0.62785999865E+01  0.22292276523E+02  0.23608689338E+02  0.51100000000E-03 0.  1.
         12    1    3    3    0    0 -0.47789783801E+01  0.57379344805E+01  0.50157187172E+01  0.89955522738E+01  0.00000000000E+00 0. -1.
</event>
<event>
 7    1  0.2942034E-011  0.5052886E+02  0.7816164E-02  0.1300439E+00
        -11   -1    0    0    0    0  0.00000000000E+00  0.00000000000E+00  0.45593999997E+02  0.45594000000E+02  0.51100000000E-03 0. -1.
         11   -1    0    0    0    0 -0.00000000000E+00 -0.00000000000E+00 -0.45593999997E+02  0.45594000000E+02  0.51100000000E-03 0.  1.
    9900012    2    1    2    0    0 -0.18267666265E+02 -0.35735914792E+02 -0.65116897465E+01  0.50528864001E+02  0.30000012619E+02 0.  0.
         12    1    1    2    0    0  0.18267666265E+02  0.35735914792E+02  0.65116897465E+01  0.40659135999E+02  0.00000000000E+00 0. -1.
         11    1    3    3    0    0  0.11406191455E+01 -0.29913255041E+01 -0.55296279716E+01  0.63895090634E+01  0.51100000000E-03 0. -1.
        -11    1    3    3    0    0 -0.12449247045E+02 -0.33929229394E+02  0.25787922911E+01  0.36232948116E+02  0.51100000000E-03 0.  1.
        -12    1    3    3    0    0 -0.69590383656E+01  0.11846401059E+01 -0.35608540661E+01  0.79064068219E+01  0.00000000000E+00 0.  1.
</event>
<event>
 7    1  0.2942034E-011  0.5052886E+02  0.7816164E-02  0.1300439E+00
        -11   -1    0    0    0    0  0.00000000000E+00  0.00000000000E+00  0.45593999997E+02  0.45594000000E+02  0.51100000000E-03 0.  1.
         11   -1    0    0    0    0 -0.00000000000E+00 -0.00000000000E+00 -0.45593999997E+02  0.45594000000E+02  0.51100000000E-03 0. -1.
    9900012    2    1    2    0    0 -0.25721791213E+02  0.28607438828E+02 -0.13159392635E+02  0.50528859404E+02  0.29999998643E+02 0.  0.
         12    1    1    2    0    0  0.25721791213E+02 -0.28607438828E+02  0.13159392635E+02  0.40659140596E+02  0.00000000000E+00 0. -1.
         11    1    3    3    0    0 -0.28049357331E+01  0.19720365240E+01 -0.62665887429E+01  0.71432994654E+01  0.51100000000E-03 0. -1.
        -11    1    3    3    0    0 -0.20363929224E+01  0.11020631588E+02  0.76133730212E+01  0.13548603830E+02  0.51100000000E-03 0.  1.
        -12    1    3    3    0    0 -0.20880462558E+02  0.15614770717E+02 -0.14506176913E+02  0.29836956108E+02  0.00000000000E+00 0.  1.
</event>
<event>
 7    1  0.2942034E-011  0.5052887E+02  0.7816164E-02  0.1300439E+00
        -11   -1    0    0    0    0  0.00000000000E+00  0.00000000000E+00  0.45593999997E+02  0.45594000000E+02  0.51100000000E-03 0.  1.
         11   -1    0    0    0    0 -0.00000000000E+00 -0.00000000000E+00 -0.45593999997E+02  0.45594000000E+02  0.51100000000E-03 0. -1.
    9900012    2    1    2    0    0 -0.56478335817E+01 -0.18281778149E+02  0.35875391513E+02  0.50528866307E+02  0.30000019627E+02 0.  0.
         12    1    1    2    0    0  0.56478335817E+01  0.18281778149E+02 -0.35875391513E+02  0.40659133693E+02  0.00000000000E+00 0. -1.
         11    1    3    3    0    0 -0.17067616929E+01  0.20810403853E+01  0.11824437668E+01  0.29397173477E+01  0.51100000000E-03 0. -1.
        -11    1    3    3    0    0 -0.48586486941E+01 -0.20750682048E+02  0.38309169877E+02  0.43838222700E+02  0.51100000000E-03 0.  1.
        -12    1    3    3    0    0  0.91757680527E+00  0.38786351373E+00 -0.36162221311E+01  0.37509262590E+01  0.00000000000E+00 0.  1.
</event>
<event>
 7    1  0.2942034E-011  0.5052886E+02  0.7816164E-02  0.1300439E+00
        -11   -1    0    0    0    0  0.00000000000E+00  0.00000000000E+00  0.45593999997E+02  0.45594000000E+02  0.51100000000E-03 0. -1.
         11   -1    0    0    0    0 -0.00000000000E+00 -0.00000000000E+00 -0.45593999997E+02  0.45594000000E+02  0.51100000000E-03 0.  1.
    9900012    2    1    2    0    0  0.14062460680E+02 -0.35811689666E+02 -0.13150497755E+02  0.50528861933E+02  0.30000006332E+02 0.  0.
         12    1    1    2    0    0 -0.14062460680E+02  0.35811689666E+02  0.13150497755E+02  0.40659138067E+02  0.00000000000E+00 0. -1.
         11    1    3    3    0    0  0.19943738801E+02 -0.17436166825E+02 -0.96997089548E+01  0.28210937329E+02  0.51100000000E-03 0. -1.
        -11    1    3    3    0    0  0.42549026199E+00 -0.73408502587E+01 -0.58342429922E+01  0.93865603944E+01  0.51100000000E-03 0.  1.
         12    1    3    3    0    0 -0.63067683827E+01 -0.11034672583E+02  0.23834541919E+01  0.12931364210E+02  0.00000000000E+00 0. -1.
</event>
<event>
 7    1  0.2942034E-011  0.5052886E+02  0.7816164E-02  0.1300439E+00
        -11   -1    0    0    0    0  0.00000000000E+00  0.00000000000E+00  0.45593999997E+02  0.45594000000E+02  0.51100000000E-03 0.  1.
         11   -1    0    0    0    0 -0.00000000000E+00 -0.00000000000E+00 -0.45593999997E+02  0.45594000000E+02  0.51100000000E-03 0. -1.
    9900012    2    1    2    0    0  0.24249928085E+02 -0.13650003397E+02  0.29644293273E+02  0.50528859225E+02  0.29999998102E+02 0.  0.
         12    1    1    2    0    0 -0.24249928085E+02  0.13650003397E+02 -0.29644293273E+02  0.40659140775E+02  0.00000000000E+00 0. -1.
         11    1    3    3    0    0  0.30552434724E+01  0.78174406716E+01  0.14760528231E+01  0.85220668577E+01  0.51100000000E-03 0. -1.
        -11    1    3    3    0    0  0.55138029792E+01 -0.70684422643E+01  0.40508277750E+01  0.98373830494E+01  0.51100000000E-03 0.  1.
         12    1    3    3    0    0  0.15680881634E+02 -0.14399001805E+02  0.24117412675E+02  0.32169409318E+02  0.00000000000E+00 0. -1.
</event>
<event>
 7    1  0.2942034E-011  0.5052886E+02  0.7816164E-02  0.1300439E+00
        -11   -1    0    0    0    0  0.00000000000E+00  0.00000000000E+00  0.45593999997E+02  0.45594000000E+02  0.51100000000E-03 0.  1.
         11   -1    0    0    0    0 -0.00000000000E+00 -0.00000000000E+00 -0.45593999997E+02  0.45594000000E+02  0.51100000000E-03 0. -1.
    9900012    2    1    2    0    0  0.30766982912E+02 -0.13840702055E+02  0.22693465456E+02  0.50528860249E+02  0.30000001214E+02 0.  0.
         12    1    1    2    0    0 -0.30766982912E+02  0.13840702055E+02 -0.22693465456E+02  0.40659139751E+02  0.00000000000E+00 0. -1.
         11    1    3    3    0    0  0.65452213993E+01  0.71784206802E+00  0.59395420039E+01  0.88675464407E+01  0.51100000000E-03 0. -1.
        -11    1    3    3    0    0 -0.33829360867E+01 -0.92409901755E+01  0.62126822729E+01  0.11637765132E+02  0.51100000000E-03 0.  1.
        -12    1    3    3    0    0  0.27604697599E+02 -0.53175539475E+01  0.10541241179E+02  0.30023548676E+02  0.00000000000E+00 0.  1.
</event>
<event>
 7    1  0.2942034E-011  0.5052886E+02  0.7816164E-02  0.1300439E+00
        -11   -1    0    0    0    0  0.00000000000E+00  0.00000000000E+00  0.45593999997E+02  0.45594000000E+02  0.51100000000E-03 0. -1.
         11   -1    0    0    0    0 -0.00000000000E+00 -0.00000000000E+00 -0.45593999997E+02  0.45594000000E+02  0.51100000000E-03 0.  1.
    9900012    2    1    2    0    0 -0.28167967194E+01  0.28824428722E+02 -0.28537406671E+02  0.50528860629E+02  0.30000002368E+02 0.  0.
         12    1    1    2    0    0  0.28167967194E+01 -0.28824428722E+02  0.28537406671E+02  0.40659139371E+02  0.00000000000E+00 0. -1.
         11    1    3    3    0    0  0.44152087848E+01 -0.24029260839E+01 -0.35637496266E+01  0.61618531336E+01  0.51100000000E-03 0. -1.
        -11    1    3    3    0    0 -0.53550352409E+01  0.16446451427E+02 -0.23800184514E+02  0.29421266970E+02  0.51100000000E-03 0.  1.
         12    1    3    3    0    0 -0.18769702633E+01  0.14780903379E+02 -0.11734725297E+01  0.14945740525E+02  0.00000000000E+00 0. -1.
</event>
<event>
 7    1  0.2942034E-011  0.5052884E+02  0.7816164E-02  0.1300439E+00
        -11   -1    0    0    0    0  0.00000000000E+00  0.00000000000E+00  0.45593999997E+02  0.45594000000E+02  0.51100000000E-03 0.  1.
         11   -1    0    0    0    0 -0.00000000000E+00 -0.00000000000E+00 -0.45593999997E+02  0.45594000000E+02  0.51100000000E-03 0. -1.
    9900012    2    1    2    0    0 -0.61692397937E+01  0.12993739389E+02  0.38029858955E+02  0.50528844142E+02  0.29999952253E+02 0.  0.
         12    1    1    2    0    0  0.61692397937E+01 -0.12993739389E+02 -0.38029858955E+02  0.40659155858E+02  0.00000000000E+00 0. -1.
         11    1    3    3    0    0 -0.93390518346E+01  0.11097791177E+02  0.11378743120E+02  0.18435147231E+02  0.51100000000E-03 0. -1.
        -11    1    3    3    0    0 -0.71913791088E-01  0.74604330223E+01  0.23993973678E+02  0.25127156735E+02  0.51100000000E-03 0.  1.
         12    1    3    3    0    0  0.32417258320E+01 -0.55644848105E+01  0.26571421582E+01  0.69665401761E+01  0.00000000000E+00 0. -1.
</event>
<event>
 7    1  0.2942034E-011  0.5052886E+02  0.7816164E-02  0.1300439E+00
        -11   -1    0    0    0    0  0.00000000000E+00  0.00000000000E+00  0.45593999997E+02  0.45594000000E+02  0.51100000000E-03 0.  1.
         11   -1    0    0    0    0 -0.00000000000E+00 -0.00000000000E+00 -0.45593999997E+02  0.45594000000E+02  0.51100000000E-03 0. -1.
    9900012    2    1    2    0    0  0.28649901947E+02 -0.11741205993E+02  0.26353230295E+02  0.50528861461E+02  0.30000004897E+02 0.  0.
         12    1    1    2    0    0 -0.28649901947E+02  0.11741205993E+02 -0.26353230295E+02  0.40659138539E+02  0.00000000000E+00 0. -1.
         11    1    3    3    0    0  0.32517080105E+01 -0.38738395179E+01 -0.38829455074E+00  0.50725743479E+01  0.51100000000E-03 0. -1.
        -11    1    3    3    0    0  0.19773455491E+02  0.50463033040E+01  0.23267254617E+02  0.30948664862E+02  0.51100000000E-03 0.  1.
        -12    1    3    3    0    0  0.56247384460E+01 -0.12913669779E+02  0.34742702288E+01  0.14507622251E+02  0.00000000000E+00 0.  1.
</event>
<event>
 7    1  0.2942034E-011  0.5052886E+02  0.7816164E-02  0.1300439E+00
        -11   -1    0    0    0    0  0.00000000000E+00  0.00000000000E+00  0.45593999997E+02  0.45594000000E+02  0.51100000000E-03 0. -1.
         11   -1    0    0    0    0 -0.00000000000E+00 -0.00000000000E+00 -0.45593999997E+02  0.45594000000E+02  0.51100000000E-03 0.  1.
    9900012    2    1    2    0    0 -0.33145480410E+02 -0.21769644855E+02 -0.89791721994E+01  0.50528857828E+02  0.29999993854E+02 0.  0.
         12    1    1    2    0    0  0.33145480410E+02  0.21769644855E+02  0.89791721994E+01  0.40659142172E+02  0.00000000000E+00 0. -1.
         11    1    3    3    0    0 -0.53174001221E+01 -0.15813606718E+02 -0.61578263772E+01  0.17783805202E+02  0.51100000000E-03 0.  1.
        -11    1    3    3    0    0 -0.17691011847E+02 -0.47298160788E+01  0.59803880836E+01  0.19264166273E+02  0.51100000000E-03 0. -1.
         12    1    3    3    0    0 -0.10137068442E+02 -0.12262220585E+01 -0.88017339058E+01  0.13480886354E+02  0.00000000000E+00 0. -1.
</event>
<event>
 7    1  0.2942034E-011  0.5052883E+02  0.7816164E-02  0.1300439E+00
        -11   -1    0    0    0    0  0.00000000000E+00  0.00000000000E+00  0.45593999997E+02  0.45594000000E+02  0.51100000000E-03 0.  1.
         11   -1    0    0    0    0 -0.00000000000E+00 -0.00000000000E+00 -0.45593999997E+02  0.45594000000E+02  0.51100000000E-03 0. -1.
    9900012    2    1    2    0    0  0.18613184777E+02  0.26562187810E+02  0.24518724602E+02  0.50528827297E+02  0.29999901052E+02 0.  0.
         12    1    1    2    0    0 -0.18613184777E+02 -0.26562187810E+02 -0.24518724602E+02  0.40659172703E+02  0.00000000000E+00 0. -1.
         11    1    3    3    0    0  0.66534236686E+01  0.25459354528E+01 -0.47322421011E+01  0.85524235985E+01  0.51100000000E-03 0. -1.
        -11    1    3    3    0    0  0.14560467293E+02  0.20603146031E+02  0.27561215671E+02  0.37364655005E+02  0.51100000000E-03 0.  1.
         12    1    3    3    0    0 -0.26007061851E+01  0.34131063265E+01  0.16897510322E+01  0.46117486931E+01  0.00000000000E+00 0. -1.
</event>
<event>
 7    1  0.2942034E-011  0.5052891E+02  0.7816164E-02  0.1300439E+00
        -11   -1    0    0    0    0  0.00000000000E+00  0.00000000000E+00  0.45593999997E+02  0.45594000000E+02  0.51100000000E-03 0.  1.
         11   -1    0    0    0    0 -0.00000000000E+00 -0.00000000000E+00 -0.45593999997E+02  0.45594000000E+02  0.51100000000E-03 0. -1.
    9900012    2    1    2    0    0 -0.13952405966E+02 -0.59466945891E+01  0.37724382524E+02  0.50528906975E+02  0.30000143241E+02 0.  0.
         12    1    1    2    0    0  0.13952405966E+02  0.59466945891E+01 -0.37724382524E+02  0.40659093025E+02  0.00000000000E+00 0. -1.
         11    1    3    3    0    0 -0.26781738325E+01  0.53917696150E+01  0.10190391815E+01  0.61059180942E+01  0.51100000000E-03 0. -1.
        -11    1    3    3    0    0 -0.91210282654E+01 -0.16810580998E+02  0.27381462991E+02  0.33399600385E+02  0.51100000000E-03 0.  1.
        -12    1    3    3    0    0 -0.21532038681E+01  0.54721167942E+01  0.93238803522E+01  0.11023388496E+02  0.00000000000E+00 0.  1.
</event>
<event>
 7    1  0.2942034E-011  0.5052885E+02  0.7816164E-02  0.1300439E+00
        -11   -1    0    0    0    0  0.00000000000E+00  0.00000000000E+00  0.45593999997E+02  0.45594000000E+02  0.51100000000E-03 0.  1.
         11   -1    0    0    0    0 -0.00000000000E+00 -0.00000000000E+00 -0.45593999997E+02  0.45594000000E+02  0.51100000000E-03 0. -1.
    9900012    2    1    2    0    0 -0.35110851508E+02 -0.12220651242E+02  0.16463600390E+02  0.50528851605E+02  0.29999974939E+02 0.  0.
         12    1    1    2    0    0  0.35110851508E+02  0.12220651242E+02 -0.16463600390E+02  0.40659148395E+02  0.00000000000E+00 0. -1.
         11    1    3    3    0    0 -0.35565364676E+02 -0.31670040543E+01  0.16872051480E+02  0.39491659887E+02  0.51100000000E-03 0. -1.
        -11    1    3    3    0    0 -0.26516685760E+01 -0.20983058970E+01  0.25422820725E+00  0.33909978055E+01  0.51100000000E-03 0.  1.
         12    1    3    3    0    0  0.31061817442E+01 -0.69553412909E+01 -0.66267929735E+00  0.76461939128E+01  0.00000000000E+00 0. -1.
</event>
<event>
 7    1  0.2942034E-011  0.5052894E+02  0.7816164E-02  0.1300439E+00
        -11   -1    0    0    0    0  0.00000000000E+00  0.00000000000E+00  0.45593999997E+02  0.45594000000E+02  0.51100000000E-03 0.  1.
         11   -1    0    0    0    0 -0.00000000000E+00 -0.00000000000E+00 -0.45593999997E+02  0.45594000000E+02  0.51100000000E-03 0. -1.
    9900012    2    1    2    0    0  0.17691110337E+02  0.36598998235E+02  0.83497032748E+00  0.50528939113E+02  0.30000240927E+02 0.  0.
         12    1    1    2    0    0 -0.17691110337E+02 -0.36598998235E+02 -0.83497032748E+00  0.40659060887E+02  0.00000000000E+00 0. -1.
         11    1    3    3    0    0 -0.51240555030E+01  0.11234826617E+02  0.37209806007E+01  0.12896626334E+02  0.51100000000E-03 0. -1.
        -11    1    3    3    0    0  0.21991475436E+02  0.21243678309E+02  0.26399338789E+01  0.30690195683E+02  0.51100000000E-03 0.  1.
        -12    1    3    3    0    0  0.82369040419E+00  0.41204933096E+01 -0.55259441521E+01  0.69421170956E+01  0.00000000000E+00 0.  1.
</event>
<event>
 7    1  0.2942034E-011  0.5052886E+02  0.7816164E-02  0.1300439E+00
        -11   -1    0    0    0    0  0.00000000000E+00  0.00000000000E+00  0.45593999997E+02  0.45594000000E+02  0.51100000000E-03 0. -1.
         11   -1    0    0    0    0 -0.00000000000E+00 -0.00000000000E+00 -0.45593999997E+02  0.45594000000E+02  0.51100000000E-03 0.  1.
    9900012    2    1    2    0    0 -0.26395402761E+02 -0.19323887292E+02 -0.24146137933E+02  0.50528857312E+02  0.29999992287E+02 0.  0.
         12    1    1    2    0    0  0.26395402761E+02  0.19323887292E+02  0.24146137933E+02  0.40659142688E+02  0.00000000000E+00 0. -1.
         11    1    3    3    0    0 -0.77352013303E+01 -0.60362997428E+01 -0.15562727782E+02  0.18397520227E+02  0.51100000000E-03 0.  1.
        -11    1    3    3    0    0 -0.15359115629E+02  0.16709092438E+01 -0.61122906354E+01  0.16614886929E+02  0.51100000000E-03 0. -1.
         12    1    3    3    0    0 -0.33010858016E+01 -0.14958496793E+02 -0.24711195157E+01  0.15516450156E+02  0.00000000000E+00 0. -1.
</event>
<event>
 7    1  0.2942034E-011  0.5052887E+02  0.7816164E-02  0.1300439E+00
        -11   -1    0    0    0    0  0.00000000000E+00  0.00000000000E+00  0.45593999997E+02  0.45594000000E+02  0.51100000000E-03 0.  1.
         11   -1    0    0    0    0 -0.00000000000E+00 -0.00000000000E+00 -0.45593999997E+02  0.45594000000E+02  0.51100000000E-03 0. -1.
    9900012    2    1    2    0    0  0.19883747050E+02 -0.18991106270E+02  0.29952288104E+02  0.50528867240E+02  0.30000022463E+02 0.  0.
         12    1    1    2    0    0 -0.19883747050E+02  0.18991106270E+02 -0.29952288104E+02  0.40659132760E+02  0.00000000000E+00 0. -1.
         11    1    3    3    0    0 -0.52268969123E+01 -0.27865288789E+00  0.98573464234E+01  0.11160886055E+02  0.51100000000E-03 0. -1.
        -11    1    3    3    0    0  0.14928395883E+02 -0.31560892699E+01  0.88308173494E+01  0.17629555821E+02  0.51100000000E-03 0.  1.
         12    1    3    3    0    0  0.10182248079E+02 -0.15556364112E+02  0.11264124331E+02  0.21738425364E+02  0.00000000000E+00 0. -1.
</event>
<event>
 7    1  0.2942034E-011  0.5052874E+02  0.7816164E-02  0.1300439E+00
        -11   -1    0    0    0    0  0.00000000000E+00  0.00000000000E+00  0.45593999997E+02  0.45594000000E+02  0.51100000000E-03 0. -1.
         11   -1    0    0    0    0 -0.00000000000E+00 -0.00000000000E+00 -0.45593999997E+02  0.45594000000E+02  0.51100000000E-03 0.  1.
    9900012    2    1    2    0    0 -0.10045351093E+02  0.33894215828E+02 -0.20086026684E+02  0.50528740131E+02  0.29999636099E+02 0.  0.
         12    1    1    2    0    0  0.10045351093E+02 -0.33894215828E+02  0.20086026684E+02  0.40659259869E+02  0.00000000000E+00 0. -1.
         11    1    3    3    0    0 -0.10940228406E+01 -0.23550709585E+01  0.14829191565E+01  0.29903669810E+01  0.51100000000E-03 0. -1.
        -11    1    3    3    0    0 -0.92696866396E+01  0.28501324755E+02 -0.25028523348E+02  0.39047145663E+02  0.51100000000E-03 0.  1.
        -12    1    3    3    0    0  0.31835838755E+00  0.77479620319E+01  0.34595775070E+01  0.84912274871E+01  0.00000000000E+00 0.  1.
</event>
<event>
 7    1  0.2942034E-011  0.5052886E+02  0.7816164E-02  0.1300439E+00
        -11   -1    0    0    0    0  0.00000000000E+00  0.00000000000E+00  0.45593999997E+02  0.45594000000E+02  0.51100000000E-03 0.  1.
         11   -1    0    0    0    0 -0.00000000000E+00 -0.00000000000E+00 -0.45593999997E+02  0.45594000000E+02  0.51100000000E-03 0. -1.
    9900012    2    1    2    0    0  0.46427949564E+01  0.26728868370E+02  0.30284937344E+02  0.50528863520E+02  0.30000011156E+02 0.  0.
         12    1    1    2    0    0 -0.46427949564E+01 -0.26728868370E+02 -0.30284937344E+02  0.40659136480E+02  0.00000000000E+00 0. -1.
         11    1    3    3    0    0  0.81461736890E+01 -0.37398738217E+01  0.55103786714E+01  0.10521933061E+02  0.51100000000E-03 0. -1.
        -11    1    3    3    0    0  0.13729234840E+01  0.14460474290E+02  0.95534398766E+01  0.17385581651E+02  0.51100000000E-03 0.  1.
         12    1    3    3    0    0 -0.48763022166E+01  0.16008267902E+02  0.15221118796E+02  0.22621348809E+02  0.00000000000E+00 0. -1.
</event>
<event>
 7    1  0.2942034E-011  0.5052883E+02  0.7816164E-02  0.1300439E+00
        -11   -1    0    0    0    0  0.00000000000E+00  0.00000000000E+00  0.45593999997E+02  0.45594000000E+02  0.51100000000E-03 0.  1.
         11   -1    0    0    0    0 -0.00000000000E+00 -0.00000000000E+00 -0.45593999997E+02  0.45594000000E+02  0.51100000000E-03 0. -1.
    9900012    2    1    2    0    0  0.65398361611E+01 -0.38947834367E+02  0.96677199280E+01  0.50528830463E+02  0.29999910674E+02 0.  0.
         12    1    1    2    0    0 -0.65398361611E+01  0.38947834367E+02 -0.96677199280E+01  0.40659169537E+02  0.00000000000E+00 0. -1.
         11    1    3    3    0    0 -0.41329899595E+01 -0.10106189181E+01  0.66226077841E+01  0.78715875607E+01  0.51100000000E-03 0. -1.
        -11    1    3    3    0    0  0.50334933720E+01 -0.36167934001E+02  0.14955516485E+01  0.36547122738E+02  0.51100000000E-03 0.  1.
        -12    1    3    3    0    0  0.56393327486E+01 -0.17692814478E+01  0.15495604953E+01  0.61101201641E+01  0.00000000000E+00 0.  1.
</event>
<event>
 7    1  0.2942034E-011  0.5052884E+02  0.7816164E-02  0.1300439E+00
        -11   -1    0    0    0    0  0.00000000000E+00  0.00000000000E+00  0.45593999997E+02  0.45594000000E+02  0.51100000000E-03 0.  1.
         11   -1    0    0    0    0 -0.00000000000E+00 -0.00000000000E+00 -0.45593999997E+02  0.45594000000E+02  0.51100000000E-03 0. -1.
    9900012    2    1    2    0    0 -0.92039025000E+01  0.29724030988E+02  0.26171314176E+02  0.50528837132E+02  0.29999930947E+02 0.  0.
         12    1    1    2    0    0  0.92039025000E+01 -0.29724030988E+02 -0.26171314176E+02  0.40659162868E+02  0.00000000000E+00 0. -1.
         11    1    3    3    0    0  0.10005307927E+02  0.84140441888E+01  0.10731770303E+02  0.16913699194E+02  0.51100000000E-03 0. -1.
        -11    1    3    3    0    0 -0.14052435016E+02  0.96955033827E+01  0.76348495810E+01  0.18701995726E+02  0.51100000000E-03 0.  1.
         12    1    3    3    0    0 -0.51567754106E+01  0.11614483416E+02  0.78046942926E+01  0.14913142213E+02  0.00000000000E+00 0. -1.
</event>
<event>
 7    1  0.2942034E-011  0.5052886E+02  0.7816164E-02  0.1300439E+00
        -11   -1    0    0    0    0  0.00000000000E+00  0.00000000000E+00  0.45593999997E+02  0.45594000000E+02  0.51100000000E-03 0.  1.
         11   -1    0    0    0    0 -0.00000000000E+00 -0.00000000000E+00 -0.45593999997E+02  0.45594000000E+02  0.51100000000E-03 0. -1.
    9900012    2    1    2    0    0  0.38414764505E+02 -0.67799576787E+01  0.11467502554E+02  0.50528861139E+02  0.30000003918E+02 0.  0.
         12    1    1    2    0    0 -0.38414764505E+02  0.67799576787E+01 -0.11467502554E+02  0.40659138861E+02  0.00000000000E+00 0. -1.
         11    1    3    3    0    0  0.96165863042E+01 -0.11512087471E+02  0.78907101329E+01  0.16949047075E+02  0.51100000000E-03 0. -1.
        -11    1    3    3    0    0  0.27944082463E+02  0.93923030728E-01  0.49996565017E+00  0.27948712531E+02  0.51100000000E-03 0.  1.
        -12    1    3    3    0    0  0.85409573770E+00  0.46382067620E+01  0.30768267706E+01  0.56311015328E+01  0.00000000000E+00 0.  1.
</event>
<event>
 7    1  0.2942034E-011  0.5052886E+02  0.7816164E-02  0.1300439E+00
        -11   -1    0    0    0    0  0.00000000000E+00  0.00000000000E+00  0.45593999997E+02  0.45594000000E+02  0.51100000000E-03 0. -1.
         11   -1    0    0    0    0 -0.00000000000E+00 -0.00000000000E+00 -0.45593999997E+02  0.45594000000E+02  0.51100000000E-03 0.  1.
    9900012    2    1    2    0    0  0.23369114820E+02  0.30332404584E+02 -0.13674625019E+02  0.50528860010E+02  0.30000000485E+02 0.  0.
         12    1    1    2    0    0 -0.23369114820E+02 -0.30332404584E+02  0.13674625019E+02  0.40659139990E+02  0.00000000000E+00 0. -1.
         11    1    3    3    0    0  0.19086645358E+02  0.10801149025E+02 -0.80986943549E+01  0.23378488014E+02  0.51100000000E-03 0.  1.
        -11    1    3    3    0    0 -0.57919531697E+01  0.26962548950E+01 -0.38413304853E+01  0.74546852473E+01  0.51100000000E-03 0. -1.
        -12    1    3    3    0    0  0.10074422631E+02  0.16835000664E+02 -0.17346001790E+01  0.19695686749E+02  0.00000000000E+00 0.  1.
</event>
<event>
 7    1  0.2942034E-011  0.5052884E+02  0.7816164E-02  0.1300439E+00
        -11   -1    0    0    0    0  0.00000000000E+00  0.00000000000E+00  0.45593999997E+02  0.45594000000E+02  0.51100000000E-03 0.  1.
         11   -1    0    0    0    0 -0.00000000000E+00 -0.00000000000E+00 -0.45593999997E+02  0.45594000000E+02  0.51100000000E-03 0. -1.
    9900012    2    1    2    0    0  0.39245398965E+02 -0.98857794518E+01  0.39035021466E+01  0.50528839847E+02  0.29999939200E+02 0.  0.
         12    1    1    2    0    0 -0.39245398965E+02  0.98857794518E+01 -0.39035021466E+01  0.40659160153E+02  0.00000000000E+00 0. -1.
         11    1    3    3    0    0  0.13736214355E+02  0.54979168928E+01 -0.81655284849E+01  0.16899305627E+02  0.51100000000E-03 0. -1.
        -11    1    3    3    0    0  0.20700910426E+02 -0.72986406177E+01  0.91452316725E+01  0.23778837438E+02  0.51100000000E-03 0.  1.
         12    1    3    3    0    0  0.48082741844E+01 -0.80850557268E+01  0.29237989589E+01  0.98506967820E+01  0.00000000000E+00 0. -1.
</event>
<event>
 7    1  0.2942034E-011  0.5052885E+02  0.7816164E-02  0.1300439E+00
        -11   -1    0    0    0    0  0.00000000000E+00  0.00000000000E+00  0.45593999997E+02  0.45594000000E+02  0.51100000000E-03 0.  1.
         11   -1    0    0    0    0 -0.00000000000E+00 -0.00000000000E+00 -0.45593999997E+02  0.45594000000E+02  0.51100000000E-03 0. -1.
    9900012    2    1    2    0    0 -0.11461212604E+02 -0.14341622237E+02  0.36278433525E+02  0.50528852668E+02  0.29999978170E+02 0.  0.
         12    1    1    2    0    0  0.11461212604E+02  0.14341622237E+02 -0.36278433525E+02  0.40659147332E+02  0.00000000000E+00 0. -1.
         11    1    3    3    0    0 -0.11914711052E+02  0.24631063186E+00  0.10384233824E+02  0.15806749215E+02  0.51100000000E-03 0. -1.
        -11    1    3    3    0    0  0.84620625061E+01 -0.77262751049E+01  0.80824784805E+01  0.14022420886E+02  0.51100000000E-03 0.  1.
        -12    1    3    3    0    0 -0.80085640583E+01 -0.68616577637E+01  0.17811721221E+02  0.20699682567E+02  0.00000000000E+00 0.  1.
</event>
<event>
 7    1  0.2942034E-011  0.5052886E+02  0.7816164E-02  0.1300439E+00
        -11   -1    0    0    0    0  0.00000000000E+00  0.00000000000E+00  0.45593999997E+02  0.45594000000E+02  0.51100000000E-03 0. -1.
         11   -1    0    0    0    0 -0.00000000000E+00 -0.00000000000E+00 -0.45593999997E+02  0.45594000000E+02  0.51100000000E-03 0.  1.
    9900012    2    1    2    0    0 -0.54088951251E+01  0.11964080748E+02 -0.38480776215E+02  0.50528861879E+02  0.30000006167E+02 0.  0.
         12    1    1    2    0    0  0.54088951251E+01 -0.11964080748E+02  0.38480776215E+02  0.40659138121E+02  0.00000000000E+00 0. -1.
         11    1    3    3    0    0 -0.82896186497E+01 -0.21499577692E+01 -0.32370931579E+02  0.33484583129E+02  0.51100000000E-03 0. -1.
        -11    1    3    3    0    0  0.34897001858E+01  0.53126384614E+01 -0.51288766638E+01  0.81674666147E+01  0.51100000000E-03 0.  1.
         12    1    3    3    0    0 -0.60897666119E+00  0.88014000561E+01 -0.98096797254E+00  0.88768121352E+01  0.00000000000E+00 0. -1.
</event>
<event>
 7    1  0.2942034E-011  0.5052887E+02  0.7816164E-02  0.1300439E+00
        -11   -1    0    0    0    0  0.00000000000E+00  0.00000000000E+00  0.45593999997E+02  0.45594000000E+02  0.51100000000E-03 0. -1.
         11   -1    0    0    0    0 -0.00000000000E+00 -0.00000000000E+00 -0.45593999997E+02  0.45594000000E+02  0.51100000000E-03 0.  1.
    9900012    2    1    2    0    0 -0.39213442717E+02  0.97630655088E+01  0.44892416344E+01  0.50528870296E+02  0.30000031751E+02 0.  0.
         12    1    1    2    0    0  0.39213442717E+02 -0.97630655088E+01 -0.44892416344E+01  0.40659129704E+02  0.00000000000E+00 0. -1.
         11    1    3    3    0    0 -0.17347917254E+02 -0.58187300218E+01  0.11483106434E+02  0.21602536558E+02  0.51100000000E-03 0.  1.
        -11    1    3    3    0    0 -0.12297355083E+02  0.13447808960E+02 -0.37888664084E+01  0.18612469390E+02  0.51100000000E-03 0. -1.
        -12    1    3    3    0    0 -0.95681703801E+01  0.21339865707E+01 -0.32049983909E+01  0.10313864348E+02  0.00000000000E+00 0.  1.
</event>
<event>
 7    1  0.2942034E-011  0.5052886E+02  0.7816164E-02  0.1300439E+00
        -11   -1    0    0    0    0  0.00000000000E+00  0.00000000000E+00  0.45593999997E+02  0.45594000000E+02  0.51100000000E-03 0.  1.
         11   -1    0    0    0    0 -0.00000000000E+00 -0.00000000000E+00 -0.45593999997E+02  0.45594000000E+02  0.51100000000E-03 0. -1.
    9900012    2    1    2    0    0  0.14033338484E-01 -0.10544823124E+02  0.39267954414E+02  0.50528859139E+02  0.29999997840E+02 0.  0.
         12    1    1    2    0    0 -0.14033338484E-01  0.10544823124E+02 -0.39267954414E+02  0.40659140861E+02  0.00000000000E+00 0. -1.
         11    1    3    3    0    0 -0.62426436603E+01  0.77091501795E+00  0.38081733147E+01  0.73530329858E+01  0.51100000000E-03 0. -1.
        -11    1    3    3    0    0  0.10797310864E+01 -0.16810699903E+02  0.27126017847E+02  0.31930961384E+02  0.51100000000E-03 0.  1.
        -12    1    3    3    0    0  0.51769459124E+01  0.54949617606E+01  0.83337632527E+01  0.11244864769E+02  0.00000000000E+00 0.  1.
</event>
<event>
 7    1  0.2942034E-011  0.5052886E+02  0.7816164E-02  0.1300439E+00
        -11   -1    0    0    0    0  0.00000000000E+00  0.00000000000E+00  0.45593999997E+02  0.45594000000E+02  0.51100000000E-03 0.  1.
         11   -1    0    0    0    0 -0.00000000000E+00 -0.00000000000E+00 -0.45593999997E+02  0.45594000000E+02  0.51100000000E-03 0. -1.
    9900012    2    1    2    0    0 -0.18689860231E+02  0.35713764781E+02  0.53274567671E+01  0.50528859996E+02  0.30000000443E+02 0.  0.
         12    1    1    2    0    0  0.18689860231E+02 -0.35713764781E+02 -0.53274567671E+01  0.40659140004E+02  0.00000000000E+00 0. -1.
         11    1    3    3    0    0 -0.23915667724E+01  0.13097504054E+02 -0.47147369580E+01  0.14124197284E+02  0.51100000000E-03 0. -1.
        -11    1    3    3    0    0 -0.18908472215E+02  0.21586904841E+02  0.13695958871E+02  0.31797862692E+02  0.51100000000E-03 0.  1.
        -12    1    3    3    0    0  0.26101787561E+01  0.10293558851E+01 -0.36537651458E+01  0.46068000193E+01  0.00000000000E+00 0.  1.
</event>
<event>
 7    1  0.2942034E-011  0.5052891E+02  0.7816164E-02  0.1300439E+00
        -11   -1    0    0    0    0  0.00000000000E+00  0.00000000000E+00  0.45593999997E+02  0.45594000000E+02  0.51100000000E-03 0.  1.
         11   -1    0    0    0    0 -0.00000000000E+00 -0.00000000000E+00 -0.45593999997E+02  0.45594000000E+02  0.51100000000E-03 0. -1.
    9900012    2    1    2    0    0  0.26783262839E+02 -0.24336744588E+02  0.18534866754E+02  0.50528910105E+02  0.30000152755E+02 0.  0.
         12    1    1    2    0    0 -0.26783262839E+02  0.24336744588E+02 -0.18534866754E+02  0.40659089895E+02  0.00000000000E+00 0. -1.
         11    1    3    3    0    0  0.37066035508E-01 -0.90859527136E+01 -0.92150750497E+00  0.91326385535E+01  0.51100000000E-03 0. -1.
        -11    1    3    3    0    0  0.26188999544E+02 -0.64266713269E+01  0.10879274133E+02  0.29077902390E+02  0.51100000000E-03 0.  1.
         12    1    3    3    0    0  0.55719725945E+00 -0.88241205478E+01  0.85771001266E+01  0.12318369162E+02  0.00000000000E+00 0. -1.
</event>
<event>
 7    1  0.2942034E-011  0.5052885E+02  0.7816164E-02  0.1300439E+00
        -11   -1    0    0    0    0  0.00000000000E+00  0.00000000000E+00  0.45593999997E+02  0.45594000000E+02  0.51100000000E-03 0.  1.
         11   -1    0    0    0    0 -0.00000000000E+00 -0.00000000000E+00 -0.45593999997E+02  0.45594000000E+02  0.51100000000E-03 0. -1.
    9900012    2    1    2    0    0  0.12680904485E+02 -0.30509847073E+02  0.23696201826E+02  0.50528854806E+02  0.29999984667E+02 0.  0.
         12    1    1    2    0    0 -0.12680904485E+02  0.30509847073E+02 -0.23696201826E+02  0.40659145194E+02  0.00000000000E+00 0. -1.
         11    1    3    3    0    0  0.73850195593E+00  0.16742465208E+01 -0.18038916884E+01  0.25695353735E+01  0.51100000000E-03 0. -1.
        -11    1    3    3    0    0  0.49871518288E+01 -0.27519589412E+02  0.27634037120E+02  0.39317165368E+02  0.51100000000E-03 0.  1.
        -12    1    3    3    0    0  0.69552507004E+01 -0.46645041813E+01 -0.21339436049E+01  0.86421540644E+01  0.00000000000E+00 0.  1.
</event>
<event>
 7    1  0.2942034E-011  0.5052887E+02  0.7816164E-02  0.1300439E+00
        -11   -1    0    0    0    0  0.00000000000E+00  0.00000000000E+00  0.45593999997E+02  0.45594000000E+02  0.51100000000E-03 0.  1.
         11   -1    0    0    0    0 -0.00000000000E+00 -0.00000000000E+00 -0.45593999997E+02  0.45594000000E+02  0.51100000000E-03 0. -1.
    9900012    2    1    2    0    0  0.11663460527E+02  0.73684367171E+01  0.38247024452E+02  0.50528867562E+02  0.30000023443E+02 0.  0.
         12    1    1    2    0    0 -0.11663460527E+02 -0.73684367171E+01 -0.38247024452E+02  0.40659132438E+02  0.00000000000E+00 0. -1.
         11    1    3    3    0    0  0.12478842186E+02  0.43439438915E+01  0.31592370140E+02  0.34244257945E+02  0.51100000000E-03 0.  1.
        -11    1    3    3    0    0 -0.11075366714E+01 -0.41210021162E+01 -0.22817422142E+01  0.48389713487E+01  0.51100000000E-03 0. -1.
        -12    1    3    3    0    0  0.29215501291E+00  0.71454949419E+01  0.89363965260E+01  0.11445638269E+02  0.00000000000E+00 0.  1.
</event>
<event>
 7    1  0.2942034E-011  0.5052887E+02  0.7816164E-02  0.1300439E+00
        -11   -1    0    0    0    0  0.00000000000E+00  0.00000000000E+00  0.45593999997E+02  0.45594000000E+02  0.51100000000E-03 0.  1.
         11   -1    0    0    0    0 -0.00000000000E+00 -0.00000000000E+00 -0.45593999997E+02  0.45594000000E+02  0.51100000000E-03 0. -1.
    9900012    2    1    2    0    0 -0.17904140479E+02  0.28078006983E+02  0.23328782205E+02  0.50528870625E+02  0.30000032751E+02 0.  0.
         12    1    1    2    0    0  0.17904140479E+02 -0.28078006983E+02 -0.23328782205E+02  0.40659129375E+02  0.00000000000E+00 0. -1.
         11    1    3    3    0    0 -0.10948071760E+01  0.17642269190E+02 -0.89385642667E+00  0.17698792176E+02  0.51100000000E-03 0. -1.
        -11    1    3    3    0    0 -0.43812700611E+01  0.66411850736E+01  0.14717198071E+02  0.16730116134E+02  0.51100000000E-03 0.  1.
         12    1    3    3    0    0 -0.12428063241E+02  0.37945527188E+01  0.95054405609E+01  0.16099962314E+02  0.00000000000E+00 0. -1.
</event>
<event>
 7    1  0.2942034E-011  0.5052886E+02  0.7816164E-02  0.1300439E+00
        -11   -1    0    0    0    0  0.00000000000E+00  0.00000000000E+00  0.45593999997E+02  0.45594000000E+02  0.51100000000E-03 0.  1.
         11   -1    0    0    0    0 -0.00000000000E+00 -0.00000000000E+00 -0.45593999997E+02  0.45594000000E+02  0.51100000000E-03 0. -1.
    9900012    2    1    2    0    0 -0.30754378849E+02 -0.26859960862E+01  0.26459768512E+02  0.50528859046E+02  0.29999997558E+02 0.  0.
         12    1    1    2    0    0  0.30754378849E+02  0.26859960862E+01 -0.26459768512E+02  0.40659140954E+02  0.00000000000E+00 0. -1.
         11    1    3    3    0    0 -0.23183387173E+02 -0.12520090767E+02  0.26805603985E+02  0.37586733283E+02  0.51100000000E-03 0. -1.
        -11    1    3    3    0    0 -0.52498618435E+01  0.38860081801E+01 -0.54293785183E+00  0.65541506485E+01  0.51100000000E-03 0.  1.
         12    1    3    3    0    0 -0.23211298325E+01  0.59480865005E+01  0.19710237841E+00  0.63879751146E+01  0.00000000000E+00 0. -1.
</event>
<event>
 7    1  0.2942034E-011  0.5052886E+02  0.7816164E-02  0.1300439E+00
        -11   -1    0    0    0    0  0.00000000000E+00  0.00000000000E+00  0.45593999997E+02  0.45594000000E+02  0.51100000000E-03 0.  1.
         11   -1    0    0    0    0 -0.00000000000E+00 -0.00000000000E+00 -0.45593999997E+02  0.45594000000E+02  0.51100000000E-03 0. -1.
    9900012    2    1    2    0    0 -0.18534578440E+02  0.15445003568E+01  0.36155905884E+02  0.50528860688E+02  0.30000002547E+02 0.  0.
         12    1    1    2    0    0  0.18534578440E+02 -0.15445003568E+01 -0.36155905884E+02  0.40659139312E+02  0.00000000000E+00 0. -1.
         11    1    3    3    0    0 -0.10454578631E+02 -0.20151475871E+01  0.11012851818E+02  0.15318026621E+02  0.51100000000E-03 0. -1.
        -11    1    3    3    0    0 -0.38460187832E+01  0.13177381083E+02  0.17373053054E+02  0.22141775118E+02  0.51100000000E-03 0.  1.
        -12    1    3    3    0    0 -0.42339810263E+01 -0.96177331395E+01  0.77700010122E+01  0.13069058949E+02  0.00000000000E+00 0.  1.
</event>
<event>
 7    1  0.2942034E-011  0.5052886E+02  0.7816164E-02  0.1300439E+00
        -11   -1    0    0    0    0  0.00000000000E+00  0.00000000000E+00  0.45593999997E+02  0.45594000000E+02  0.51100000000E-03 0.  1.
         11   -1    0    0    0    0 -0.00000000000E+00 -0.00000000000E+00 -0.45593999997E+02  0.45594000000E+02  0.51100000000E-03 0. -1.
    9900012    2    1    2    0    0 -0.31998554025E+02 -0.23558176043E+01  0.24974159102E+02  0.50528856390E+02  0.29999989482E+02 0.  0.
         12    1    1    2    0    0  0.31998554025E+02  0.23558176043E+01 -0.24974159102E+02  0.40659143610E+02  0.00000000000E+00 0. -1.
         11    1    3    3    0    0 -0.29868836712E+02  0.73670071696E+01  0.17686039848E+02  0.35485436547E+02  0.51100000000E-03 0. -1.
        -11    1    3    3    0    0 -0.54249026493E+01 -0.71640092550E+01  0.50931963672E+01  0.10329242318E+02  0.51100000000E-03 0.  1.
         12    1    3    3    0    0  0.32951853361E+01 -0.25588155188E+01  0.21949228871E+01  0.47141775252E+01  0.00000000000E+00 0. -1.
</event>
<event>
 7    1  0.2942034E-011  0.5052880E+02  0.7816164E-02  0.1300439E+00
        -11   -1    0    0    0    0  0.00000000000E+00  0.00000000000E+00  0.45593999997E+02  0.45594000000E+02  0.51100000000E-03 0.  1.
         11   -1    0    0    0    0 -0.00000000000E+00 -0.00000000000E+00 -0.45593999997E+02  0.45594000000E+02  0.51100000000E-03 0. -1.
    9900012    2    1    2    0    0 -0.16176966461E+02  0.22678773238E+02  0.29616704647E+02  0.50528804317E+02  0.29999831202E+02 0.  0.
         12    1    1    2    0    0  0.16176966461E+02 -0.22678773238E+02 -0.29616704647E+02  0.40659195683E+02  0.00000000000E+00 0. -1.
         11    1    3    3    0    0 -0.49304739467E+00 -0.13147045790E+01 -0.24494506067E+01  0.28233583547E+01  0.51100000000E-03 0. -1.
        -11    1    3    3    0    0 -0.10599838150E+02  0.22227576060E+02  0.34004632142E+02  0.41984958184E+02  0.51100000000E-03 0.  1.
        -12    1    3    3    0    0 -0.50840809166E+01  0.17659017565E+01 -0.19384768883E+01  0.57204877788E+01  0.00000000000E+00 0.  1.
</event>
<event>
 7    1  0.2942034E-011  0.5052886E+02  0.7816164E-02  0.1300439E+00
        -11   -1    0    0    0    0  0.00000000000E+00  0.00000000000E+00  0.45593999997E+02  0.45594000000E+02  0.51100000000E-03 0. -1.
         11   -1    0    0    0    0 -0.00000000000E+00 -0.00000000000E+00 -0.45593999997E+02  0.45594000000E+02  0.51100000000E-03 0.  1.
    9900012    2    1    2    0    0 -0.37707470217E+02  0.14690814212E+02  0.39360689626E+01  0.50528856241E+02  0.29999989029E+02 0.  0.
         12    1    1    2    0    0  0.37707470217E+02 -0.14690814212E+02 -0.39360689626E+01  0.40659143759E+02  0.00000000000E+00 0. -1.
         11    1    3    3    0    0 -0.19661256390E+01 -0.29879256728E+01  0.15462402294E+01  0.38966920539E+01  0.51100000000E-03 0. -1.
        -11    1    3    3    0    0 -0.10013145271E+02  0.17651853120E+02  0.46009036189E+01  0.20809116059E+02  0.51100000000E-03 0.  1.
        -12    1    3    3    0    0 -0.25728199307E+02  0.26886765508E-01 -0.22110748857E+01  0.25823048128E+02  0.00000000000E+00 0.  1.
</event>
<event>
 7    1  0.2942034E-011  0.5052886E+02  0.7816164E-02  0.1300439E+00
        -11   -1    0    0    0    0  0.00000000000E+00  0.00000000000E+00  0.45593999997E+02  0.45594000000E+02  0.51100000000E-03 0.  1.
         11   -1    0    0    0    0 -0.00000000000E+00 -0.00000000000E+00 -0.45593999997E+02  0.45594000000E+02  0.51100000000E-03 0. -1.
    9900012    2    1    2    0    0 -0.21549988435E+02  0.26400511784E+02  0.22176035759E+02  0.50528860979E+02  0.30000003431E+02 0.  0.
         12    1    1    2    0    0  0.21549988435E+02 -0.26400511784E+02 -0.22176035759E+02  0.40659139021E+02  0.00000000000E+00 0. -1.
         11    1    3    3    0    0 -0.20938297490E+02  0.13580623418E+02  0.10521331356E+02  0.27084018313E+02  0.51100000000E-03 0. -1.
        -11    1    3    3    0    0  0.55464644070E+01  0.10336378352E+02  0.22691726072E+01  0.11947934107E+02  0.51100000000E-03 0.  1.
        -12    1    3    3    0    0 -0.61581553515E+01  0.24835100140E+01  0.93855317955E+01  0.11496908559E+02  0.00000000000E+00 0.  1.
</event>
<event>
 7    1  0.2942034E-011  0.5052887E+02  0.7816164E-02  0.1300439E+00
        -11   -1    0    0    0    0  0.00000000000E+00  0.00000000000E+00  0.45593999997E+02  0.45594000000E+02  0.51100000000E-03 0.  1.
         11   -1    0    0    0    0 -0.00000000000E+00 -0.00000000000E+00 -0.45593999997E+02  0.45594000000E+02  0.51100000000E-03 0. -1.
    9900012    2    1    2    0    0  0.33882963989E+02 -0.16988935806E+02  0.14713459917E+02  0.50528867062E+02  0.30000021923E+02 0.  0.
         12    1    1    2    0    0 -0.33882963989E+02  0.16988935806E+02 -0.14713459917E+02  0.40659132938E+02  0.00000000000E+00 0. -1.
         11    1    3    3    0    0  0.24915889776E+01 -0.53808294852E+01 -0.35293236709E+01  0.69005410960E+01  0.51100000000E-03 0. -1.
        -11    1    3    3    0    0  0.25403163652E+02  0.93481739277E+00  0.14365204830E+02  0.29198522516E+02  0.51100000000E-03 0.  1.
         12    1    3    3    0    0  0.59882113595E+01 -0.12542923714E+02  0.38775787583E+01  0.14429803450E+02  0.00000000000E+00 0. -1.
</event>
<event>
 7    1  0.2942034E-011  0.5052886E+02  0.7816164E-02  0.1300439E+00
        -11   -1    0    0    0    0  0.00000000000E+00  0.00000000000E+00  0.45593999997E+02  0.45594000000E+02  0.51100000000E-03 0.  1.
         11   -1    0    0    0    0 -0.00000000000E+00 -0.00000000000E+00 -0.45593999997E+02  0.45594000000E+02  0.51100000000E-03 0. -1.
    9900012    2    1    2    0    0 -0.39004843856E+02 -0.44185186285E+01 -0.10595509901E+02  0.50528856119E+02  0.29999988659E+02 0.  0.
         12    1    1    2    0    0  0.39004843856E+02  0.44185186285E+01  0.10595509901E+02  0.40659143881E+02  0.00000000000E+00 0. -1.
         11    1    3    3    0    0 -0.60902000583E+00  0.27396191495E+01 -0.64201940466E+01  0.70068045719E+01  0.51100000000E-03 0. -1.
        -11    1    3    3    0    0 -0.24753294939E+02  0.26128224004E+01  0.33794992245E+01  0.25119185228E+02  0.51100000000E-03 0.  1.
        -12    1    3    3    0    0 -0.13642528910E+02 -0.97709601784E+01 -0.75548150788E+01  0.18402866319E+02  0.00000000000E+00 0.  1.
</event>
<event>
 7    1  0.2942034E-011  0.5052886E+02  0.7816164E-02  0.1300439E+00
        -11   -1    0    0    0    0  0.00000000000E+00  0.00000000000E+00  0.45593999997E+02  0.45594000000E+02  0.51100000000E-03 0.  1.
         11   -1    0    0    0    0 -0.00000000000E+00 -0.00000000000E+00 -0.45593999997E+02  0.45594000000E+02  0.51100000000E-03 0. -1.
    9900012    2    1    2    0    0  0.13079928760E+02  0.36578867663E+02 -0.12002809056E+02  0.50528861776E+02  0.30000005854E+02 0.  0.
         12    1    1    2    0    0 -0.13079928760E+02 -0.36578867663E+02  0.12002809056E+02  0.40659138224E+02  0.00000000000E+00 0. -1.
         11    1    3    3    0    0  0.40814161793E+01  0.12495296101E+02  0.84328720369E+01  0.15617416999E+02  0.51100000000E-03 0.  1.
        -11    1    3    3    0    0 -0.78071144456E+00  0.11761026220E+02 -0.12881146864E+02  0.17460102889E+02  0.51100000000E-03 0. -1.
         12    1    3    3    0    0  0.97792240254E+01  0.12322545342E+02 -0.75545342283E+01  0.17451341887E+02  0.00000000000E+00 0. -1.
</event>
<event>
 7    1  0.2942034E-011  0.5052887E+02  0.7816164E-02  0.1300439E+00
        -11   -1    0    0    0    0  0.00000000000E+00  0.00000000000E+00  0.45593999997E+02  0.45594000000E+02  0.51100000000E-03 0. -1.
         11   -1    0    0    0    0 -0.00000000000E+00 -0.00000000000E+00 -0.45593999997E+02  0.45594000000E+02  0.51100000000E-03 0.  1.
    9900012    2    1    2    0    0 -0.28817779737E+02 -0.17756020182E+02 -0.22526085049E+02  0.50528865856E+02  0.30000018256E+02 0.  0.
         12    1    1    2    0    0  0.28817779737E+02  0.17756020182E+02  0.22526085049E+02  0.40659134144E+02  0.00000000000E+00 0. -1.
         11    1    3    3    0    0 -0.21520893182E+01 -0.11609794464E+02  0.36694250374E+01  0.12364606597E+02  0.51100000000E-03 0. -1.
        -11    1    3    3    0    0 -0.15308875791E+02 -0.40217794030E+01 -0.18165514127E+02  0.24094030200E+02  0.51100000000E-03 0.  1.
         12    1    3    3    0    0 -0.11356814629E+02 -0.21244463147E+01 -0.80299959594E+01  0.14070229059E+02  0.00000000000E+00 0. -1.
</event>
<event>
 7    1  0.2942034E-011  0.5052886E+02  0.7816164E-02  0.1300439E+00
        -11   -1    0    0    0    0  0.00000000000E+00  0.00000000000E+00  0.45593999997E+02  0.45594000000E+02  0.51100000000E-03 0.  1.
         11   -1    0    0    0    0 -0.00000000000E+00 -0.00000000000E+00 -0.45593999997E+02  0.45594000000E+02  0.51100000000E-03 0. -1.
    9900012    2    1    2    0    0  0.35475444459E+02  0.34965918382E+01  0.19555878243E+02  0.50528859725E+02  0.29999999620E+02 0.  0.
         12    1    1    2    0    0 -0.35475444459E+02 -0.34965918382E+01 -0.19555878243E+02  0.40659140275E+02  0.00000000000E+00 0. -1.
         11    1    3    3    0    0  0.34041361476E+01  0.12430477811E+02  0.40641388568E+01  0.13513776172E+02  0.51100000000E-03 0. -1.
        -11    1    3    3    0    0  0.90398274664E+00 -0.22431645814E+00  0.14841381998E+01  0.17521898118E+01  0.51100000000E-03 0.  1.
         12    1    3    3    0    0  0.31167325565E+02 -0.87095695144E+01  0.14007601187E+02  0.35262893741E+02  0.00000000000E+00 0. -1.
</event>
<event>
 7    1  0.2942034E-011  0.5052887E+02  0.7816164E-02  0.1300439E+00
        -11   -1    0    0    0    0  0.00000000000E+00  0.00000000000E+00  0.45593999997E+02  0.45594000000E+02  0.51100000000E-03 0.  1.
         11   -1    0    0    0    0 -0.00000000000E+00 -0.00000000000E+00 -0.45593999997E+02  0.45594000000E+02  0.51100000000E-03 0. -1.
    9900012    2    1    2    0    0 -0.28209369850E+00 -0.17380956309E+02  0.36755788984E+02  0.50528865197E+02  0.30000016254E+02 0.  0.
         12    1    1    2    0    0  0.28209369850E+00  0.17380956309E+02 -0.36755788984E+02  0.40659134803E+02  0.00000000000E+00 0. -1.
         11    1    3    3    0    0  0.92985338840E+01  0.25307092638E+01  0.17130394076E+02  0.19654964341E+02  0.51100000000E-03 0. -1.
        -11    1    3    3    0    0 -0.32662839567E+01 -0.15151622494E+02  0.15638158355E+02  0.22017998821E+02  0.51100000000E-03 0.  1.
         12    1    3    3    0    0 -0.63143436258E+01 -0.47600430791E+01  0.39872365525E+01  0.88559020356E+01  0.00000000000E+00 0. -1.
</event>
<event>
 7    1  0.2942034E-011  0.5052884E+02  0.7816164E-02  0.1300439E+00
        -11   -1    0    0    0    0  0.00000000000E+00  0.00000000000E+00  0.45593999997E+02  0.45594000000E+02  0.51100000000E-03 0. -1.
         11   -1    0    0    0    0 -0.00000000000E+00 -0.00000000000E+00 -0.45593999997E+02  0.45594000000E+02  0.51100000000E-03 0.  1.
    9900012    2    1    2    0    0 -0.13299315633E+02  0.14903836840E+02 -0.35414273909E+02  0.50528844262E+02  0.29999952618E+02 0.  0.
         12    1    1    2    0    0  0.13299315633E+02 -0.14903836840E+02  0.35414273909E+02  0.40659155738E+02  0.00000000000E+00 0. -1.
         11    1    3    3    0    0  0.51853174949E+01 -0.38075797955E+01 -0.14354423929E+02  0.15730056198E+02  0.51100000000E-03 0. -1.
        -11    1    3    3    0    0 -0.11804724395E+02  0.93528773873E+01 -0.16735412208E+02  0.22514481018E+02  0.51100000000E-03 0.  1.
         12    1    3    3    0    0 -0.66799087332E+01  0.93585392485E+01 -0.43244377716E+01  0.12284307046E+02  0.00000000000E+00 0. -1.
</event>
<event>
 7    1  0.2942034E-011  0.5052885E+02  0.7816164E-02  0.1300439E+00
        -11   -1    0    0    0    0  0.00000000000E+00  0.00000000000E+00  0.45593999997E+02  0.45594000000E+02  0.51100000000E-03 0. -1.
         11   -1    0    0    0    0 -0.00000000000E+00 -0.00000000000E+00 -0.45593999997E+02  0.45594000000E+02  0.51100000000E-03 0.  1.
    9900012    2    1    2    0    0  0.37735969111E+02 -0.10112665459E+02 -0.11264869271E+02  0.50528847929E+02  0.29999963764E+02 0.  0.
         12    1    1    2    0    0 -0.37735969111E+02  0.10112665459E+02  0.11264869271E+02  0.40659152071E+02  0.00000000000E+00 0. -1.
         11    1    3    3    0    0  0.66769753704E+01 -0.81332049094E+01 -0.69865264446E+01  0.12631016357E+02  0.51100000000E-03 0. -1.
        -11    1    3    3    0    0  0.26635360239E+02 -0.27580916751E+01  0.53194438462E+01  0.27301025033E+02  0.51100000000E-03 0.  1.
        -12    1    3    3    0    0  0.44236335019E+01  0.77863112570E+00 -0.95977866730E+01  0.10596806538E+02  0.00000000000E+00 0.  1.
</event>
<event>
 7    1  0.2942034E-011  0.5052886E+02  0.7816164E-02  0.1300439E+00
        -11   -1    0    0    0    0  0.00000000000E+00  0.00000000000E+00  0.45593999997E+02  0.45594000000E+02  0.51100000000E-03 0.  1.
         11   -1    0    0    0    0 -0.00000000000E+00 -0.00000000000E+00 -0.45593999997E+02  0.45594000000E+02  0.51100000000E-03 0. -1.
    9900012    2    1    2    0    0 -0.31879735609E+01  0.40214027449E+02 -0.50827912725E+01  0.50528856548E+02  0.29999989964E+02 0.  0.
         12    1    1    2    0    0  0.31879735609E+01 -0.40214027449E+02  0.50827912725E+01  0.40659143452E+02  0.00000000000E+00 0. -1.
         11    1    3    3    0    0 -0.41042943610E+01  0.62983455869E+01  0.36748919605E+00  0.75265820864E+01  0.51100000000E-03 0. -1.
        -11    1    3    3    0    0 -0.41930652357E+01  0.11243174798E+02 -0.13817705280E+02  0.18300812962E+02  0.51100000000E-03 0.  1.
        -12    1    3    3    0    0  0.51093860358E+01  0.22672507064E+02  0.83674248112E+01  0.24701461500E+02  0.00000000000E+00 0.  1.
</event>
<event>
 7    1  0.2942034E-011  0.5052888E+02  0.7816164E-02  0.1300439E+00
        -11   -1    0    0    0    0  0.00000000000E+00  0.00000000000E+00  0.45593999997E+02  0.45594000000E+02  0.51100000000E-03 0.  1.
         11   -1    0    0    0    0 -0.00000000000E+00 -0.00000000000E+00 -0.45593999997E+02  0.45594000000E+02  0.51100000000E-03 0. -1.
    9900012    2    1    2    0    0 -0.12302545206E+02  0.46029958085E+01  0.38478874684E+02  0.50528880655E+02  0.30000063239E+02 0.  0.
         12    1    1    2    0    0  0.12302545206E+02 -0.46029958085E+01 -0.38478874684E+02  0.40659119345E+02  0.00000000000E+00 0. -1.
         11    1    3    3    0    0  0.27144933110E+01 -0.16514511967E+01 -0.87839956336E+00  0.32965665539E+01  0.51100000000E-03 0. -1.
        -11    1    3    3    0    0 -0.18391120338E+02  0.19191192128E+01  0.36775015608E+02  0.41162095416E+02  0.51100000000E-03 0.  1.
        -12    1    3    3    0    0  0.33740818208E+01  0.43353277924E+01  0.25822586395E+01  0.60702186849E+01  0.00000000000E+00 0.  1.
</event>
<event>
 7    1  0.2942034E-011  0.5052885E+02  0.7816164E-02  0.1300439E+00
        -11   -1    0    0    0    0  0.00000000000E+00  0.00000000000E+00  0.45593999997E+02  0.45594000000E+02  0.51100000000E-03 0.  1.
         11   -1    0    0    0    0 -0.00000000000E+00 -0.00000000000E+00 -0.45593999997E+02  0.45594000000E+02  0.51100000000E-03 0. -1.
    9900012    2    1    2    0    0 -0.21502976022E+01 -0.16474243685E+02  0.37109862572E+02  0.50528851154E+02  0.29999973569E+02 0.  0.
         12    1    1    2    0    0  0.21502976022E+01  0.16474243685E+02 -0.37109862572E+02  0.40659148846E+02  0.00000000000E+00 0. -1.
         11    1    3    3    0    0  0.18135510830E+01  0.38146584208E+00 -0.17134908655E+01  0.25239918634E+01  0.51100000000E-03 0. -1.
        -11    1    3    3    0    0 -0.82973971188E+01 -0.20779381162E+02  0.31388775594E+02  0.38547175176E+02  0.51100000000E-03 0.  1.
        -12    1    3    3    0    0  0.43335484337E+01  0.39236716355E+01  0.74345778426E+01  0.94576841155E+01  0.00000000000E+00 0.  1.
</event>
<event>
 7    1  0.2942034E-011  0.5052886E+02  0.7816164E-02  0.1300439E+00
        -11   -1    0    0    0    0  0.00000000000E+00  0.00000000000E+00  0.45593999997E+02  0.45594000000E+02  0.51100000000E-03 0. -1.
         11   -1    0    0    0    0 -0.00000000000E+00 -0.00000000000E+00 -0.45593999997E+02  0.45594000000E+02  0.51100000000E-03 0.  1.
    9900012    2    1    2    0    0 -0.39884209437E+02 -0.37985235881E+01  0.69272586563E+01  0.50528857654E+02  0.29999993325E+02 0.  0.
         12    1    1    2    0    0  0.39884209437E+02  0.37985235881E+01 -0.69272586563E+01  0.40659142346E+02  0.00000000000E+00 0. -1.
         11    1    3    3    0    0 -0.38260580516E+00 -0.89883811293E+00 -0.85262218671E+00  0.12966348791E+01  0.51100000000E-03 0. -1.
        -11    1    3    3    0    0 -0.33402837064E+01 -0.41692108670E+01 -0.81115525525E+01  0.97127287395E+01  0.51100000000E-03 0.  1.
        -12    1    3    3    0    0 -0.36161319925E+02  0.12695253918E+01  0.15891433396E+02  0.39519494035E+02  0.00000000000E+00 0.  1.
</event>
<event>
 7    1  0.2942034E-011  0.5052886E+02  0.7816164E-02  0.1300439E+00
        -11   -1    0    0    0    0  0.00000000000E+00  0.00000000000E+00  0.45593999997E+02  0.45594000000E+02  0.51100000000E-03 0. -1.
         11   -1    0    0    0    0 -0.00000000000E+00 -0.00000000000E+00 -0.45593999997E+02  0.45594000000E+02  0.51100000000E-03 0.  1.
    9900012    2    1    2    0    0  0.51164414694E+01 -0.25503165141E+02 -0.31250218664E+02  0.50528861150E+02  0.30000003950E+02 0.  0.
         12    1    1    2    0    0 -0.51164414694E+01  0.25503165141E+02  0.31250218664E+02  0.40659138850E+02  0.00000000000E+00 0. -1.
         11    1    3    3    0    0 -0.82096664541E+01 -0.29230577048E+01 -0.16678132873E+02  0.18817624878E+02  0.51100000000E-03 0. -1.
        -11    1    3    3    0    0  0.78473668961E+01 -0.19158468101E+02 -0.14455896687E+02  0.25250762691E+02  0.51100000000E-03 0.  1.
         12    1    3    3    0    0  0.54787410274E+01 -0.34216393343E+01 -0.11618910359E+00  0.64604735807E+01  0.00000000000E+00 0. -1.
</event>
<event>
 7    1  0.2942034E-011  0.5052886E+02  0.7816164E-02  0.1300439E+00
        -11   -1    0    0    0    0  0.00000000000E+00  0.00000000000E+00  0.45593999997E+02  0.45594000000E+02  0.51100000000E-03 0.  1.
         11   -1    0    0    0    0 -0.00000000000E+00 -0.00000000000E+00 -0.45593999997E+02  0.45594000000E+02  0.51100000000E-03 0. -1.
    9900012    2    1    2    0    0  0.26791383366E+02 -0.23659290900E+02  0.19381052726E+02  0.50528862364E+02  0.30000007641E+02 0.  0.
         12    1    1    2    0    0 -0.26791383366E+02  0.23659290900E+02 -0.19381052726E+02  0.40659137636E+02  0.00000000000E+00 0. -1.
         11    1    3    3    0    0  0.11451689468E+01 -0.70491458504E+01  0.96860756449E+00  0.72069459559E+01  0.51100000000E-03 0. -1.
        -11    1    3    3    0    0  0.35449737715E+01 -0.58363789453E+00  0.15448847181E+02  0.15861095540E+02  0.51100000000E-03 0.  1.
        -12    1    3    3    0    0  0.22101240648E+02 -0.16026507155E+02  0.29635979804E+01  0.27460820868E+02  0.00000000000E+00 0.  1.
</event>
<event>
 7    1  0.2942034E-011  0.5052886E+02  0.7816164E-02  0.1300439E+00
        -11   -1    0    0    0    0  0.00000000000E+00  0.00000000000E+00  0.45593999997E+02  0.45594000000E+02  0.51100000000E-03 0. -1.
         11   -1    0    0    0    0 -0.00000000000E+00 -0.00000000000E+00 -0.45593999997E+02  0.45594000000E+02  0.51100000000E-03 0.  1.
    9900012    2    1    2    0    0  0.75088218233E+01  0.39913716216E+02 -0.19179175689E+01  0.50528861357E+02  0.30000004582E+02 0.  0.
         12    1    1    2    0    0 -0.75088218233E+01 -0.39913716216E+02  0.19179175689E+01  0.40659138643E+02  0.00000000000E+00 0. -1.
         11    1    3    3    0    0 -0.14862955811E+01 -0.27857397944E+01 -0.14497472048E+01  0.34743615206E+01  0.51100000000E-03 0. -1.
        -11    1    3    3    0    0  0.12778735029E+02  0.40529686556E+02  0.82738025461E+00  0.42504542340E+02  0.51100000000E-03 0.  1.
        -12    1    3    3    0    0 -0.37836176242E+01  0.21697694550E+01 -0.12955506187E+01  0.45499574964E+01  0.00000000000E+00 0.  1.
</event>
<event>
 7    1  0.2942034E-011  0.5052886E+02  0.7816164E-02  0.1300439E+00
        -11   -1    0    0    0    0  0.00000000000E+00  0.00000000000E+00  0.45593999997E+02  0.45594000000E+02  0.51100000000E-03 0. -1.
         11   -1    0    0    0    0 -0.00000000000E+00 -0.00000000000E+00 -0.45593999997E+02  0.45594000000E+02  0.51100000000E-03 0.  1.
    9900012    2    1    2    0    0 -0.39338685602E+02 -0.18177692495E+01 -0.10115798155E+02  0.50528857826E+02  0.29999993849E+02 0.  0.
         12    1    1    2    0    0  0.39338685602E+02  0.18177692495E+01  0.10115798155E+02  0.40659142174E+02  0.00000000000E+00 0. -1.
         11    1    3    3    0    0 -0.35116829103E+00  0.86582260617E-01 -0.93826930569E+01  0.93896615976E+01  0.51100000000E-03 0. -1.
        -11    1    3    3    0    0 -0.24192719709E+02 -0.13401805194E+01  0.58656539840E+01  0.24929694496E+02  0.51100000000E-03 0.  1.
         12    1    3    3    0    0 -0.14794797603E+02 -0.56417099067E+00 -0.65987590826E+01  0.16209501733E+02  0.00000000000E+00 0. -1.
</event>
<event>
 7    1  0.2942034E-011  0.5052886E+02  0.7816164E-02  0.1300439E+00
        -11   -1    0    0    0    0  0.00000000000E+00  0.00000000000E+00  0.45593999997E+02  0.45594000000E+02  0.51100000000E-03 0.  1.
         11   -1    0    0    0    0 -0.00000000000E+00 -0.00000000000E+00 -0.45593999997E+02  0.45594000000E+02  0.51100000000E-03 0. -1.
    9900012    2    1    2    0    0 -0.29488194630E+02 -0.12573545667E+02  0.25010359755E+02  0.50528858736E+02  0.29999996615E+02 0.  0.
         12    1    1    2    0    0  0.29488194630E+02  0.12573545667E+02 -0.25010359755E+02  0.40659141264E+02  0.00000000000E+00 0. -1.
         11    1    3    3    0    0 -0.28238356703E+01  0.17596107521E+01 -0.46521759697E+01  0.57195296490E+01  0.51100000000E-03 0. -1.
        -11    1    3    3    0    0 -0.23741371800E+02 -0.56256378050E+01  0.21328443161E+02  0.32406836063E+02  0.51100000000E-03 0.  1.
         12    1    3    3    0    0 -0.29229871594E+01 -0.87075186145E+01  0.83340925641E+01  0.12402493024E+02  0.00000000000E+00 0. -1.
</event>
<event>
 7    1  0.2942034E-011  0.5052883E+02  0.7816164E-02  0.1300439E+00
        -11   -1    0    0    0    0  0.00000000000E+00  0.00000000000E+00  0.45593999997E+02  0.45594000000E+02  0.51100000000E-03 0. -1.
         11   -1    0    0    0    0 -0.00000000000E+00 -0.00000000000E+00 -0.45593999997E+02  0.45594000000E+02  0.51100000000E-03 0.  1.
    9900012    2    1    2    0    0 -0.35526527304E+02 -0.19214715519E+02 -0.46721153799E+01  0.50528830101E+02  0.29999909575E+02 0.  0.
         12    1    1    2    0    0  0.35526527304E+02  0.19214715519E+02  0.46721153799E+01  0.40659169899E+02  0.00000000000E+00 0. -1.
         11    1    3    3    0    0 -0.25480353473E+02 -0.25089028373E+01 -0.11483755357E+02  0.28060998626E+02  0.51100000000E-03 0. -1.
        -11    1    3    3    0    0 -0.29750358047E+01 -0.64154091114E+01 -0.18038841963E+01  0.72981032166E+01  0.51100000000E-03 0.  1.
         12    1    3    3    0    0 -0.70711380266E+01 -0.10290403570E+02  0.86155241738E+01  0.15169728258E+02  0.00000000000E+00 0. -1.
</event>
<event>
 7    1  0.2942034E-011  0.5052885E+02  0.7816164E-02  0.1300439E+00
        -11   -1    0    0    0    0  0.00000000000E+00  0.00000000000E+00  0.45593999997E+02  0.45594000000E+02  0.51100000000E-03 0.  1.
         11   -1    0    0    0    0 -0.00000000000E+00 -0.00000000000E+00 -0.45593999997E+02  0.45594000000E+02  0.51100000000E-03 0. -1.
    9900012    2    1    2    0    0 -0.37356928303E+02 -0.15836768110E+00  0.16049964459E+02  0.50528849349E+02  0.29999968081E+02 0.  0.
         12    1    1    2    0    0  0.37356928303E+02  0.15836768110E+00 -0.16049964459E+02  0.40659150651E+02  0.00000000000E+00 0. -1.
         11    1    3    3    0    0 -0.87518358724E+01  0.66168430440E+01  0.17966550972E+01  0.11117788126E+02  0.51100000000E-03 0.  1.
        -11    1    3    3    0    0 -0.74658539531E+01 -0.10691901997E+02  0.12125778014E+02  0.17807027721E+02  0.51100000000E-03 0. -1.
        -12    1    3    3    0    0 -0.21139238477E+02  0.39166912719E+01  0.21275313472E+01  0.21604033502E+02  0.00000000000E+00 0.  1.
</event>
<event>
 7    1  0.2942034E-011  0.5052886E+02  0.7816164E-02  0.1300439E+00
        -11   -1    0    0    0    0  0.00000000000E+00  0.00000000000E+00  0.45593999997E+02  0.45594000000E+02  0.51100000000E-03 0.  1.
         11   -1    0    0    0    0 -0.00000000000E+00 -0.00000000000E+00 -0.45593999997E+02  0.45594000000E+02  0.51100000000E-03 0. -1.
    9900012    2    1    2    0    0  0.31816100923E+02  0.16306660685E+02  0.19364762884E+02  0.50528862008E+02  0.30000006561E+02 0.  0.
         12    1    1    2    0    0 -0.31816100923E+02 -0.16306660685E+02 -0.19364762884E+02  0.40659137992E+02  0.00000000000E+00 0. -1.
         11    1    3    3    0    0  0.15999754886E+01 -0.49920555108E+01  0.53669511767E+01  0.75023133087E+01  0.51100000000E-03 0. -1.
        -11    1    3    3    0    0  0.21095031443E+02  0.15995219358E+02  0.17699378934E+02  0.31845178737E+02  0.51100000000E-03 0.  1.
         12    1    3    3    0    0  0.91210939919E+01  0.53034968371E+01 -0.37015672263E+01  0.11181369963E+02  0.00000000000E+00 0. -1.
</event>
<event>
 7    1  0.2942034E-011  0.5052886E+02  0.7816164E-02  0.1300439E+00
        -11   -1    0    0    0    0  0.00000000000E+00  0.00000000000E+00  0.45593999997E+02  0.45594000000E+02  0.51100000000E-03 0.  1.
         11   -1    0    0    0    0 -0.00000000000E+00 -0.00000000000E+00 -0.45593999997E+02  0.45594000000E+02  0.51100000000E-03 0. -1.
    9900012    2    1    2    0    0 -0.32444354256E+02  0.12380607328E+02  0.21148283662E+02  0.50528862493E+02  0.30000008035E+02 0.  0.
         12    1    1    2    0    0  0.32444354256E+02 -0.12380607328E+02 -0.21148283662E+02  0.40659137507E+02  0.00000000000E+00 0. -1.
         11    1    3    3    0    0 -0.24132325944E+02  0.97263116283E+01  0.20494501327E+02  0.33120913005E+02  0.51100000000E-03 0.  1.
        -11    1    3    3    0    0 -0.15943475945E+01  0.80502582185E+01  0.25335760689E+01  0.85888072277E+01  0.51100000000E-03 0. -1.
         12    1    3    3    0    0 -0.67176807182E+01 -0.53959625187E+01 -0.18797937341E+01  0.88191422609E+01  0.00000000000E+00 0. -1.
</event>
<event>
 7    1  0.2942034E-011  0.5052886E+02  0.7816164E-02  0.1300439E+00
        -11   -1    0    0    0    0  0.00000000000E+00  0.00000000000E+00  0.45593999997E+02  0.45594000000E+02  0.51100000000E-03 0. -1.
         11   -1    0    0    0    0 -0.00000000000E+00 -0.00000000000E+00 -0.45593999997E+02  0.45594000000E+02  0.51100000000E-03 0.  1.
    9900012    2    1    2    0    0  0.10183848442E+02  0.38266376734E+02 -0.92271095992E+01  0.50528857006E+02  0.29999991356E+02 0.  0.
         12    1    1    2    0    0 -0.10183848442E+02 -0.38266376734E+02  0.92271095992E+01  0.40659142994E+02  0.00000000000E+00 0. -1.
         11    1    3    3    0    0  0.88767895776E+01  0.10119090266E+01 -0.72864252458E+01  0.11528805064E+02  0.51100000000E-03 0. -1.
        -11    1    3    3    0    0  0.45572118699E+01  0.22337552776E+02 -0.52137038250E+01  0.23386259895E+02  0.51100000000E-03 0.  1.
         12    1    3    3    0    0 -0.32501530058E+01  0.14916914932E+02  0.32730194715E+01  0.15613792047E+02  0.00000000000E+00 0. -1.
</event>
<event>
 7    1  0.2942034E-011  0.5052886E+02  0.7816164E-02  0.1300439E+00
        -11   -1    0    0    0    0  0.00000000000E+00  0.00000000000E+00  0.45593999997E+02  0.45594000000E+02  0.51100000000E-03 0.  1.
         11   -1    0    0    0    0 -0.00000000000E+00 -0.00000000000E+00 -0.45593999997E+02  0.45594000000E+02  0.51100000000E-03 0. -1.
    9900012    2    1    2    0    0 -0.36452593545E+02  0.19979377293E+01  0.17899223094E+02  0.50528861806E+02  0.30000005944E+02 0.  0.
         12    1    1    2    0    0  0.36452593545E+02 -0.19979377293E+01 -0.17899223094E+02  0.40659138194E+02  0.00000000000E+00 0. -1.
         11    1    3    3    0    0  0.19562488637E+01 -0.30580718995E+01  0.60079745379E+01  0.70195777414E+01  0.51100000000E-03 0. -1.
        -11    1    3    3    0    0 -0.22256540614E+02 -0.20858655361E+01  0.12918870674E+02  0.25818629996E+02  0.51100000000E-03 0.  1.
         12    1    3    3    0    0 -0.16152301794E+02  0.71418751650E+01 -0.10276221172E+01  0.17690654068E+02  0.00000000000E+00 0. -1.
</event>
<event>
 7    1  0.2942034E-011  0.5052885E+02  0.7816164E-02  0.1300439E+00
        -11   -1    0    0    0    0  0.00000000000E+00  0.00000000000E+00  0.45593999997E+02  0.45594000000E+02  0.51100000000E-03 0.  1.
         11   -1    0    0    0    0 -0.00000000000E+00 -0.00000000000E+00 -0.45593999997E+02  0.45594000000E+02  0.51100000000E-03 0. -1.
    9900012    2    1    2    0    0 -0.62189064015E+01  0.20954277112E+01  0.40126061700E+02  0.50528850456E+02  0.29999971445E+02 0.  0.
         12    1    1    2    0    0  0.62189064015E+01 -0.20954277112E+01 -0.40126061700E+02  0.40659149544E+02  0.00000000000E+00 0. -1.
         11    1    3    3    0    0 -0.39726457867E+01 -0.29267841826E+01 -0.12562108311E+01  0.50917625741E+01  0.51100000000E-03 0. -1.
        -11    1    3    3    0    0 -0.41343125059E+00  0.58321789384E+01  0.42661145251E+02  0.43059941372E+02  0.51100000000E-03 0.  1.
        -12    1    3    3    0    0 -0.18328293642E+01 -0.80996704468E+00 -0.12788727202E+01  0.23771465092E+01  0.00000000000E+00 0.  1.
</event>
<event>
 7    1  0.2942034E-011  0.5052887E+02  0.7816164E-02  0.1300439E+00
        -11   -1    0    0    0    0  0.00000000000E+00  0.00000000000E+00  0.45593999997E+02  0.45594000000E+02  0.51100000000E-03 0. -1.
         11   -1    0    0    0    0 -0.00000000000E+00 -0.00000000000E+00 -0.45593999997E+02  0.45594000000E+02  0.51100000000E-03 0.  1.
    9900012    2    1    2    0    0  0.53985733877E+01  0.38301136198E+02 -0.12531681216E+02  0.50528872331E+02  0.30000037938E+02 0.  0.
         12    1    1    2    0    0 -0.53985733877E+01 -0.38301136198E+02  0.12531681216E+02  0.40659127669E+02  0.00000000000E+00 0. -1.
         11    1    3    3    0    0 -0.32083347725E+01  0.89996843002E+01 -0.16162495463E+02  0.18775355905E+02  0.51100000000E-03 0. -1.
        -11    1    3    3    0    0  0.30069757081E+01  0.61875049192E+01  0.40195974858E+01  0.79677025699E+01  0.51100000000E-03 0.  1.
         12    1    3    3    0    0  0.55999324521E+01  0.23113946978E+02 -0.38878323898E+00  0.23785813856E+02  0.00000000000E+00 0. -1.
</event>
<event>
 7    1  0.2942034E-011  0.5052886E+02  0.7816164E-02  0.1300439E+00
        -11   -1    0    0    0    0  0.00000000000E+00  0.00000000000E+00  0.45593999997E+02  0.45594000000E+02  0.51100000000E-03 0.  1.
         11   -1    0    0    0    0 -0.00000000000E+00 -0.00000000000E+00 -0.45593999997E+02  0.45594000000E+02  0.51100000000E-03 0. -1.
    9900012    2    1    2    0    0 -0.35664057391E+02 -0.19482960543E+02  0.12864729188E+01  0.50528858916E+02  0.29999997162E+02 0.  0.
         12    1    1    2    0    0  0.35664057391E+02  0.19482960543E+02 -0.12864729188E+01  0.40659141084E+02  0.00000000000E+00 0. -1.
         11    1    3    3    0    0 -0.29001930756E+02 -0.26141801594E+02 -0.10087328742E+01  0.39057948236E+02  0.51100000000E-03 0. -1.
        -11    1    3    3    0    0 -0.19467838248E+01  0.61900972150E+01  0.15806717391E+01  0.66787569352E+01  0.51100000000E-03 0.  1.
         12    1    3    3    0    0 -0.47153428099E+01  0.46874383592E+00  0.71453405381E+00  0.47921537447E+01  0.00000000000E+00 0. -1.
</event>
<event>
 7    1  0.2942034E-011  0.5052886E+02  0.7816164E-02  0.1300439E+00
        -11   -1    0    0    0    0  0.00000000000E+00  0.00000000000E+00  0.45593999997E+02  0.45594000000E+02  0.51100000000E-03 0.  1.
         11   -1    0    0    0    0 -0.00000000000E+00 -0.00000000000E+00 -0.45593999997E+02  0.45594000000E+02  0.51100000000E-03 0. -1.
    9900012    2    1    2    0    0  0.12767891022E+02  0.12664246895E+02  0.36465926958E+02  0.50528855647E+02  0.29999987226E+02 0.  0.
         12    1    1    2    0    0 -0.12767891022E+02 -0.12664246895E+02 -0.36465926958E+02  0.40659144353E+02  0.00000000000E+00 0. -1.
         11    1    3    3    0    0  0.20368433627E+01  0.72606973588E+01  0.13147414658E+00  0.75421311797E+01  0.51100000000E-03 0. -1.
        -11    1    3    3    0    0  0.16415502755E+02  0.52232906095E+01  0.28581202855E+02  0.33371194950E+02  0.51100000000E-03 0.  1.
         12    1    3    3    0    0 -0.56844550955E+01  0.18025892661E+00  0.77532499565E+01  0.96155295175E+01  0.00000000000E+00 0. -1.
</event>
<event>
 7    1  0.2942034E-011  0.5052887E+02  0.7816164E-02  0.1300439E+00
        -11   -1    0    0    0    0  0.00000000000E+00  0.00000000000E+00  0.45593999997E+02  0.45594000000E+02  0.51100000000E-03 0.  1.
         11   -1    0    0    0    0 -0.00000000000E+00 -0.00000000000E+00 -0.45593999997E+02  0.45594000000E+02  0.51100000000E-03 0. -1.
    9900012    2    1    2    0    0  0.72645542861E+01 -0.98037818746E+01  0.38785008190E+02  0.50528871279E+02  0.30000034740E+02 0.  0.
         12    1    1    2    0    0 -0.72645542861E+01  0.98037818746E+01 -0.38785008190E+02  0.40659128721E+02  0.00000000000E+00 0. -1.
         11    1    3    3    0    0 -0.77322833498E+01 -0.26950824180E+01  0.27156545498E+01  0.86270768477E+01  0.51100000000E-03 0. -1.
        -11    1    3    3    0    0  0.12152763379E+02  0.71531777860E+00  0.15482340618E+02  0.19695283916E+02  0.51100000000E-03 0.  1.
        -12    1    3    3    0    0  0.28440742572E+01 -0.78240172353E+01  0.20587013023E+02  0.22206510515E+02  0.00000000000E+00 0.  1.
</event>
<event>
 7    1  0.2942034E-011  0.5052885E+02  0.7816164E-02  0.1300439E+00
        -11   -1    0    0    0    0  0.00000000000E+00  0.00000000000E+00  0.45593999997E+02  0.45594000000E+02  0.51100000000E-03 0.  1.
         11   -1    0    0    0    0 -0.00000000000E+00 -0.00000000000E+00 -0.45593999997E+02  0.45594000000E+02  0.51100000000E-03 0. -1.
    9900012    2    1    2    0    0 -0.33697910169E+02 -0.14785137522E+02  0.17292117917E+02  0.50528846253E+02  0.29999958672E+02 0.  0.
         12    1    1    2    0    0  0.33697910169E+02  0.14785137522E+02 -0.17292117917E+02  0.40659153747E+02  0.00000000000E+00 0. -1.
         11    1    3    3    0    0  0.39117673439E+01 -0.51284350623E+00  0.27244031642E+01  0.47945078034E+01  0.51100000000E-03 0. -1.
        -11    1    3    3    0    0 -0.32586125076E+02 -0.86749483449E+01  0.17086269140E+02  0.37802789178E+02  0.51100000000E-03 0.  1.
        -12    1    3    3    0    0 -0.50235524375E+01 -0.55973456708E+01 -0.25185543877E+01  0.79315492720E+01  0.00000000000E+00 0.  1.
</event>
<event>
 7    1  0.2942034E-011  0.5052886E+02  0.7816164E-02  0.1300439E+00
        -11   -1    0    0    0    0  0.00000000000E+00  0.00000000000E+00  0.45593999997E+02  0.45594000000E+02  0.51100000000E-03 0.  1.
         11   -1    0    0    0    0 -0.00000000000E+00 -0.00000000000E+00 -0.45593999997E+02  0.45594000000E+02  0.51100000000E-03 0. -1.
    9900012    2    1    2    0    0 -0.29309147647E+02  0.73540923239E+01  0.27203982853E+02  0.50528862125E+02  0.30000006914E+02 0.  0.
         12    1    1    2    0    0  0.29309147647E+02 -0.73540923239E+01 -0.27203982853E+02  0.40659137875E+02  0.00000000000E+00 0. -1.
         11    1    3    3    0    0 -0.23403285366E+02 -0.50386637288E+00  0.13299698963E+02  0.26923031776E+02  0.51100000000E-03 0. -1.
        -11    1    3    3    0    0 -0.18424826693E+01  0.10169246567E+02  0.15531732711E+02  0.18655911647E+02  0.51100000000E-03 0.  1.
        -12    1    3    3    0    0 -0.40633796120E+01 -0.23112878702E+01 -0.16274488207E+01  0.49499187018E+01  0.00000000000E+00 0.  1.
</event>
<event>
 7    1  0.2942034E-011  0.5052883E+02  0.7816164E-02  0.1300439E+00
        -11   -1    0    0    0    0  0.00000000000E+00  0.00000000000E+00  0.45593999997E+02  0.45594000000E+02  0.51100000000E-03 0. -1.
         11   -1    0    0    0    0 -0.00000000000E+00 -0.00000000000E+00 -0.45593999997E+02  0.45594000000E+02  0.51100000000E-03 0.  1.
    9900012    2    1    2    0    0 -0.75396940824E+01 -0.37435550801E+02 -0.13960669705E+02  0.50528834376E+02  0.29999922570E+02 0.  0.
         12    1    1    2    0    0  0.75396940824E+01  0.37435550801E+02  0.13960669705E+02  0.40659165624E+02  0.00000000000E+00 0. -1.
         11    1    3    3    0    0  0.80378733714E+01 -0.11010049957E+02 -0.98323922318E+01  0.16807871539E+02  0.51100000000E-03 0. -1.
        -11    1    3    3    0    0 -0.12406942964E+02 -0.95461543452E+01  0.13017289332E+01  0.15708462528E+02  0.51100000000E-03 0.  1.
         12    1    3    3    0    0 -0.31706244894E+01 -0.16879346498E+02 -0.54300064060E+01  0.18012500310E+02  0.00000000000E+00 0. -1.
</event>
<event>
 7    1  0.2942034E-011  0.5052884E+02  0.7816164E-02  0.1300439E+00
        -11   -1    0    0    0    0  0.00000000000E+00  0.00000000000E+00  0.45593999997E+02  0.45594000000E+02  0.51100000000E-03 0.  1.
         11   -1    0    0    0    0 -0.00000000000E+00 -0.00000000000E+00 -0.45593999997E+02  0.45594000000E+02  0.51100000000E-03 0. -1.
    9900012    2    1    2    0    0 -0.36014147180E+02 -0.88661344090E+01  0.16659547841E+02  0.50528835341E+02  0.29999925503E+02 0.  0.
         12    1    1    2    0    0  0.36014147180E+02  0.88661344090E+01 -0.16659547841E+02  0.40659164659E+02  0.00000000000E+00 0. -1.
         11    1    3    3    0    0 -0.14918482918E+02 -0.17911159638E+01 -0.38511976039E+01  0.15511316908E+02  0.51100000000E-03 0. -1.
        -11    1    3    3    0    0  0.18604025567E+01 -0.39002547764E+01  0.69005966852E+01  0.81419481617E+01  0.51100000000E-03 0.  1.
        -12    1    3    3    0    0 -0.22956066819E+02 -0.31747636688E+01  0.13610148760E+02  0.26875570271E+02  0.00000000000E+00 0.  1.
</event>
<event>
 7    1  0.2942034E-011  0.5052887E+02  0.7816164E-02  0.1300439E+00
        -11   -1    0    0    0    0  0.00000000000E+00  0.00000000000E+00  0.45593999997E+02  0.45594000000E+02  0.51100000000E-03 0. -1.
         11   -1    0    0    0    0 -0.00000000000E+00 -0.00000000000E+00 -0.45593999997E+02  0.45594000000E+02  0.51100000000E-03 0.  1.
    9900012    2    1    2    0    0  0.17065587323E+01 -0.61679430181E+01 -0.40152324467E+02  0.50528867890E+02  0.30000024440E+02 0.  0.
         12    1    1    2    0    0 -0.17065587323E+01  0.61679430181E+01  0.40152324467E+02  0.40659132110E+02  0.00000000000E+00 0. -1.
         11    1    3    3    0    0 -0.22437701912E+00 -0.13199626899E+00  0.34647831910E+01  0.34745490187E+01  0.51100000000E-03 0. -1.
        -11    1    3    3    0    0 -0.31917221110E+01  0.25644629000E+01 -0.29299980185E+02  0.29584664931E+02  0.51100000000E-03 0.  1.
        -12    1    3    3    0    0  0.51226578625E+01 -0.86004096491E+01 -0.14317127474E+02  0.17469653941E+02  0.00000000000E+00 0.  1.
</event>
<event>
 7    1  0.2942034E-011  0.5052883E+02  0.7816164E-02  0.1300439E+00
        -11   -1    0    0    0    0  0.00000000000E+00  0.00000000000E+00  0.45593999997E+02  0.45594000000E+02  0.51100000000E-03 0. -1.
         11   -1    0    0    0    0 -0.00000000000E+00 -0.00000000000E+00 -0.45593999997E+02  0.45594000000E+02  0.51100000000E-03 0.  1.
    9900012    2    1    2    0    0  0.19201243696E+02 -0.35652797094E+02  0.36549062130E+01  0.50528830806E+02  0.29999911719E+02 0.  0.
         12    1    1    2    0    0 -0.19201243696E+02  0.35652797094E+02 -0.36549062130E+01  0.40659169194E+02  0.00000000000E+00 0. -1.
         11    1    3    3    0    0 -0.51139212576E+01 -0.35399078855E+01 -0.46144543331E+01  0.77444384897E+01  0.51100000000E-03 0. -1.
        -11    1    3    3    0    0  0.89210558024E+01 -0.14568866690E+02  0.92436048766E+01  0.19423731481E+02  0.51100000000E-03 0.  1.
         12    1    3    3    0    0  0.15394109151E+02 -0.17544022518E+02 -0.97424433052E+00  0.23360660836E+02  0.00000000000E+00 0. -1.
</event>
<event>
 7    1  0.2942034E-011  0.5052884E+02  0.7816164E-02  0.1300439E+00
        -11   -1    0    0    0    0  0.00000000000E+00  0.00000000000E+00  0.45593999997E+02  0.45594000000E+02  0.51100000000E-03 0.  1.
         11   -1    0    0    0    0 -0.00000000000E+00 -0.00000000000E+00 -0.45593999997E+02  0.45594000000E+02  0.51100000000E-03 0. -1.
    9900012    2    1    2    0    0 -0.64102533817E+01 -0.26604212643E+02  0.30071444211E+02  0.50528840691E+02  0.29999941763E+02 0.  0.
         12    1    1    2    0    0  0.64102533817E+01  0.26604212643E+02 -0.30071444211E+02  0.40659159309E+02  0.00000000000E+00 0. -1.
         11    1    3    3    0    0  0.33724822412E+01 -0.23816803860E+02  0.29116685112E+02  0.37767646667E+02  0.51100000000E-03 0. -1.
        -11    1    3    3    0    0 -0.61906257880E+01 -0.16524760908E+01  0.43054287050E+01  0.77195363509E+01  0.51100000000E-03 0.  1.
         12    1    3    3    0    0 -0.35921098350E+01 -0.11349326926E+01 -0.33506696059E+01  0.50416576729E+01  0.00000000000E+00 0. -1.
</event>
<event>
 7    1  0.2942034E-011  0.5052886E+02  0.7816164E-02  0.1300439E+00
        -11   -1    0    0    0    0  0.00000000000E+00  0.00000000000E+00  0.45593999997E+02  0.45594000000E+02  0.51100000000E-03 0. -1.
         11   -1    0    0    0    0 -0.00000000000E+00 -0.00000000000E+00 -0.45593999997E+02  0.45594000000E+02  0.51100000000E-03 0.  1.
    9900012    2    1    2    0    0  0.28089293130E+02  0.23330713709E+02 -0.17883930701E+02  0.50528861199E+02  0.30000004100E+02 0.  0.
         12    1    1    2    0    0 -0.28089293130E+02 -0.23330713709E+02  0.17883930701E+02  0.40659138801E+02  0.00000000000E+00 0. -1.
         11    1    3    3    0    0  0.14864048951E+02  0.10790953370E+02  0.41626570613E+01  0.18833808428E+02  0.51100000000E-03 0. -1.
        -11    1    3    3    0    0  0.14913139344E+02  0.13816272979E+02 -0.21316330878E+02  0.29456359016E+02  0.51100000000E-03 0.  1.
        -12    1    3    3    0    0 -0.16878951649E+01 -0.12765126399E+01 -0.73025688458E+00  0.22386937542E+01  0.00000000000E+00 0.  1.
</event>
<event>
 7    1  0.2942034E-011  0.5052886E+02  0.7816164E-02  0.1300439E+00
        -11   -1    0    0    0    0  0.00000000000E+00  0.00000000000E+00  0.45593999997E+02  0.45594000000E+02  0.51100000000E-03 0.  1.
         11   -1    0    0    0    0 -0.00000000000E+00 -0.00000000000E+00 -0.45593999997E+02  0.45594000000E+02  0.51100000000E-03 0. -1.
    9900012    2    1    2    0    0  0.77491551432E+01 -0.23934520013E+02  0.31941435703E+02  0.50528856275E+02  0.29999989133E+02 0.  0.
         12    1    1    2    0    0 -0.77491551432E+01  0.23934520013E+02 -0.31941435703E+02  0.40659143725E+02  0.00000000000E+00 0. -1.
         11    1    3    3    0    0  0.35218802459E+01  0.40922352621E+01  0.82385693915E+01  0.98500789736E+01  0.51100000000E-03 0. -1.
        -11    1    3    3    0    0  0.74548670809E+01 -0.28430950998E+02  0.19138219295E+02  0.35073714601E+02  0.51100000000E-03 0.  1.
        -12    1    3    3    0    0 -0.32275921835E+01  0.40419572340E+00  0.45646470167E+01  0.56050627002E+01  0.00000000000E+00 0.  1.
</event>
<event>
 7    1  0.2942034E-011  0.5052886E+02  0.7816164E-02  0.1300439E+00
        -11   -1    0    0    0    0  0.00000000000E+00  0.00000000000E+00  0.45593999997E+02  0.45594000000E+02  0.51100000000E-03 0.  1.
         11   -1    0    0    0    0 -0.00000000000E+00 -0.00000000000E+00 -0.45593999997E+02  0.45594000000E+02  0.51100000000E-03 0. -1.
    9900012    2    1    2    0    0  0.18145770660E+02 -0.68388299320E+00  0.36378959190E+02  0.50528863751E+02  0.30000011857E+02 0.  0.
         12    1    1    2    0    0 -0.18145770660E+02  0.68388299320E+00 -0.36378959190E+02  0.40659136249E+02  0.00000000000E+00 0. -1.
         11    1    3    3    0    0 -0.28473508212E+01  0.14770841392E+01  0.17399431748E+02  0.17692637159E+02  0.51100000000E-03 0. -1.
        -11    1    3    3    0    0  0.22282640114E+02  0.17646129672E+00  0.11882075898E+02  0.25253334769E+02  0.51100000000E-03 0.  1.
        -12    1    3    3    0    0 -0.12895186329E+01 -0.23374284291E+01  0.70974515445E+01  0.75828918226E+01  0.00000000000E+00 0.  1.
</event>
<event>
 7    1  0.2942034E-011  0.5052885E+02  0.7816164E-02  0.1300439E+00
        -11   -1    0    0    0    0  0.00000000000E+00  0.00000000000E+00  0.45593999997E+02  0.45594000000E+02  0.51100000000E-03 0.  1.
         11   -1    0    0    0    0 -0.00000000000E+00 -0.00000000000E+00 -0.45593999997E+02  0.45594000000E+02  0.51100000000E-03 0. -1.
    9900012    2    1    2    0    0 -0.18263726062E+02 -0.19187974442E+02  0.30845174565E+02  0.50528845473E+02  0.29999956301E+02 0.  0.
         12    1    1    2    0    0  0.18263726062E+02  0.19187974442E+02 -0.30845174565E+02  0.40659154527E+02  0.00000000000E+00 0. -1.
         11    1    3    3    0    0 -0.31625910626E+01 -0.18929735907E+02  0.20571890987E+02  0.28134313263E+02  0.51100000000E-03 0. -1.
        -11    1    3    3    0    0 -0.11855120720E+02  0.45578221119E+01  0.29345625949E+01  0.13035692831E+02  0.51100000000E-03 0.  1.
        -12    1    3    3    0    0 -0.32460142789E+01 -0.48160606469E+01  0.73387209831E+01  0.93588393790E+01  0.00000000000E+00 0.  1.
</event>
<event>
 7    1  0.2942034E-011  0.5052885E+02  0.7816164E-02  0.1300439E+00
        -11   -1    0    0    0    0  0.00000000000E+00  0.00000000000E+00  0.45593999997E+02  0.45594000000E+02  0.51100000000E-03 0. -1.
         11   -1    0    0    0    0 -0.00000000000E+00 -0.00000000000E+00 -0.45593999997E+02  0.45594000000E+02  0.51100000000E-03 0.  1.
    9900012    2    1    2    0    0  0.12486058354E+02  0.37089534672E+02 -0.11028639666E+02  0.50528854309E+02  0.29999983159E+02 0.  0.
         12    1    1    2    0    0 -0.12486058354E+02 -0.37089534672E+02  0.11028639666E+02  0.40659145691E+02  0.00000000000E+00 0. -1.
         11    1    3    3    0    0  0.13997988508E+01 -0.35080377463E+01 -0.73626238357E+01  0.82749015498E+01  0.51100000000E-03 0. -1.
        -11    1    3    3    0    0  0.91212514040E+01  0.31946126999E+02 -0.28655950731E+01  0.33346122605E+02  0.51100000000E-03 0.  1.
         12    1    3    3    0    0  0.19650080997E+01  0.86514454196E+01 -0.80042075690E+00  0.89078301549E+01  0.00000000000E+00 0. -1.
</event>
<event>
 7    1  0.2942034E-011  0.5052886E+02  0.7816164E-02  0.1300439E+00
        -11   -1    0    0    0    0  0.00000000000E+00  0.00000000000E+00  0.45593999997E+02  0.45594000000E+02  0.51100000000E-03 0. -1.
         11   -1    0    0    0    0 -0.00000000000E+00 -0.00000000000E+00 -0.45593999997E+02  0.45594000000E+02  0.51100000000E-03 0.  1.
    9900012    2    1    2    0    0  0.22709430406E+02 -0.27774299404E+02 -0.19132058905E+02  0.50528860625E+02  0.30000002356E+02 0.  0.
         12    1    1    2    0    0 -0.22709430406E+02  0.27774299404E+02  0.19132058905E+02  0.40659139375E+02  0.00000000000E+00 0. -1.
         11    1    3    3    0    0  0.14385218037E+02 -0.24238872402E+01 -0.12936772409E+02  0.19497943686E+02  0.51100000000E-03 0. -1.
        -11    1    3    3    0    0  0.11179559722E+02 -0.11385058735E+02 -0.15153362101E+01  0.16028049228E+02  0.51100000000E-03 0.  1.
         12    1    3    3    0    0 -0.28553473525E+01 -0.13965353429E+02 -0.46799502852E+01  0.15002867712E+02  0.00000000000E+00 0. -1.
</event>
<event>
 7    1  0.2942034E-011  0.5052886E+02  0.7816164E-02  0.1300439E+00
        -11   -1    0    0    0    0  0.00000000000E+00  0.00000000000E+00  0.45593999997E+02  0.45594000000E+02  0.51100000000E-03 0.  1.
         11   -1    0    0    0    0 -0.00000000000E+00 -0.00000000000E+00 -0.45593999997E+02  0.45594000000E+02  0.51100000000E-03 0. -1.
    9900012    2    1    2    0    0  0.25590545985E+02 -0.11955179447E+02  0.29246595208E+02  0.50528859691E+02  0.29999999516E+02 0.  0.
         12    1    1    2    0    0 -0.25590545985E+02  0.11955179447E+02 -0.29246595208E+02  0.40659140309E+02  0.00000000000E+00 0. -1.
         11    1    3    3    0    0  0.14870247168E+02 -0.29699202715E+01  0.23674378572E+01  0.15347619996E+02  0.51100000000E-03 0.  1.
        -11    1    3    3    0    0 -0.43891679439E+01 -0.42108986712E+01  0.11957142361E+02  0.13415279220E+02  0.51100000000E-03 0. -1.
        -12    1    3    3    0    0  0.15109466761E+02 -0.47743605045E+01  0.14922014990E+02  0.21765960475E+02  0.00000000000E+00 0.  1.
</event>
<event>
 7    1  0.2942034E-011  0.5052886E+02  0.7816164E-02  0.1300439E+00
        -11   -1    0    0    0    0  0.00000000000E+00  0.00000000000E+00  0.45593999997E+02  0.45594000000E+02  0.51100000000E-03 0.  1.
         11   -1    0    0    0    0 -0.00000000000E+00 -0.00000000000E+00 -0.45593999997E+02  0.45594000000E+02  0.51100000000E-03 0. -1.
    9900012    2    1    2    0    0  0.11800217114E+02 -0.36687190337E+02  0.12960346788E+02  0.50528860220E+02  0.30000001124E+02 0.  0.
         12    1    1    2    0    0 -0.11800217114E+02  0.36687190337E+02 -0.12960346788E+02  0.40659139780E+02  0.00000000000E+00 0. -1.
         11    1    3    3    0    0  0.13287149900E+02 -0.15577510469E+02  0.17663444830E+02  0.27040792673E+02  0.51100000000E-03 0. -1.
        -11    1    3    3    0    0  0.19605754707E+01 -0.11255029133E+02  0.12119168976E+01  0.11488615225E+02  0.51100000000E-03 0.  1.
         12    1    3    3    0    0 -0.34475082562E+01 -0.98546507353E+01 -0.59150149393E+01  0.11999452322E+02  0.00000000000E+00 0. -1.
</event>
<event>
 7    1  0.2942034E-011  0.5052887E+02  0.7816164E-02  0.1300439E+00
        -11   -1    0    0    0    0  0.00000000000E+00  0.00000000000E+00  0.45593999997E+02  0.45594000000E+02  0.51100000000E-03 0.  1.
         11   -1    0    0    0    0 -0.00000000000E+00 -0.00000000000E+00 -0.45593999997E+02  0.45594000000E+02  0.51100000000E-03 0. -1.
    9900012    2    1    2    0    0 -0.13468209210E+02  0.31637908593E+02  0.21698277820E+02  0.50528865973E+02  0.30000018611E+02 0.  0.
         12    1    1    2    0    0  0.13468209210E+02 -0.31637908593E+02 -0.21698277820E+02  0.40659134027E+02  0.00000000000E+00 0. -1.
         11    1    3    3    0    0 -0.12440299635E+02  0.18608247049E+02 -0.22159084416E+01  0.22493069237E+02  0.51100000000E-03 0. -1.
        -11    1    3    3    0    0 -0.14691519573E+01  0.93729627911E+01  0.10619103626E+02  0.14239950879E+02  0.51100000000E-03 0.  1.
         12    1    3    3    0    0  0.44124238218E+00  0.36566987536E+01  0.13295082635E+02  0.13795845856E+02  0.00000000000E+00 0. -1.
</event>
<event>
 7    1  0.2942034E-011  0.5052886E+02  0.7816164E-02  0.1300439E+00
        -11   -1    0    0    0    0  0.00000000000E+00  0.00000000000E+00  0.45593999997E+02  0.45594000000E+02  0.51100000000E-03 0.  1.
         11   -1    0    0    0    0 -0.00000000000E+00 -0.00000000000E+00 -0.45593999997E+02  0.45594000000E+02  0.51100000000E-03 0. -1.
    9900012    2    1    2    0    0 -0.34197044962E+02 -0.18761235069E+02  0.11477961809E+02  0.50528862863E+02  0.30000009158E+02 0.  0.
         12    1    1    2    0    0  0.34197044962E+02  0.18761235069E+02 -0.11477961809E+02  0.40659137137E+02  0.00000000000E+00 0. -1.
         11    1    3    3    0    0  0.23264304412E+01 -0.58160113045E+01  0.27235131137E+01  0.68305043762E+01  0.51100000000E-03 0. -1.
        -11    1    3    3    0    0 -0.23866297452E+02  0.55787412559E+00  0.79913749486E+01  0.25174857525E+02  0.51100000000E-03 0.  1.
         12    1    3    3    0    0 -0.12657177951E+02 -0.13503097890E+02  0.76307374666E+00  0.18523500961E+02  0.00000000000E+00 0. -1.
</event>
<event>
 7    1  0.2942034E-011  0.5052886E+02  0.7816164E-02  0.1300439E+00
        -11   -1    0    0    0    0  0.00000000000E+00  0.00000000000E+00  0.45593999997E+02  0.45594000000E+02  0.51100000000E-03 0.  1.
         11   -1    0    0    0    0 -0.00000000000E+00 -0.00000000000E+00 -0.45593999997E+02  0.45594000000E+02  0.51100000000E-03 0. -1.
    9900012    2    1    2    0    0  0.36827093527E+01  0.22413004305E+02  0.33723297736E+02  0.50528856867E+02  0.29999990932E+02 0.  0.
         12    1    1    2    0    0 -0.36827093527E+01 -0.22413004305E+02 -0.33723297736E+02  0.40659143133E+02  0.00000000000E+00 0. -1.
         11    1    3    3    0    0  0.89830583287E+01  0.26512630775E+01  0.11037454063E+02  0.14475839365E+02  0.51100000000E-03 0. -1.
        -11    1    3    3    0    0 -0.10008310865E+02  0.14182949837E+02  0.22917481903E+02  0.28749492682E+02  0.51100000000E-03 0.  1.
         12    1    3    3    0    0  0.47079618892E+01  0.55787913906E+01 -0.23163823055E+00  0.73035248202E+01  0.00000000000E+00 0. -1.
</event>
<event>
 7    1  0.2942034E-011  0.5052886E+02  0.7816164E-02  0.1300439E+00
        -11   -1    0    0    0    0  0.00000000000E+00  0.00000000000E+00  0.45593999997E+02  0.45594000000E+02  0.51100000000E-03 0.  1.
         11   -1    0    0    0    0 -0.00000000000E+00 -0.00000000000E+00 -0.45593999997E+02  0.45594000000E+02  0.51100000000E-03 0. -1.
    9900012    2    1    2    0    0  0.16003679682E+02 -0.29254703455E+02  0.23263923373E+02  0.50528861196E+02  0.30000004092E+02 0.  0.
         12    1    1    2    0    0 -0.16003679682E+02  0.29254703455E+02 -0.23263923373E+02  0.40659138804E+02  0.00000000000E+00 0. -1.
         11    1    3    3    0    0  0.68612440088E+01 -0.70977689055E+01 -0.17966877745E+00  0.98735643977E+01  0.51100000000E-03 0. -1.
        -11    1    3    3    0    0  0.15031773918E+02 -0.22198778661E+02  0.21763098698E+02  0.34530746681E+02  0.51100000000E-03 0.  1.
        -12    1    3    3    0    0 -0.58893382452E+01  0.41844111388E-01  0.16804934517E+01  0.61245501172E+01  0.00000000000E+00 0.  1.
</event>
<event>
 7    1  0.2942034E-011  0.5052886E+02  0.7816164E-02  0.1300439E+00
        -11   -1    0    0    0    0  0.00000000000E+00  0.00000000000E+00  0.45593999997E+02  0.45594000000E+02  0.51100000000E-03 0.  1.
         11   -1    0    0    0    0 -0.00000000000E+00 -0.00000000000E+00 -0.45593999997E+02  0.45594000000E+02  0.51100000000E-03 0. -1.
    9900012    2    1    2    0    0  0.14078179102E+02  0.81801793144E+01  0.37256617806E+02  0.50528855508E+02  0.29999986803E+02 0.  0.
         12    1    1    2    0    0 -0.14078179102E+02 -0.81801793144E+01 -0.37256617806E+02  0.40659144492E+02  0.00000000000E+00 0. -1.
         11    1    3    3    0    0  0.16706493770E+02  0.77951645899E+01  0.15742129739E+02  0.24242239460E+02  0.51100000000E-03 0. -1.
        -11    1    3    3    0    0 -0.75060444412E+01  0.25375576401E+01  0.61702644919E+01  0.10042512937E+02  0.51100000000E-03 0.  1.
         12    1    3    3    0    0  0.48777297726E+01 -0.21525429156E+01  0.15344223576E+02  0.16244103111E+02  0.00000000000E+00 0. -1.
</event>
<event>
 7    1  0.2942034E-011  0.5052886E+02  0.7816164E-02  0.1300439E+00
        -11   -1    0    0    0    0  0.00000000000E+00  0.00000000000E+00  0.45593999997E+02  0.45594000000E+02  0.51100000000E-03 0.  1.
         11   -1    0    0    0    0 -0.00000000000E+00 -0.00000000000E+00 -0.45593999997E+02  0.45594000000E+02  0.51100000000E-03 0. -1.
    9900012    2    1    2    0    0  0.23773950183E+02 -0.22860667141E+02  0.23777186071E+02  0.50528863427E+02  0.30000010872E+02 0.  0.
         12    1    1    2    0    0 -0.23773950183E+02  0.22860667141E+02 -0.23777186071E+02  0.40659136573E+02  0.00000000000E+00 0. -1.
         11    1    3    3    0    0 -0.64355543616E+01 -0.41103038710E+01  0.17963043149E+01  0.78445947828E+01  0.51100000000E-03 0. -1.
        -11    1    3    3    0    0  0.27299510868E+02 -0.14115500029E+02  0.20729048419E+02  0.37070258744E+02  0.51100000000E-03 0.  1.
         12    1    3    3    0    0  0.29099936770E+01 -0.46348632402E+01  0.12518333371E+01  0.56140099002E+01  0.00000000000E+00 0. -1.
</event>
<event>
 7    1  0.2942034E-011  0.5052887E+02  0.7816164E-02  0.1300439E+00
        -11   -1    0    0    0    0  0.00000000000E+00  0.00000000000E+00  0.45593999997E+02  0.45594000000E+02  0.51100000000E-03 0.  1.
         11   -1    0    0    0    0 -0.00000000000E+00 -0.00000000000E+00 -0.45593999997E+02  0.45594000000E+02  0.51100000000E-03 0. -1.
    9900012    2    1    2    0    0 -0.27631558660E+01  0.63978540566E+00  0.40560089683E+02  0.50528865347E+02  0.30000016707E+02 0.  0.
         12    1    1    2    0    0  0.27631558660E+01 -0.63978540566E+00 -0.40560089683E+02  0.40659134653E+02  0.00000000000E+00 0. -1.
         11    1    3    3    0    0 -0.57319043365E+01 -0.10430690804E+02  0.26695914872E+02  0.29228854050E+02  0.51100000000E-03 0. -1.
        -11    1    3    3    0    0 -0.15582964729E+01  0.10768679881E+02  0.65719398579E+01  0.12711536021E+02  0.51100000000E-03 0.  1.
        -12    1    3    3    0    0  0.45270449434E+01  0.30179632872E+00  0.72922349525E+01  0.85884752748E+01  0.00000000000E+00 0.  1.
</event>
<event>
 7    1  0.2942034E-011  0.5052886E+02  0.7816164E-02  0.1300439E+00
        -11   -1    0    0    0    0  0.00000000000E+00  0.00000000000E+00  0.45593999997E+02  0.45594000000E+02  0.51100000000E-03 0.  1.
         11   -1    0    0    0    0 -0.00000000000E+00 -0.00000000000E+00 -0.45593999997E+02  0.45594000000E+02  0.51100000000E-03 0. -1.
    9900012    2    1    2    0    0 -0.37498691695E+02  0.32606383932E+01  0.15374712559E+02  0.50528862923E+02  0.30000009340E+02 0.  0.
         12    1    1    2    0    0  0.37498691695E+02 -0.32606383932E+01 -0.15374712559E+02  0.40659137077E+02  0.00000000000E+00 0. -1.
         11    1    3    3    0    0 -0.34408299630E+01  0.95456336405E+00 -0.16373148256E+01  0.39282696126E+01  0.51100000000E-03 0. -1.
        -11    1    3    3    0    0 -0.19564665631E+02 -0.71204220600E+01 -0.19844444989E+01  0.20914458439E+02  0.51100000000E-03 0.  1.
        -12    1    3    3    0    0 -0.14493196101E+02  0.94264970892E+01  0.18996471883E+02  0.25686134871E+02  0.00000000000E+00 0.  1.
</event>
<event>
 7    1  0.2942034E-011  0.5052886E+02  0.7816164E-02  0.1300439E+00
        -11   -1    0    0    0    0  0.00000000000E+00  0.00000000000E+00  0.45593999997E+02  0.45594000000E+02  0.51100000000E-03 0. -1.
         11   -1    0    0    0    0 -0.00000000000E+00 -0.00000000000E+00 -0.45593999997E+02  0.45594000000E+02  0.51100000000E-03 0.  1.
    9900012    2    1    2    0    0  0.30889574651E+02 -0.25594855088E+02 -0.66259229322E+01  0.50528864694E+02  0.30000014725E+02 0.  0.
         12    1    1    2    0    0 -0.30889574651E+02  0.25594855088E+02  0.66259229322E+01  0.40659135306E+02  0.00000000000E+00 0. -1.
         11    1    3    3    0    0  0.77983730055E+00 -0.30750476274E+01 -0.36451576994E+01  0.48323119768E+01  0.51100000000E-03 0. -1.
        -11    1    3    3    0    0  0.20956903559E+02 -0.57900456098E+01  0.86051896135E+01  0.23383022120E+02  0.51100000000E-03 0.  1.
        -12    1    3    3    0    0  0.91528337915E+01 -0.16729761851E+02 -0.11585954846E+02  0.22313530597E+02  0.00000000000E+00 0.  1.
</event>
<event>
 7    1  0.2942034E-011  0.5052886E+02  0.7816164E-02  0.1300439E+00
        -11   -1    0    0    0    0  0.00000000000E+00  0.00000000000E+00  0.45593999997E+02  0.45594000000E+02  0.51100000000E-03 0.  1.
         11   -1    0    0    0    0 -0.00000000000E+00 -0.00000000000E+00 -0.45593999997E+02  0.45594000000E+02  0.51100000000E-03 0. -1.
    9900012    2    1    2    0    0  0.15564127201E+02  0.29247044311E+02  0.23569771907E+02  0.50528858295E+02  0.29999995273E+02 0.  0.
         12    1    1    2    0    0 -0.15564127201E+02 -0.29247044311E+02 -0.23569771907E+02  0.40659141705E+02  0.00000000000E+00 0. -1.
         11    1    3    3    0    0 -0.60294566671E+00  0.25019814317E+02  0.20763343019E+02  0.32518780197E+02  0.51100000000E-03 0. -1.
        -11    1    3    3    0    0  0.13247443856E+02  0.45974521025E+01  0.43566799224E+01  0.14683732317E+02  0.51100000000E-03 0.  1.
         12    1    3    3    0    0  0.29196290125E+01 -0.37022210832E+00 -0.15502510352E+01  0.33263457806E+01  0.00000000000E+00 0. -1.
</event>
<event>
 7    1  0.2942034E-011  0.5052884E+02  0.7816164E-02  0.1300439E+00
        -11   -1    0    0    0    0  0.00000000000E+00  0.00000000000E+00  0.45593999997E+02  0.45594000000E+02  0.51100000000E-03 0.  1.
         11   -1    0    0    0    0 -0.00000000000E+00 -0.00000000000E+00 -0.45593999997E+02  0.45594000000E+02  0.51100000000E-03 0. -1.
    9900012    2    1    2    0    0  0.22694818294E+01 -0.40584409323E+02  0.96024099049E+00  0.50528844935E+02  0.29999954664E+02 0.  0.
         12    1    1    2    0    0 -0.22694818294E+01  0.40584409323E+02 -0.96024099049E+00  0.40659155065E+02  0.00000000000E+00 0. -1.
         11    1    3    3    0    0  0.19000042966E+01 -0.15659209739E+02 -0.88759486702E+01  0.18099815773E+02  0.51100000000E-03 0. -1.
        -11    1    3    3    0    0  0.11382944198E+01 -0.27585769674E+02  0.10571016006E+02  0.29563774833E+02  0.51100000000E-03 0.  1.
         12    1    3    3    0    0 -0.76881688708E+00  0.26605700904E+01 -0.73482634490E+00  0.28652543288E+01  0.00000000000E+00 0. -1.
</event>
<event>
 7    1  0.2942034E-011  0.5052889E+02  0.7816164E-02  0.1300439E+00
        -11   -1    0    0    0    0  0.00000000000E+00  0.00000000000E+00  0.45593999997E+02  0.45594000000E+02  0.51100000000E-03 0. -1.
         11   -1    0    0    0    0 -0.00000000000E+00 -0.00000000000E+00 -0.45593999997E+02  0.45594000000E+02  0.51100000000E-03 0.  1.
    9900012    2    1    2    0    0  0.46707651946E+01 -0.17543250900E+02 -0.36381065267E+02  0.50528885283E+02  0.30000077305E+02 0.  0.
         12    1    1    2    0    0 -0.46707651946E+01  0.17543250900E+02  0.36381065267E+02  0.40659114717E+02  0.00000000000E+00 0. -1.
         11    1    3    3    0    0  0.64410983123E+01 -0.39292569089E+01 -0.29847886227E+02  0.30786736102E+02  0.51100000000E-03 0.  1.
        -11    1    3    3    0    0  0.39288375619E+01 -0.35080438609E+01  0.16784102684E+01  0.55280374101E+01  0.51100000000E-03 0. -1.
        -12    1    3    3    0    0 -0.56991706796E+01 -0.10105950130E+02 -0.82115893083E+01  0.14214111771E+02  0.00000000000E+00 0.  1.
</event>
<event>
 7    1  0.2942034E-011  0.5052886E+02  0.7816164E-02  0.1300439E+00
        -11   -1    0    0    0    0  0.00000000000E+00  0.00000000000E+00  0.45593999997E+02  0.45594000000E+02  0.51100000000E-03 0.  1.
         11   -1    0    0    0    0 -0.00000000000E+00 -0.00000000000E+00 -0.45593999997E+02  0.45594000000E+02  0.51100000000E-03 0. -1.
    9900012    2    1    2    0    0  0.28395127955E+02  0.21396211382E+02  0.19725218296E+02  0.50528863390E+02  0.30000010759E+02 0.  0.
         12    1    1    2    0    0 -0.28395127955E+02 -0.21396211382E+02 -0.19725218296E+02  0.40659136610E+02  0.00000000000E+00 0. -1.
         11    1    3    3    0    0 -0.60689001808E+01  0.32126956210E+01  0.57931023820E+00  0.68911946113E+01  0.51100000000E-03 0. -1.
        -11    1    3    3    0    0  0.10530352678E+02  0.48568533614E+01  0.78651692468E+01  0.14012074780E+02  0.51100000000E-03 0.  1.
         12    1    3    3    0    0  0.23933675458E+02  0.13326662400E+02  0.11280738811E+02  0.29625593999E+02  0.00000000000E+00 0. -1.
</event>
<event>
 7    1  0.2942034E-011  0.5052886E+02  0.7816164E-02  0.1300439E+00
        -11   -1    0    0    0    0  0.00000000000E+00  0.00000000000E+00  0.45593999997E+02  0.45594000000E+02  0.51100000000E-03 0.  1.
         11   -1    0    0    0    0 -0.00000000000E+00 -0.00000000000E+00 -0.45593999997E+02  0.45594000000E+02  0.51100000000E-03 0. -1.
    9900012    2    1    2    0    0 -0.35319859946E+02 -0.67065662713E+01  0.18991972690E+02  0.50528861244E+02  0.30000004237E+02 0.  0.
         12    1    1    2    0    0  0.35319859946E+02  0.67065662713E+01 -0.18991972690E+02  0.40659138756E+02  0.00000000000E+00 0. -1.
         11    1    3    3    0    0 -0.30062243259E+02  0.25678924756E+01  0.87726941719E+01  0.31421214248E+02  0.51100000000E-03 0.  1.
        -11    1    3    3    0    0 -0.63386700832E+01 -0.10036814711E+02  0.36686506228E+01  0.12424789158E+02  0.51100000000E-03 0. -1.
         12    1    3    3    0    0  0.10810533964E+01  0.76235596370E+00  0.65506278956E+01  0.66828578383E+01  0.00000000000E+00 0. -1.
</event>
<event>
 7    1  0.2942034E-011  0.5052887E+02  0.7816164E-02  0.1300439E+00
        -11   -1    0    0    0    0  0.00000000000E+00  0.00000000000E+00  0.45593999997E+02  0.45594000000E+02  0.51100000000E-03 0. -1.
         11   -1    0    0    0    0 -0.00000000000E+00 -0.00000000000E+00 -0.45593999997E+02  0.45594000000E+02  0.51100000000E-03 0.  1.
    9900012    2    1    2    0    0 -0.36865320327E+02 -0.59086298530E+01 -0.16099735391E+02  0.50528865366E+02  0.30000016766E+02 0.  0.
         12    1    1    2    0    0  0.36865320327E+02  0.59086298530E+01  0.16099735391E+02  0.40659134634E+02  0.00000000000E+00 0. -1.
         11    1    3    3    0    0  0.31601660135E+01 -0.46453226906E+01 -0.62946097706E+01  0.84372853785E+01  0.51100000000E-03 0. -1.
        -11    1    3    3    0    0 -0.19973960605E+02  0.59472364007E+00 -0.90590017743E+01  0.21940335273E+02  0.51100000000E-03 0.  1.
         12    1    3    3    0    0 -0.20051525735E+02 -0.18580308025E+01 -0.74612384613E+00  0.20151244715E+02  0.00000000000E+00 0. -1.
</event>
<event>
 7    1  0.2942034E-011  0.5052885E+02  0.7816164E-02  0.1300439E+00
        -11   -1    0    0    0    0  0.00000000000E+00  0.00000000000E+00  0.45593999997E+02  0.45594000000E+02  0.51100000000E-03 0. -1.
         11   -1    0    0    0    0 -0.00000000000E+00 -0.00000000000E+00 -0.45593999997E+02  0.45594000000E+02  0.51100000000E-03 0.  1.
    9900012    2    1    2    0    0 -0.14487750613E+02  0.25281217377E+02 -0.28357208605E+02  0.50528854045E+02  0.29999982356E+02 0.  0.
         12    1    1    2    0    0  0.14487750613E+02 -0.25281217377E+02  0.28357208605E+02  0.40659145955E+02  0.00000000000E+00 0. -1.
         11    1    3    3    0    0 -0.18462459898E+02  0.12115193253E+02 -0.62698369816E+01  0.22955417423E+02  0.51100000000E-03 0. -1.
        -11    1    3    3    0    0  0.23544352723E+01  0.13748718043E+02 -0.15902022090E+02  0.21152893894E+02  0.51100000000E-03 0.  1.
        -12    1    3    3    0    0  0.16202740123E+01 -0.58269391825E+00 -0.61853495335E+01  0.64205427286E+01  0.00000000000E+00 0.  1.
</event>
<event>
 7    1  0.2942034E-011  0.5052886E+02  0.7816164E-02  0.1300439E+00
        -11   -1    0    0    0    0  0.00000000000E+00  0.00000000000E+00  0.45593999997E+02  0.45594000000E+02  0.51100000000E-03 0.  1.
         11   -1    0    0    0    0 -0.00000000000E+00 -0.00000000000E+00 -0.45593999997E+02  0.45594000000E+02  0.51100000000E-03 0. -1.
    9900012    2    1    2    0    0  0.15293194231E+02  0.80998100529E+01  0.36792347189E+02  0.50528861736E+02  0.30000005733E+02 0.  0.
         12    1    1    2    0    0 -0.15293194231E+02 -0.80998100529E+01 -0.36792347189E+02  0.40659138264E+02  0.00000000000E+00 0. -1.
         11    1    3    3    0    0 -0.34367607128E+01 -0.69929399927E+01  0.28901635520E+01  0.83105703509E+01  0.51100000000E-03 0. -1.
        -11    1    3    3    0    0  0.60948652110E+01  0.60267371153E+01  0.66787986173E+01  0.10866245599E+02  0.51100000000E-03 0.  1.
         12    1    3    3    0    0  0.12635089733E+02  0.90660129304E+01  0.27223385020E+02  0.31352045786E+02  0.00000000000E+00 0. -1.
</event>
<event>
 7    1  0.2942034E-011  0.5052887E+02  0.7816164E-02  0.1300439E+00
        -11   -1    0    0    0    0  0.00000000000E+00  0.00000000000E+00  0.45593999997E+02  0.45594000000E+02  0.51100000000E-03 0.  1.
         11   -1    0    0    0    0 -0.00000000000E+00 -0.00000000000E+00 -0.45593999997E+02  0.45594000000E+02  0.51100000000E-03 0. -1.
    9900012    2    1    2    0    0  0.77652734071E+01  0.12204069468E+02  0.37999032139E+02  0.50528865403E+02  0.30000016880E+02 0.  0.
         12    1    1    2    0    0 -0.77652734071E+01 -0.12204069468E+02 -0.37999032139E+02  0.40659134597E+02  0.00000000000E+00 0. -1.
         11    1    3    3    0    0  0.10160248807E+02  0.67350903599E+01  0.11204234995E+01  0.12241219182E+02  0.51100000000E-03 0. -1.
        -11    1    3    3    0    0  0.17113103765E+01  0.23198263188E+01  0.36138252288E+01  0.46227600413E+01  0.51100000000E-03 0.  1.
         12    1    3    3    0    0 -0.41062857765E+01  0.31491527899E+01  0.33264783410E+02  0.33664886180E+02  0.00000000000E+00 0. -1.
</event>
<event>
 7    1  0.2942034E-011  0.5052886E+02  0.7816164E-02  0.1300439E+00
        -11   -1    0    0    0    0  0.00000000000E+00  0.00000000000E+00  0.45593999997E+02  0.45594000000E+02  0.51100000000E-03 0. -1.
         11   -1    0    0    0    0 -0.00000000000E+00 -0.00000000000E+00 -0.45593999997E+02  0.45594000000E+02  0.51100000000E-03 0.  1.
    9900012    2    1    2    0    0 -0.30261729086E+02  0.34292206187E+01 -0.26937597018E+02  0.50528856693E+02  0.29999990405E+02 0.  0.
         12    1    1    2    0    0  0.30261729086E+02 -0.34292206187E+01  0.26937597018E+02  0.40659143307E+02  0.00000000000E+00 0. -1.
         11    1    3    3    0    0 -0.10511978746E+02  0.87042474062E+01 -0.26328518432E+02  0.29655631896E+02  0.51100000000E-03 0. -1.
        -11    1    3    3    0    0 -0.95196742965E+01 -0.18370792294E+01 -0.22603716351E+01  0.99553171218E+01  0.51100000000E-03 0.  1.
         12    1    3    3    0    0 -0.10230076043E+02 -0.34379475582E+01  0.16512930493E+01  0.10917907675E+02  0.00000000000E+00 0. -1.
</event>
<event>
 7    1  0.2942034E-011  0.5052887E+02  0.7816164E-02  0.1300439E+00
        -11   -1    0    0    0    0  0.00000000000E+00  0.00000000000E+00  0.45593999997E+02  0.45594000000E+02  0.51100000000E-03 0.  1.
         11   -1    0    0    0    0 -0.00000000000E+00 -0.00000000000E+00 -0.45593999997E+02  0.45594000000E+02  0.51100000000E-03 0. -1.
    9900012    2    1    2    0    0 -0.31043736279E+02 -0.14509514320E+02  0.21884370238E+02  0.50528865372E+02  0.30000016785E+02 0.  0.
         12    1    1    2    0    0  0.31043736279E+02  0.14509514320E+02 -0.21884370238E+02  0.40659134628E+02  0.00000000000E+00 0. -1.
         11    1    3    3    0    0  0.13465434474E+01 -0.11133465320E+02  0.78260128267E+01  0.13675295475E+02  0.51100000000E-03 0. -1.
        -11    1    3    3    0    0 -0.16560085229E+02 -0.56689719889E+01  0.39879147916E+01  0.17952078733E+02  0.51100000000E-03 0.  1.
         12    1    3    3    0    0 -0.15830194498E+02  0.22929229895E+01  0.10070442620E+02  0.18901491164E+02  0.00000000000E+00 0. -1.
</event>
<event>
 7    1  0.2942034E-011  0.5052886E+02  0.7816164E-02  0.1300439E+00
        -11   -1    0    0    0    0  0.00000000000E+00  0.00000000000E+00  0.45593999997E+02  0.45594000000E+02  0.51100000000E-03 0. -1.
         11   -1    0    0    0    0 -0.00000000000E+00 -0.00000000000E+00 -0.45593999997E+02  0.45594000000E+02  0.51100000000E-03 0.  1.
    9900012    2    1    2    0    0  0.21606470553E+02  0.32847132934E+02 -0.10363005851E+02  0.50528860782E+02  0.30000002833E+02 0.  0.
         12    1    1    2    0    0 -0.21606470553E+02 -0.32847132934E+02  0.10363005851E+02  0.40659139218E+02  0.00000000000E+00 0. -1.
         11    1    3    3    0    0 -0.23041402582E+01 -0.15120321745E+01 -0.72195835547E+01  0.77277222123E+01  0.51100000000E-03 0. -1.
        -11    1    3    3    0    0  0.12440333209E+02  0.22753785985E+02 -0.48938984714E+01  0.26390280588E+02  0.51100000000E-03 0.  1.
         12    1    3    3    0    0  0.11470277601E+02  0.11605379123E+02  0.17504761753E+01  0.16410857981E+02  0.00000000000E+00 0. -1.
</event>
<event>
 7    1  0.2942034E-011  0.5052884E+02  0.7816164E-02  0.1300439E+00
        -11   -1    0    0    0    0  0.00000000000E+00  0.00000000000E+00  0.45593999997E+02  0.45594000000E+02  0.51100000000E-03 0. -1.
         11   -1    0    0    0    0 -0.00000000000E+00 -0.00000000000E+00 -0.45593999997E+02  0.45594000000E+02  0.51100000000E-03 0.  1.
    9900012    2    1    2    0    0 -0.51898876003E+01  0.22170598818E+02 -0.33685264568E+02  0.50528838249E+02  0.29999934341E+02 0.  0.
         12    1    1    2    0    0  0.51898876003E+01 -0.22170598818E+02  0.33685264568E+02  0.40659161751E+02  0.00000000000E+00 0. -1.
         11    1    3    3    0    0 -0.16233104398E+01 -0.14596237992E+01  0.12981674840E+01  0.25398577710E+01  0.51100000000E-03 0. -1.
        -11    1    3    3    0    0  0.80501597243E+01  0.12707842923E+02 -0.24998098209E+02  0.29175319324E+02  0.51100000000E-03 0.  1.
        -12    1    3    3    0    0 -0.11616736885E+02  0.10922379694E+02 -0.99853338433E+01  0.18813661153E+02  0.00000000000E+00 0.  1.
</event>
<event>
 7    1  0.2942034E-011  0.5052884E+02  0.7816164E-02  0.1300439E+00
        -11   -1    0    0    0    0  0.00000000000E+00  0.00000000000E+00  0.45593999997E+02  0.45594000000E+02  0.51100000000E-03 0.  1.
         11   -1    0    0    0    0 -0.00000000000E+00 -0.00000000000E+00 -0.45593999997E+02  0.45594000000E+02  0.51100000000E-03 0. -1.
    9900012    2    1    2    0    0  0.17297840172E+02 -0.39020992863E+01  0.36588598812E+02  0.50528840927E+02  0.29999942482E+02 0.  0.
         12    1    1    2    0    0 -0.17297840172E+02  0.39020992863E+01 -0.36588598812E+02  0.40659159073E+02  0.00000000000E+00 0. -1.
         11    1    3    3    0    0  0.57644543957E+01 -0.84423550382E+01  0.40066280913E+01  0.10979770580E+02  0.51100000000E-03 0. -1.
        -11    1    3    3    0    0  0.15042278185E+02  0.61317878512E-01  0.29413062122E+02  0.33036375657E+02  0.51100000000E-03 0.  1.
        -12    1    3    3    0    0 -0.35088924095E+01  0.44789378734E+01  0.31689085988E+01  0.65126946898E+01  0.00000000000E+00 0.  1.
</event>
<event>
 7    1  0.2942034E-011  0.5052885E+02  0.7816164E-02  0.1300439E+00
        -11   -1    0    0    0    0  0.00000000000E+00  0.00000000000E+00  0.45593999997E+02  0.45594000000E+02  0.51100000000E-03 0.  1.
         11   -1    0    0    0    0 -0.00000000000E+00 -0.00000000000E+00 -0.45593999997E+02  0.45594000000E+02  0.51100000000E-03 0. -1.
    9900012    2    1    2    0    0  0.78246979946E+01  0.34005060605E+02  0.20870939693E+02  0.50528853807E+02  0.29999981632E+02 0.  0.
         12    1    1    2    0    0 -0.78246979946E+01 -0.34005060605E+02 -0.20870939693E+02  0.40659146193E+02  0.00000000000E+00 0. -1.
         11    1    3    3    0    0  0.69202647683E+01  0.11558540766E+02 -0.53557345832E+01  0.14497372944E+02  0.51100000000E-03 0. -1.
        -11    1    3    3    0    0  0.10773217457E+01  0.20295020285E+02  0.26950714718E+02  0.33754844016E+02  0.51100000000E-03 0.  1.
        -12    1    3    3    0    0 -0.17288851936E+00  0.21514995540E+01 -0.72404044089E+00  0.22766368466E+01  0.00000000000E+00 0.  1.
</event>
<event>
 7    1  0.2942034E-011  0.5052886E+02  0.7816164E-02  0.1300439E+00
        -11   -1    0    0    0    0  0.00000000000E+00  0.00000000000E+00  0.45593999997E+02  0.45594000000E+02  0.51100000000E-03 0.  1.
         11   -1    0    0    0    0 -0.00000000000E+00 -0.00000000000E+00 -0.45593999997E+02  0.45594000000E+02  0.51100000000E-03 0. -1.
    9900012    2    1    2    0    0  0.25261985336E+02  0.31043503855E+02  0.71623288479E+01  0.50528856019E+02  0.29999988357E+02 0.  0.
         12    1    1    2    0    0 -0.25261985336E+02 -0.31043503855E+02 -0.71623288479E+01  0.40659143981E+02  0.00000000000E+00 0. -1.
         11    1    3    3    0    0  0.68821780651E+01  0.10690947537E+02 -0.30632419045E+01  0.13078386192E+02  0.51100000000E-03 0. -1.
        -11    1    3    3    0    0 -0.35843104614E+01 -0.13304637270E+01  0.47618366749E+01  0.61067588779E+01  0.51100000000E-03 0.  1.
        -12    1    3    3    0    0  0.21964117732E+02  0.21683020045E+02  0.54637340775E+01  0.31343710950E+02  0.00000000000E+00 0.  1.
</event>
<event>
 7    1  0.2942034E-011  0.5052878E+02  0.7816164E-02  0.1300439E+00
        -11   -1    0    0    0    0  0.00000000000E+00  0.00000000000E+00  0.45593999997E+02  0.45594000000E+02  0.51100000000E-03 0. -1.
         11   -1    0    0    0    0 -0.00000000000E+00 -0.00000000000E+00 -0.45593999997E+02  0.45594000000E+02  0.51100000000E-03 0.  1.
    9900012    2    1    2    0    0 -0.25669088328E+02  0.23096402084E+02 -0.21466855766E+02  0.50528784792E+02  0.29999771852E+02 0.  0.
         12    1    1    2    0    0  0.25669088328E+02 -0.23096402084E+02  0.21466855766E+02  0.40659215208E+02  0.00000000000E+00 0. -1.
         11    1    3    3    0    0 -0.77472192686E+00  0.16236270249E+02 -0.39929925887E+01  0.16738000350E+02  0.51100000000E-03 0. -1.
        -11    1    3    3    0    0 -0.13882958020E+02 -0.23172328892E+01 -0.11826563265E+02  0.18384060775E+02  0.51100000000E-03 0.  1.
        -12    1    3    3    0    0 -0.11011408381E+02  0.91773647251E+01 -0.56472999127E+01  0.15406723667E+02  0.00000000000E+00 0.  1.
</event>
<event>
 7    1  0.2942034E-011  0.5052874E+02  0.7816164E-02  0.1300439E+00
        -11   -1    0    0    0    0  0.00000000000E+00  0.00000000000E+00  0.45593999997E+02  0.45594000000E+02  0.51100000000E-03 0.  1.
         11   -1    0    0    0    0 -0.00000000000E+00 -0.00000000000E+00 -0.45593999997E+02  0.45594000000E+02  0.51100000000E-03 0. -1.
    9900012    2    1    2    0    0  0.15642251132E+02 -0.11002107330E-01  0.37529923556E+02  0.50528741477E+02  0.29999640191E+02 0.  0.
         12    1    1    2    0    0 -0.15642251132E+02  0.11002107330E-01 -0.37529923556E+02  0.40659258523E+02  0.00000000000E+00 0. -1.
         11    1    3    3    0    0  0.22910833742E+02  0.28077832058E+00  0.25086565330E+02  0.33975298373E+02  0.51100000000E-03 0. -1.
        -11    1    3    3    0    0 -0.57920468868E+01 -0.36126539457E+01  0.10229101374E+02  0.12297706731E+02  0.51100000000E-03 0.  1.
         12    1    3    3    0    0 -0.14765357231E+01  0.33208735178E+01  0.22142568517E+01  0.42557363720E+01  0.00000000000E+00 0. -1.
</event>
<event>
 7    1  0.2942034E-011  0.5052886E+02  0.7816164E-02  0.1300439E+00
        -11   -1    0    0    0    0  0.00000000000E+00  0.00000000000E+00  0.45593999997E+02  0.45594000000E+02  0.51100000000E-03 0. -1.
         11   -1    0    0    0    0 -0.00000000000E+00 -0.00000000000E+00 -0.45593999997E+02  0.45594000000E+02  0.51100000000E-03 0.  1.
    9900012    2    1    2    0    0 -0.31157636858E+02 -0.12181062351E+02 -0.23108209473E+02  0.50528856383E+02  0.29999989463E+02 0.  0.
         12    1    1    2    0    0  0.31157636858E+02  0.12181062351E+02  0.23108209473E+02  0.40659143617E+02  0.00000000000E+00 0. -1.
         11    1    3    3    0    0  0.16374503510E+01  0.60947013716E+01 -0.17679140455E+00  0.63133100607E+01  0.51100000000E-03 0. -1.
        -11    1    3    3    0    0 -0.24610128636E+02 -0.15752676697E+02 -0.18319019981E+02  0.34487559321E+02  0.51100000000E-03 0.  1.
         12    1    3    3    0    0 -0.81849585728E+01 -0.25230870264E+01 -0.46123980879E+01  0.97279870016E+01  0.00000000000E+00 0. -1.
</event>
<event>
 7    1  0.2942034E-011  0.5052885E+02  0.7816164E-02  0.1300439E+00
        -11   -1    0    0    0    0  0.00000000000E+00  0.00000000000E+00  0.45593999997E+02  0.45594000000E+02  0.51100000000E-03 0.  1.
         11   -1    0    0    0    0 -0.00000000000E+00 -0.00000000000E+00 -0.45593999997E+02  0.45594000000E+02  0.51100000000E-03 0. -1.
    9900012    2    1    2    0    0  0.15507358249E+02 -0.28321429403E+02  0.24710012845E+02  0.50528852713E+02  0.29999978306E+02 0.  0.
         12    1    1    2    0    0 -0.15507358249E+02  0.28321429403E+02 -0.24710012845E+02  0.40659147287E+02  0.00000000000E+00 0. -1.
         11    1    3    3    0    0  0.81461050026E+01 -0.26781587444E+02  0.22641362024E+02  0.36003384943E+02  0.51100000000E-03 0. -1.
        -11    1    3    3    0    0 -0.13286996715E+01 -0.28146361582E+01  0.44453003879E+01  0.54266301993E+01  0.51100000000E-03 0.  1.
         12    1    3    3    0    0  0.86899529183E+01  0.12747941990E+01 -0.23766495674E+01  0.90988375707E+01  0.00000000000E+00 0. -1.
</event>
<event>
 7    1  0.2942034E-011  0.5052886E+02  0.7816164E-02  0.1300439E+00
        -11   -1    0    0    0    0  0.00000000000E+00  0.00000000000E+00  0.45593999997E+02  0.45594000000E+02  0.51100000000E-03 0.  1.
         11   -1    0    0    0    0 -0.00000000000E+00 -0.00000000000E+00 -0.45593999997E+02  0.45594000000E+02  0.51100000000E-03 0. -1.
    9900012    2    1    2    0    0 -0.20144417845E+01 -0.10437134460E+02  0.39245054556E+02  0.50528855167E+02  0.29999985766E+02 0.  0.
         12    1    1    2    0    0  0.20144417845E+01  0.10437134460E+02 -0.39245054556E+02  0.40659144833E+02  0.00000000000E+00 0. -1.
         11    1    3    3    0    0  0.71679601658E+01 -0.11511547753E+02  0.93381902014E+01  0.16465029035E+02  0.51100000000E-03 0. -1.
        -11    1    3    3    0    0 -0.93770431365E+01  0.48036735113E+01  0.12919596026E+02  0.16670938153E+02  0.51100000000E-03 0.  1.
         12    1    3    3    0    0  0.19464118625E+00 -0.37292602185E+01  0.16987268329E+02  0.17392887979E+02  0.00000000000E+00 0. -1.
</event>
<event>
 7    1  0.2942034E-011  0.5052894E+02  0.7816164E-02  0.1300438E+00
        -11   -1    0    0    0    0  0.00000000000E+00  0.00000000000E+00  0.45593999997E+02  0.45594000000E+02  0.51100000000E-03 0. -1.
         11   -1    0    0    0    0 -0.00000000000E+00 -0.00000000000E+00 -0.45593999997E+02  0.45594000000E+02  0.51100000000E-03 0.  1.
    9900012    2    1    2    0    0 -0.38827205894E+02 -0.63510062418E+01 -0.10260197621E+02  0.50528943776E+02  0.30000255101E+02 0.  0.
         12    1    1    2    0    0  0.38827205894E+02  0.63510062418E+01  0.10260197621E+02  0.40659056224E+02  0.00000000000E+00 0. -1.
         11    1    3    3    0    0 -0.10350081315E+02  0.27875407803E+01  0.31172720923E+01  0.11162972381E+02  0.51100000000E-03 0. -1.
        -11    1    3    3    0    0  0.12673183136E+01 -0.38630517210E+01 -0.75865629757E+01  0.86072761285E+01  0.51100000000E-03 0.  1.
        -12    1    3    3    0    0 -0.29744442892E+02 -0.52754953011E+01 -0.57909067372E+01  0.30758695266E+02  0.00000000000E+00 0.  1.
</event>
<event>
 7    1  0.2942034E-011  0.5052887E+02  0.7816164E-02  0.1300439E+00
        -11   -1    0    0    0    0  0.00000000000E+00  0.00000000000E+00  0.45593999997E+02  0.45594000000E+02  0.51100000000E-03 0.  1.
         11   -1    0    0    0    0 -0.00000000000E+00 -0.00000000000E+00 -0.45593999997E+02  0.45594000000E+02  0.51100000000E-03 0. -1.
    9900012    2    1    2    0    0 -0.27127818880E+02  0.12708903460E+02  0.27490544593E+02  0.50528870320E+02  0.30000031823E+02 0.  0.
         12    1    1    2    0    0  0.27127818880E+02 -0.12708903460E+02 -0.27490544593E+02  0.40659129680E+02  0.00000000000E+00 0. -1.
         11    1    3    3    0    0  0.33371516153E+00  0.43887025685E+01 -0.10702907643E+01  0.45296355952E+01  0.51100000000E-03 0. -1.
        -11    1    3    3    0    0 -0.26022624736E+02  0.73432914391E+01  0.32151366735E+02  0.42009657348E+02  0.51100000000E-03 0.  1.
        -12    1    3    3    0    0 -0.14389093051E+01  0.97690945277E+00 -0.35905313776E+01  0.39895773762E+01  0.00000000000E+00 0.  1.
</event>
<event>
 7    1  0.2942034E-011  0.5052886E+02  0.7816164E-02  0.1300439E+00
        -11   -1    0    0    0    0  0.00000000000E+00  0.00000000000E+00  0.45593999997E+02  0.45594000000E+02  0.51100000000E-03 0.  1.
         11   -1    0    0    0    0 -0.00000000000E+00 -0.00000000000E+00 -0.45593999997E+02  0.45594000000E+02  0.51100000000E-03 0. -1.
    9900012    2    1    2    0    0 -0.29495743481E+02 -0.86953430078E+01  0.26599965292E+02  0.50528855554E+02  0.29999986942E+02 0.  0.
         12    1    1    2    0    0  0.29495743481E+02  0.86953430078E+01 -0.26599965292E+02  0.40659144446E+02  0.00000000000E+00 0. -1.
         11    1    3    3    0    0 -0.26977784902E+02 -0.98537522351E+01  0.59887736778E+01  0.29338758013E+02  0.51100000000E-03 0. -1.
        -11    1    3    3    0    0 -0.21202902792E+01 -0.12086413150E+01  0.85043049856E+01  0.88475786657E+01  0.51100000000E-03 0.  1.
         12    1    3    3    0    0 -0.39766830029E+00  0.23670505423E+01  0.12106886629E+02  0.12342518875E+02  0.00000000000E+00 0. -1.
</event>
<event>
 7    1  0.2942034E-011  0.5052886E+02  0.7816164E-02  0.1300439E+00
        -11   -1    0    0    0    0  0.00000000000E+00  0.00000000000E+00  0.45593999997E+02  0.45594000000E+02  0.51100000000E-03 0.  1.
         11   -1    0    0    0    0 -0.00000000000E+00 -0.00000000000E+00 -0.45593999997E+02  0.45594000000E+02  0.51100000000E-03 0. -1.
    9900012    2    1    2    0    0  0.37126322706E+02  0.85904925042E+01  0.14177621312E+02  0.50528863939E+02  0.30000012429E+02 0.  0.
         12    1    1    2    0    0 -0.37126322706E+02 -0.85904925042E+01 -0.14177621312E+02  0.40659136061E+02  0.00000000000E+00 0. -1.
         11    1    3    3    0    0 -0.16333270214E+01  0.64574929543E+01  0.21386992676E+01  0.69957849618E+01  0.51100000000E-03 0. -1.
        -11    1    3    3    0    0  0.28911334375E+02  0.75908758993E+01  0.51454113361E+01  0.30330873880E+02  0.51100000000E-03 0.  1.
         12    1    3    3    0    0  0.98483153525E+01 -0.54578763495E+01  0.68935107086E+01  0.13202205097E+02  0.00000000000E+00 0. -1.
</event>
<event>
 7    1  0.2942034E-011  0.5052885E+02  0.7816164E-02  0.1300439E+00
        -11   -1    0    0    0    0  0.00000000000E+00  0.00000000000E+00  0.45593999997E+02  0.45594000000E+02  0.51100000000E-03 0.  1.
         11   -1    0    0    0    0 -0.00000000000E+00 -0.00000000000E+00 -0.45593999997E+02  0.45594000000E+02  0.51100000000E-03 0. -1.
    9900012    2    1    2    0    0 -0.36840767290E+02 -0.49366774245E+01  0.16478882760E+02  0.50528849793E+02  0.29999969431E+02 0.  0.
         12    1    1    2    0    0  0.36840767290E+02  0.49366774245E+01 -0.16478882760E+02  0.40659150207E+02  0.00000000000E+00 0. -1.
         11    1    3    3    0    0  0.15168222170E-01 -0.92208857001E+01  0.41420939779E+01  0.10108506613E+02  0.51100000000E-03 0. -1.
        -11    1    3    3    0    0 -0.13300342463E+02 -0.32745368258E+01  0.33622048176E+01  0.14104117220E+02  0.51100000000E-03 0.  1.
         12    1    3    3    0    0 -0.23555593050E+02  0.75587451014E+01  0.89745839647E+01  0.26316225960E+02  0.00000000000E+00 0. -1.
</event>
<event>
 7    1  0.2942034E-011  0.5052886E+02  0.7816164E-02  0.1300439E+00
        -11   -1    0    0    0    0  0.00000000000E+00  0.00000000000E+00  0.45593999997E+02  0.45594000000E+02  0.51100000000E-03 0.  1.
         11   -1    0    0    0    0 -0.00000000000E+00 -0.00000000000E+00 -0.45593999997E+02  0.45594000000E+02  0.51100000000E-03 0. -1.
    9900012    2    1    2    0    0 -0.88841740066E+01  0.39660103064E+02 -0.11458925651E+01  0.50528863356E+02  0.30000010658E+02 0.  0.
         12    1    1    2    0    0  0.88841740066E+01 -0.39660103064E+02  0.11458925651E+01  0.40659136644E+02  0.00000000000E+00 0. -1.
         11    1    3    3    0    0  0.32563016447E-01 -0.62808629678E+00 -0.34641420442E+01  0.35207716640E+01  0.51100000000E-03 0. -1.
        -11    1    3    3    0    0  0.33904579762E+01  0.31432420100E+02  0.34570881516E+01  0.31803202628E+02  0.51100000000E-03 0.  1.
        -12    1    3    3    0    0 -0.12307194999E+02  0.88557692608E+01 -0.11388386724E+01  0.15204889065E+02  0.00000000000E+00 0.  1.
</event>
<event>
 7    1  0.2942034E-011  0.5052885E+02  0.7816164E-02  0.1300439E+00
        -11   -1    0    0    0    0  0.00000000000E+00  0.00000000000E+00  0.45593999997E+02  0.45594000000E+02  0.51100000000E-03 0.  1.
         11   -1    0    0    0    0 -0.00000000000E+00 -0.00000000000E+00 -0.45593999997E+02  0.45594000000E+02  0.51100000000E-03 0. -1.
    9900012    2    1    2    0    0  0.36166149822E+02  0.16870111943E+01  0.18502154089E+02  0.50528854588E+02  0.29999984005E+02 0.  0.
         12    1    1    2    0    0 -0.36166149822E+02 -0.16870111943E+01 -0.18502154089E+02  0.40659145412E+02  0.00000000000E+00 0. -1.
         11    1    3    3    0    0  0.18654737361E+02  0.44257880332E+01 -0.59837197426E+01  0.20084614209E+02  0.51100000000E-03 0. -1.
        -11    1    3    3    0    0  0.11369890279E+02 -0.22182547548E+01  0.18658084858E+02  0.21961766549E+02  0.51100000000E-03 0.  1.
         12    1    3    3    0    0  0.61415221821E+01 -0.52052208410E+00  0.58277889736E+01  0.84824738298E+01  0.00000000000E+00 0. -1.
</event>
<event>
 7    1  0.2942034E-011  0.5052886E+02  0.7816164E-02  0.1300439E+00
        -11   -1    0    0    0    0  0.00000000000E+00  0.00000000000E+00  0.45593999997E+02  0.45594000000E+02  0.51100000000E-03 0.  1.
         11   -1    0    0    0    0 -0.00000000000E+00 -0.00000000000E+00 -0.45593999997E+02  0.45594000000E+02  0.51100000000E-03 0. -1.
    9900012    2    1    2    0    0 -0.61743102118E+01  0.20531221986E+02  0.34547254514E+02  0.50528856167E+02  0.29999988805E+02 0.  0.
         12    1    1    2    0    0  0.61743102118E+01 -0.20531221986E+02 -0.34547254514E+02  0.40659143833E+02  0.00000000000E+00 0. -1.
         11    1    3    3    0    0 -0.26574883150E+01 -0.16223276563E+01  0.20015371305E+02  0.20256092415E+02  0.51100000000E-03 0. -1.
        -11    1    3    3    0    0  0.16739535566E+01  0.59459705126E+01 -0.20532539557E+01  0.65094191687E+01  0.51100000000E-03 0.  1.
        -12    1    3    3    0    0 -0.51907754534E+01  0.16207579129E+02  0.16585137164E+02  0.23763344584E+02  0.00000000000E+00 0.  1.
</event>
<event>
 7    1  0.2942034E-011  0.5052885E+02  0.7816164E-02  0.1300439E+00
        -11   -1    0    0    0    0  0.00000000000E+00  0.00000000000E+00  0.45593999997E+02  0.45594000000E+02  0.51100000000E-03 0. -1.
         11   -1    0    0    0    0 -0.00000000000E+00 -0.00000000000E+00 -0.45593999997E+02  0.45594000000E+02  0.51100000000E-03 0.  1.
    9900012    2    1    2    0    0 -0.50227546872E+00 -0.16126640571E+02 -0.37320844220E+02  0.50528853059E+02  0.29999979357E+02 0.  0.
         12    1    1    2    0    0  0.50227546872E+00  0.16126640571E+02  0.37320844220E+02  0.40659146941E+02  0.00000000000E+00 0. -1.
         11    1    3    3    0    0 -0.29454417774E+00 -0.39766669117E+01  0.17907569434E+01  0.43712065486E+01  0.51100000000E-03 0. -1.
        -11    1    3    3    0    0  0.15936222355E+01 -0.14422262924E+01 -0.34153392900E+02  0.34220956961E+02  0.51100000000E-03 0.  1.
        -12    1    3    3    0    0 -0.18013535265E+01 -0.10707747367E+02 -0.49582082630E+01  0.11936689549E+02  0.00000000000E+00 0.  1.
</event>
<event>
 7    1  0.2942034E-011  0.5052886E+02  0.7816164E-02  0.1300439E+00
        -11   -1    0    0    0    0  0.00000000000E+00  0.00000000000E+00  0.45593999997E+02  0.45594000000E+02  0.51100000000E-03 0. -1.
         11   -1    0    0    0    0 -0.00000000000E+00 -0.00000000000E+00 -0.45593999997E+02  0.45594000000E+02  0.51100000000E-03 0.  1.
    9900012    2    1    2    0    0  0.12523111259E+02 -0.35604319441E+02  0.15121833389E+02  0.50528859287E+02  0.29999998290E+02 0.  0.
         12    1    1    2    0    0 -0.12523111259E+02  0.35604319441E+02 -0.15121833389E+02  0.40659140713E+02  0.00000000000E+00 0. -1.
         11    1    3    3    0    0  0.59918898145E+01 -0.73912801174E+01  0.16587997961E+02  0.19123165061E+02  0.51100000000E-03 0. -1.
        -11    1    3    3    0    0  0.56176152987E+01 -0.10501080762E+02 -0.56528104476E+01  0.13182737388E+02  0.51100000000E-03 0.  1.
         12    1    3    3    0    0  0.91360614595E+00 -0.17711958561E+02  0.41866458756E+01  0.18222956839E+02  0.00000000000E+00 0. -1.
</event>
<event>
 7    1  0.2942034E-011  0.5052885E+02  0.7816164E-02  0.1300439E+00
        -11   -1    0    0    0    0  0.00000000000E+00  0.00000000000E+00  0.45593999997E+02  0.45594000000E+02  0.51100000000E-03 0.  1.
         11   -1    0    0    0    0 -0.00000000000E+00 -0.00000000000E+00 -0.45593999997E+02  0.45594000000E+02  0.51100000000E-03 0. -1.
    9900012    2    1    2    0    0 -0.62964869053E+01 -0.21938480056E+02  0.33648529971E+02  0.50528853136E+02  0.29999979592E+02 0.  0.
         12    1    1    2    0    0  0.62964869053E+01  0.21938480056E+02 -0.33648529971E+02  0.40659146864E+02  0.00000000000E+00 0. -1.
         11    1    3    3    0    0  0.30120202395E+01 -0.47509821177E+01 -0.27186817370E+01  0.62478258341E+01  0.51100000000E-03 0. -1.
        -11    1    3    3    0    0 -0.12300521928E+02 -0.60414494417E+01  0.20585630518E+02  0.24729944099E+02  0.51100000000E-03 0.  1.
        -12    1    3    3    0    0  0.29920147830E+01 -0.11146048497E+02  0.15781581189E+02  0.19551083203E+02  0.00000000000E+00 0.  1.
</event>
<event>
 7    1  0.2942034E-011  0.5052887E+02  0.7816164E-02  0.1300439E+00
        -11   -1    0    0    0    0  0.00000000000E+00  0.00000000000E+00  0.45593999997E+02  0.45594000000E+02  0.51100000000E-03 0.  1.
         11   -1    0    0    0    0 -0.00000000000E+00 -0.00000000000E+00 -0.45593999997E+02  0.45594000000E+02  0.51100000000E-03 0. -1.
    9900012    2    1    2    0    0 -0.73414829080E+01 -0.31941537829E+02  0.24062529894E+02  0.50528873656E+02  0.30000041966E+02 0.  0.
         12    1    1    2    0    0  0.73414829080E+01  0.31941537829E+02 -0.24062529894E+02  0.40659126344E+02  0.00000000000E+00 0. -1.
         11    1    3    3    0    0 -0.74672729250E+01 -0.24374692012E+01  0.15539514046E+02  0.17412004999E+02  0.51100000000E-03 0. -1.
        -11    1    3    3    0    0  0.50157394932E+01 -0.17792729745E+02  0.13418477707E+01  0.18534816701E+02  0.51100000000E-03 0.  1.
        -12    1    3    3    0    0 -0.48899494762E+01 -0.11711338883E+02  0.71811680767E+01  0.14582051956E+02  0.00000000000E+00 0.  1.
</event>
<event>
 7    1  0.2942034E-011  0.5052886E+02  0.7816164E-02  0.1300439E+00
        -11   -1    0    0    0    0  0.00000000000E+00  0.00000000000E+00  0.45593999997E+02  0.45594000000E+02  0.51100000000E-03 0. -1.
         11   -1    0    0    0    0 -0.00000000000E+00 -0.00000000000E+00 -0.45593999997E+02  0.45594000000E+02  0.51100000000E-03 0.  1.
    9900012    2    1    2    0    0 -0.91678615542E+01  0.15109524840E+02 -0.36617190551E+02  0.50528855023E+02  0.29999985329E+02 0.  0.
         12    1    1    2    0    0  0.91678615542E+01 -0.15109524840E+02  0.36617190551E+02  0.40659144977E+02  0.00000000000E+00 0. -1.
         11    1    3    3    0    0 -0.52428818479E+01 -0.62264313967E+00  0.23937499774E+01  0.57970280115E+01  0.51100000000E-03 0. -1.
        -11    1    3    3    0    0 -0.63841309858E+00  0.15043847638E+02 -0.18060352286E+02  0.23513852257E+02  0.51100000000E-03 0.  1.
        -12    1    3    3    0    0 -0.32865666077E+01  0.68832034184E+00 -0.20950588243E+02  0.21217974755E+02  0.00000000000E+00 0.  1.
</event>
<event>
 7    1  0.2942034E-011  0.5052886E+02  0.7816164E-02  0.1300439E+00
        -11   -1    0    0    0    0  0.00000000000E+00  0.00000000000E+00  0.45593999997E+02  0.45594000000E+02  0.51100000000E-03 0.  1.
         11   -1    0    0    0    0 -0.00000000000E+00 -0.00000000000E+00 -0.45593999997E+02  0.45594000000E+02  0.51100000000E-03 0. -1.
    9900012    2    1    2    0    0 -0.38210373089E+02  0.10031456419E+02  0.96178560802E+01  0.50528857300E+02  0.29999992250E+02 0.  0.
         12    1    1    2    0    0  0.38210373089E+02 -0.10031456419E+02 -0.96178560802E+01  0.40659142700E+02  0.00000000000E+00 0. -1.
         11    1    3    3    0    0 -0.34518896124E+02  0.17487886769E+01  0.12931978164E+01  0.34587350466E+02  0.51100000000E-03 0. -1.
        -11    1    3    3    0    0 -0.32546678847E+01  0.73706107030E+01  0.10679921891E+02  0.13378321907E+02  0.51100000000E-03 0.  1.
         12    1    3    3    0    0 -0.43680908060E+00  0.91205703939E+00 -0.23552636276E+01  0.25631849272E+01  0.00000000000E+00 0. -1.
</event>
<event>
 7    1  0.2942034E-011  0.5052886E+02  0.7816164E-02  0.1300439E+00
        -11   -1    0    0    0    0  0.00000000000E+00  0.00000000000E+00  0.45593999997E+02  0.45594000000E+02  0.51100000000E-03 0.  1.
         11   -1    0    0    0    0 -0.00000000000E+00 -0.00000000000E+00 -0.45593999997E+02  0.45594000000E+02  0.51100000000E-03 0. -1.
    9900012    2    1    2    0    0 -0.13419057493E+02  0.21212687283E+02  0.31986186779E+02  0.50528863876E+02  0.30000012236E+02 0.  0.
         12    1    1    2    0    0  0.13419057493E+02 -0.21212687283E+02 -0.31986186779E+02  0.40659136124E+02  0.00000000000E+00 0. -1.
         11    1    3    3    0    0 -0.25735176192E+01 -0.12978362672E+01 -0.44982264878E+01  0.53424164672E+01  0.51100000000E-03 0. -1.
        -11    1    3    3    0    0 -0.24832937636E+01  0.11078877431E+02  0.22905983439E+02  0.25565452286E+02  0.51100000000E-03 0.  1.
         12    1    3    3    0    0 -0.83622461100E+01  0.11431646119E+02  0.13578429828E+02  0.19620995122E+02  0.00000000000E+00 0. -1.
</event>
<event>
 7    1  0.2942034E-011  0.5052888E+02  0.7816164E-02  0.1300439E+00
        -11   -1    0    0    0    0  0.00000000000E+00  0.00000000000E+00  0.45593999997E+02  0.45594000000E+02  0.51100000000E-03 0.  1.
         11   -1    0    0    0    0 -0.00000000000E+00 -0.00000000000E+00 -0.45593999997E+02  0.45594000000E+02  0.51100000000E-03 0. -1.
    9900012    2    1    2    0    0  0.60844861386E+01 -0.25053810866E+02  0.31439622752E+02  0.50528876925E+02  0.30000051900E+02 0.  0.
         12    1    1    2    0    0 -0.60844861386E+01  0.25053810866E+02 -0.31439622752E+02  0.40659123075E+02  0.00000000000E+00 0. -1.
         11    1    3    3    0    0  0.78659046060E+01 -0.26876391773E+01 -0.34459205771E+01  0.89983458760E+01  0.51100000000E-03 0. -1.
        -11    1    3    3    0    0 -0.17208307078E+01 -0.96202802262E+01  0.14390821065E+02  0.17395596602E+02  0.51100000000E-03 0.  1.
         12    1    3    3    0    0 -0.60587759603E-01 -0.12745891462E+02  0.20494722264E+02  0.24134934446E+02  0.00000000000E+00 0. -1.
</event>
<event>
 7    1  0.2942034E-011  0.5052886E+02  0.7816164E-02  0.1300439E+00
        -11   -1    0    0    0    0  0.00000000000E+00  0.00000000000E+00  0.45593999997E+02  0.45594000000E+02  0.51100000000E-03 0.  1.
         11   -1    0    0    0    0 -0.00000000000E+00 -0.00000000000E+00 -0.45593999997E+02  0.45594000000E+02  0.51100000000E-03 0. -1.
    9900012    2    1    2    0    0 -0.15220534859E+02  0.50253322210E+01  0.37366389424E+02  0.50528859528E+02  0.29999999022E+02 0.  0.
         12    1    1    2    0    0  0.15220534859E+02 -0.50253322210E+01 -0.37366389424E+02  0.40659140472E+02  0.00000000000E+00 0. -1.
         11    1    3    3    0    0 -0.76548864313E+00  0.10960833991E+01 -0.35278649846E+01  0.37726917832E+01  0.51100000000E-03 0. -1.
        -11    1    3    3    0    0 -0.17096047068E+02  0.62113717435E+01  0.38324013222E+02  0.42421527012E+02  0.51100000000E-03 0.  1.
        -12    1    3    3    0    0  0.26410008521E+01 -0.22821229216E+01  0.25702411861E+01  0.43346407331E+01  0.00000000000E+00 0.  1.
</event>
<event>
 7    1  0.2942034E-011  0.5052886E+02  0.7816164E-02  0.1300439E+00
        -11   -1    0    0    0    0  0.00000000000E+00  0.00000000000E+00  0.45593999997E+02  0.45594000000E+02  0.51100000000E-03 0.  1.
         11   -1    0    0    0    0 -0.00000000000E+00 -0.00000000000E+00 -0.45593999997E+02  0.45594000000E+02  0.51100000000E-03 0. -1.
    9900012    2    1    2    0    0 -0.16196350695E+01  0.28732106714E+02  0.28722962345E+02  0.50528859086E+02  0.29999997677E+02 0.  0.
         12    1    1    2    0    0  0.16196350695E+01 -0.28732106714E+02 -0.28722962345E+02  0.40659140914E+02  0.00000000000E+00 0. -1.
         11    1    3    3    0    0  0.20015763840E+00  0.87412577737E+01 -0.18131898279E+01  0.89295749148E+01  0.51100000000E-03 0. -1.
        -11    1    3    3    0    0 -0.72790146462E+01  0.11458945297E+01  0.14479919501E+02  0.16247005801E+02  0.51100000000E-03 0.  1.
        -12    1    3    3    0    0  0.54592219383E+01  0.18844954411E+02  0.16056232672E+02  0.25352278370E+02  0.00000000000E+00 0.  1.
</event>
<event>
 7    1  0.2942034E-011  0.5052886E+02  0.7816164E-02  0.1300439E+00
        -11   -1    0    0    0    0  0.00000000000E+00  0.00000000000E+00  0.45593999997E+02  0.45594000000E+02  0.51100000000E-03 0. -1.
         11   -1    0    0    0    0 -0.00000000000E+00 -0.00000000000E+00 -0.45593999997E+02  0.45594000000E+02  0.51100000000E-03 0.  1.
    9900012    2    1    2    0    0  0.18834852624E+02  0.16867370242E+01 -0.35994008358E+02  0.50528863354E+02  0.30000010651E+02 0.  0.
         12    1    1    2    0    0 -0.18834852624E+02 -0.16867370242E+01  0.35994008358E+02  0.40659136646E+02  0.00000000000E+00 0. -1.
         11    1    3    3    0    0  0.78198325477E+00 -0.60502997019E+01  0.28094071236E+01  0.67164270964E+01  0.51100000000E-03 0. -1.
        -11    1    3    3    0    0  0.10195631890E+02  0.70952983761E+01 -0.25022303264E+02  0.27935816251E+02  0.51100000000E-03 0.  1.
         12    1    3    3    0    0  0.78572374792E+01  0.64173834996E+00 -0.13781112217E+02  0.15876620007E+02  0.00000000000E+00 0. -1.
</event>
<event>
 7    1  0.2942034E-011  0.5052886E+02  0.7816164E-02  0.1300439E+00
        -11   -1    0    0    0    0  0.00000000000E+00  0.00000000000E+00  0.45593999997E+02  0.45594000000E+02  0.51100000000E-03 0.  1.
         11   -1    0    0    0    0 -0.00000000000E+00 -0.00000000000E+00 -0.45593999997E+02  0.45594000000E+02  0.51100000000E-03 0. -1.
    9900012    2    1    2    0    0  0.12345498065E+02 -0.26858706421E+02  0.27917099930E+02  0.50528857097E+02  0.29999991633E+02 0.  0.
         12    1    1    2    0    0 -0.12345498065E+02  0.26858706421E+02 -0.27917099930E+02  0.40659142903E+02  0.00000000000E+00 0. -1.
         11    1    3    3    0    0  0.42346121622E+01 -0.28416514736E+01 -0.43495556963E+01  0.67026530775E+01  0.51100000000E-03 0. -1.
        -11    1    3    3    0    0  0.10551254494E+02 -0.19764410365E+02  0.17996915825E+02  0.28737603727E+02  0.51100000000E-03 0.  1.
        -12    1    3    3    0    0 -0.24403685916E+01 -0.42526445825E+01  0.14269739801E+02  0.15088600293E+02  0.00000000000E+00 0.  1.
</event>
<event>
 7    1  0.2942034E-011  0.5052884E+02  0.7816164E-02  0.1300439E+00
        -11   -1    0    0    0    0  0.00000000000E+00  0.00000000000E+00  0.45593999997E+02  0.45594000000E+02  0.51100000000E-03 0.  1.
         11   -1    0    0    0    0 -0.00000000000E+00 -0.00000000000E+00 -0.45593999997E+02  0.45594000000E+02  0.51100000000E-03 0. -1.
    9900012    2    1    2    0    0 -0.22998744497E+02  0.55624887291E+01  0.33064841931E+02  0.50528839885E+02  0.29999939315E+02 0.  0.
         12    1    1    2    0    0  0.22998744497E+02 -0.55624887291E+01 -0.33064841931E+02  0.40659160115E+02  0.00000000000E+00 0. -1.
         11    1    3    3    0    0 -0.43896558904E+01  0.88855722918E+01  0.16241212098E+01  0.10042920081E+02  0.51100000000E-03 0. -1.
        -11    1    3    3    0    0 -0.14290188460E+02 -0.69365619436E+01  0.31005791002E+02  0.34837974306E+02  0.51100000000E-03 0.  1.
        -12    1    3    3    0    0 -0.43189001468E+01  0.36134783809E+01  0.43492971928E+00  0.56479454980E+01  0.00000000000E+00 0.  1.
</event>
<event>
 7    1  0.2942034E-011  0.5052885E+02  0.7816164E-02  0.1300439E+00
        -11   -1    0    0    0    0  0.00000000000E+00  0.00000000000E+00  0.45593999997E+02  0.45594000000E+02  0.51100000000E-03 0.  1.
         11   -1    0    0    0    0 -0.00000000000E+00 -0.00000000000E+00 -0.45593999997E+02  0.45594000000E+02  0.51100000000E-03 0. -1.
    9900012    2    1    2    0    0  0.38845470512E+02 -0.96876841626E+01  0.70953825542E+01  0.50528852722E+02  0.29999978334E+02 0.  0.
         12    1    1    2    0    0 -0.38845470512E+02  0.96876841626E+01 -0.70953825542E+01  0.40659147278E+02  0.00000000000E+00 0. -1.
         11    1    3    3    0    0  0.26397961727E+01  0.15530885744E+01 -0.36283107505E+00  0.30841943200E+01  0.51100000000E-03 0. -1.
        -11    1    3    3    0    0  0.35668894153E+02 -0.25313229815E+01  0.11856361268E+02  0.37672946645E+02  0.51100000000E-03 0.  1.
        -12    1    3    3    0    0  0.53678018704E+00 -0.87094497555E+01 -0.43981476392E+01  0.97717117574E+01  0.00000000000E+00 0.  1.
</event>
<event>
 7    1  0.2942034E-011  0.5052895E+02  0.7816164E-02  0.1300438E+00
        -11   -1    0    0    0    0  0.00000000000E+00  0.00000000000E+00  0.45593999997E+02  0.45594000000E+02  0.51100000000E-03 0.  1.
         11   -1    0    0    0    0 -0.00000000000E+00 -0.00000000000E+00 -0.45593999997E+02  0.45594000000E+02  0.51100000000E-03 0. -1.
    9900012    2    1    2    0    0 -0.13127838139E+02  0.37235219965E+02  0.97137304363E+01  0.50528950588E+02  0.30000275807E+02 0.  0.
         12    1    1    2    0    0  0.13127838139E+02 -0.37235219965E+02 -0.97137304363E+01  0.40659049412E+02  0.00000000000E+00 0. -1.
         11    1    3    3    0    0 -0.45649025573E-01  0.95017415904E+01 -0.49448429782E+01  0.10711519473E+02  0.51100000000E-03 0. -1.
        -11    1    3    3    0    0 -0.13556521312E+02  0.96716753602E+01  0.13969414140E+02  0.21736262467E+02  0.51100000000E-03 0.  1.
        -12    1    3    3    0    0  0.47433219781E+00  0.18061803015E+02  0.68915927437E+00  0.18081168648E+02  0.00000000000E+00 0.  1.
</event>
<event>
 7    1  0.2942034E-011  0.5052885E+02  0.7816164E-02  0.1300439E+00
        -11   -1    0    0    0    0  0.00000000000E+00  0.00000000000E+00  0.45593999997E+02  0.45594000000E+02  0.51100000000E-03 0.  1.
         11   -1    0    0    0    0 -0.00000000000E+00 -0.00000000000E+00 -0.45593999997E+02  0.45594000000E+02  0.51100000000E-03 0. -1.
    9900012    2    1    2    0    0 -0.29807424442E+02 -0.35765713824E+01  0.27420646912E+02  0.50528852299E+02  0.29999977047E+02 0.  0.
         12    1    1    2    0    0  0.29807424442E+02  0.35765713824E+01 -0.27420646912E+02  0.40659147701E+02  0.00000000000E+00 0. -1.
         11    1    3    3    0    0 -0.21012452554E+01  0.94015796152E+01  0.62393827916E+01  0.11477579395E+02  0.51100000000E-03 0. -1.
        -11    1    3    3    0    0 -0.23154321204E+02 -0.12525351215E+02  0.22116456261E+02  0.34382330510E+02  0.51100000000E-03 0.  1.
        -12    1    3    3    0    0 -0.45518579828E+01 -0.45279978303E+00 -0.93519214098E+00  0.46689423941E+01  0.00000000000E+00 0.  1.
</event>
<event>
 7    1  0.2942034E-011  0.5052886E+02  0.7816164E-02  0.1300439E+00
        -11   -1    0    0    0    0  0.00000000000E+00  0.00000000000E+00  0.45593999997E+02  0.45594000000E+02  0.51100000000E-03 0.  1.
         11   -1    0    0    0    0 -0.00000000000E+00 -0.00000000000E+00 -0.45593999997E+02  0.45594000000E+02  0.51100000000E-03 0. -1.
    9900012    2    1    2    0    0  0.15730283470E+02  0.15669084658E+02  0.34061760899E+02  0.50528860959E+02  0.30000003370E+02 0.  0.
         12    1    1    2    0    0 -0.15730283470E+02 -0.15669084658E+02 -0.34061760899E+02  0.40659139041E+02  0.00000000000E+00 0. -1.
         11    1    3    3    0    0  0.91694007426E+00 -0.62577613546E+00 -0.21185666694E+01  0.23917984583E+01  0.51100000000E-03 0. -1.
        -11    1    3    3    0    0  0.21024155309E+02  0.13035467858E+02  0.28218962036E+02  0.37526635173E+02  0.51100000000E-03 0.  1.
        -12    1    3    3    0    0 -0.62108119138E+01  0.32593929355E+01  0.79613655320E+01  0.10610427327E+02  0.00000000000E+00 0.  1.
</event>
<event>
 7    1  0.2942034E-011  0.5052887E+02  0.7816164E-02  0.1300439E+00
        -11   -1    0    0    0    0  0.00000000000E+00  0.00000000000E+00  0.45593999997E+02  0.45594000000E+02  0.51100000000E-03 0.  1.
         11   -1    0    0    0    0 -0.00000000000E+00 -0.00000000000E+00 -0.45593999997E+02  0.45594000000E+02  0.51100000000E-03 0. -1.
    9900012    2    1    2    0    0  0.32332123426E+02  0.22974227460E+02 -0.89433654351E+01  0.50528866734E+02  0.30000020925E+02 0.  0.
         12    1    1    2    0    0 -0.32332123426E+02 -0.22974227460E+02  0.89433654351E+01  0.40659133266E+02  0.00000000000E+00 0. -1.
         11    1    3    3    0    0  0.37694753808E+01  0.19310085833E+01 -0.95439565438E+00  0.43414986032E+01  0.51100000000E-03 0. -1.
        -11    1    3    3    0    0  0.15538614325E+02 -0.22120133701E+01 -0.11284003461E+02  0.19330552829E+02  0.51100000000E-03 0.  1.
        -12    1    3    3    0    0  0.13024033720E+02  0.23255232247E+02  0.32950336803E+01  0.26856815302E+02  0.00000000000E+00 0.  1.
</event>
<event>
 7    1  0.2942034E-011  0.5052885E+02  0.7816164E-02  0.1300439E+00
        -11   -1    0    0    0    0  0.00000000000E+00  0.00000000000E+00  0.45593999997E+02  0.45594000000E+02  0.51100000000E-03 0.  1.
         11   -1    0    0    0    0 -0.00000000000E+00 -0.00000000000E+00 -0.45593999997E+02  0.45594000000E+02  0.51100000000E-03 0. -1.
    9900012    2    1    2    0    0 -0.15710936426E+02 -0.35539538065E+02  0.11969721192E+02  0.50528849558E+02  0.29999968716E+02 0.  0.
         12    1    1    2    0    0  0.15710936426E+02  0.35539538065E+02 -0.11969721192E+02  0.40659150442E+02  0.00000000000E+00 0. -1.
         11    1    3    3    0    0 -0.55060920430E+00 -0.19378725843E+02 -0.90650157818E+00  0.19407728645E+02  0.51100000000E-03 0. -1.
        -11    1    3    3    0    0 -0.11391700037E+02  0.21231134207E+00  0.37121735863E+01  0.11983160636E+02  0.51100000000E-03 0.  1.
        -12    1    3    3    0    0 -0.37686271849E+01 -0.16373123564E+02  0.91640491840E+01  0.19137960277E+02  0.00000000000E+00 0.  1.
</event>
<event>
 7    1  0.2942034E-011  0.5052886E+02  0.7816164E-02  0.1300439E+00
        -11   -1    0    0    0    0  0.00000000000E+00  0.00000000000E+00  0.45593999997E+02  0.45594000000E+02  0.51100000000E-03 0.  1.
         11   -1    0    0    0    0 -0.00000000000E+00 -0.00000000000E+00 -0.45593999997E+02  0.45594000000E+02  0.51100000000E-03 0. -1.
    9900012    2    1    2    0    0 -0.67862383477E+01 -0.32467652647E+01  0.39957115720E+02  0.50528860656E+02  0.30000002449E+02 0.  0.
         12    1    1    2    0    0  0.67862383477E+01  0.32467652647E+01 -0.39957115720E+02  0.40659139344E+02  0.00000000000E+00 0. -1.
         11    1    3    3    0    0  0.34700187774E+01 -0.28359458043E+01 -0.26530627987E+01  0.52079133437E+01  0.51100000000E-03 0. -1.
        -11    1    3    3    0    0 -0.14794279354E+01  0.48506429501E+01  0.17058370476E+02  0.17796220037E+02  0.51100000000E-03 0.  1.
         12    1    3    3    0    0 -0.87768291897E+01 -0.52614624106E+01  0.25551808042E+02  0.27524727275E+02  0.00000000000E+00 0. -1.
</event>
<event>
 7    1  0.2942034E-011  0.5052886E+02  0.7816164E-02  0.1300439E+00
        -11   -1    0    0    0    0  0.00000000000E+00  0.00000000000E+00  0.45593999997E+02  0.45594000000E+02  0.51100000000E-03 0.  1.
         11   -1    0    0    0    0 -0.00000000000E+00 -0.00000000000E+00 -0.45593999997E+02  0.45594000000E+02  0.51100000000E-03 0. -1.
    9900012    2    1    2    0    0  0.33962280878E+02 -0.27445971179E+01  0.22185505281E+02  0.50528856128E+02  0.29999988687E+02 0.  0.
         12    1    1    2    0    0 -0.33962280878E+02  0.27445971179E+01 -0.22185505281E+02  0.40659143872E+02  0.00000000000E+00 0. -1.
         11    1    3    3    0    0 -0.16635874279E+01 -0.48157590367E+00  0.81325272674E+01  0.83148925729E+01  0.51100000000E-03 0. -1.
        -11    1    3    3    0    0  0.35919217553E+02 -0.16741831944E+01  0.89320778261E+01  0.37050979657E+02  0.51100000000E-03 0.  1.
        -12    1    3    3    0    0 -0.29334924699E+00 -0.58883801985E+00  0.51209001879E+01  0.51629838978E+01  0.00000000000E+00 0.  1.
</event>
<event>
 7    1  0.2942034E-011  0.5052886E+02  0.7816164E-02  0.1300439E+00
        -11   -1    0    0    0    0  0.00000000000E+00  0.00000000000E+00  0.45593999997E+02  0.45594000000E+02  0.51100000000E-03 0.  1.
         11   -1    0    0    0    0 -0.00000000000E+00 -0.00000000000E+00 -0.45593999997E+02  0.45594000000E+02  0.51100000000E-03 0. -1.
    9900012    2    1    2    0    0  0.26373246256E+02  0.17514595388E+02  0.25511885141E+02  0.50528862612E+02  0.30000008395E+02 0.  0.
         12    1    1    2    0    0 -0.26373246256E+02 -0.17514595388E+02 -0.25511885141E+02  0.40659137388E+02  0.00000000000E+00 0. -1.
         11    1    3    3    0    0  0.41574943102E+01  0.11365809918E+02  0.40065422400E+01  0.12748285179E+02  0.51100000000E-03 0. -1.
        -11    1    3    3    0    0  0.51318154286E+01 -0.69209334334E+01  0.22350806309E+01  0.89011479524E+01  0.51100000000E-03 0.  1.
        -12    1    3    3    0    0  0.17083936517E+02  0.13069718903E+02  0.19270262270E+02  0.28879429480E+02  0.00000000000E+00 0.  1.
</event>
<event>
 7    1  0.2942034E-011  0.5052887E+02  0.7816164E-02  0.1300439E+00
        -11   -1    0    0    0    0  0.00000000000E+00  0.00000000000E+00  0.45593999997E+02  0.45594000000E+02  0.51100000000E-03 0.  1.
         11   -1    0    0    0    0 -0.00000000000E+00 -0.00000000000E+00 -0.45593999997E+02  0.45594000000E+02  0.51100000000E-03 0. -1.
    9900012    2    1    2    0    0  0.36473055257E+02 -0.76686294845E+01 -0.16250337316E+02  0.50528866944E+02  0.30000021564E+02 0.  0.
         12    1    1    2    0    0 -0.36473055257E+02  0.76686294845E+01  0.16250337316E+02  0.40659133056E+02  0.00000000000E+00 0. -1.
         11    1    3    3    0    0  0.54708510303E+01 -0.36257076598E+01 -0.64552716245E+00  0.65948974676E+01  0.51100000000E-03 0. -1.
        -11    1    3    3    0    0 -0.37703407226E+01  0.34117082106E+01 -0.41765065994E+01  0.65801542318E+01  0.51100000000E-03 0.  1.
        -12    1    3    3    0    0  0.34772544949E+02 -0.74546300352E+01 -0.11428303554E+02  0.37353815245E+02  0.00000000000E+00 0.  1.
</event>
<event>
 7    1  0.2942034E-011  0.5052885E+02  0.7816164E-02  0.1300439E+00
        -11   -1    0    0    0    0  0.00000000000E+00  0.00000000000E+00  0.45593999997E+02  0.45594000000E+02  0.51100000000E-03 0.  1.
         11   -1    0    0    0    0 -0.00000000000E+00 -0.00000000000E+00 -0.45593999997E+02  0.45594000000E+02  0.51100000000E-03 0. -1.
    9900012    2    1    2    0    0 -0.22747693218E+02 -0.32368657548E+02  0.93796955053E+01  0.50528853108E+02  0.29999979507E+02 0.  0.
         12    1    1    2    0    0  0.22747693218E+02  0.32368657548E+02 -0.93796955053E+01  0.40659146892E+02  0.00000000000E+00 0. -1.
         11    1    3    3    0    0 -0.25839744402E+02 -0.21817458695E+02  0.56435603323E+01  0.34286202300E+02  0.51100000000E-03 0. -1.
        -11    1    3    3    0    0  0.78269398987E+00 -0.63172374452E+01  0.77066933740E+01  0.99956601504E+01  0.51100000000E-03 0.  1.
         12    1    3    3    0    0  0.23093571935E+01 -0.42339614080E+01 -0.39705582011E+01  0.62469906579E+01  0.00000000000E+00 0. -1.
</event>
<event>
 7    1  0.2942034E-011  0.5052886E+02  0.7816164E-02  0.1300439E+00
        -11   -1    0    0    0    0  0.00000000000E+00  0.00000000000E+00  0.45593999997E+02  0.45594000000E+02  0.51100000000E-03 0.  1.
         11   -1    0    0    0    0 -0.00000000000E+00 -0.00000000000E+00 -0.45593999997E+02  0.45594000000E+02  0.51100000000E-03 0. -1.
    9900012    2    1    2    0    0  0.14289478151E+02 -0.30335160851E+02  0.22994656582E+02  0.50528863253E+02  0.30000010343E+02 0.  0.
         12    1    1    2    0    0 -0.14289478151E+02  0.30335160851E+02 -0.22994656582E+02  0.40659136747E+02  0.00000000000E+00 0. -1.
         11    1    3    3    0    0  0.63736628275E+01 -0.69519166213E+00  0.11864260436E+02  0.13485827570E+02  0.51100000000E-03 0. -1.
        -11    1    3    3    0    0  0.94475413571E+01 -0.31516001537E+02  0.10168355067E+02  0.34437041621E+02  0.51100000000E-03 0.  1.
         12    1    3    3    0    0 -0.15317260334E+01  0.18760323481E+01  0.96204107855E+00  0.26059940616E+01  0.00000000000E+00 0. -1.
</event>
<event>
 7    1  0.2942034E-011  0.5052886E+02  0.7816164E-02  0.1300439E+00
        -11   -1    0    0    0    0  0.00000000000E+00  0.00000000000E+00  0.45593999997E+02  0.45594000000E+02  0.51100000000E-03 0.  1.
         11   -1    0    0    0    0 -0.00000000000E+00 -0.00000000000E+00 -0.45593999997E+02  0.45594000000E+02  0.51100000000E-03 0. -1.
    9900012    2    1    2    0    0  0.26191893213E+02  0.13538315801E+02  0.27997574544E+02  0.50528862710E+02  0.30000008693E+02 0.  0.
         12    1    1    2    0    0 -0.26191893213E+02 -0.13538315801E+02 -0.27997574544E+02  0.40659137290E+02  0.00000000000E+00 0. -1.
         11    1    3    3    0    0  0.12658569534E+02  0.20933500976E+02  0.17144883386E+02  0.29873029179E+02  0.51100000000E-03 0. -1.
        -11    1    3    3    0    0  0.83598381029E+01 -0.63540627227E+01  0.11218383693E+02  0.15365973420E+02  0.51100000000E-03 0.  1.
         12    1    3    3    0    0  0.51734855763E+01 -0.10411224524E+01 -0.36569253481E+00  0.52898601115E+01  0.00000000000E+00 0. -1.
</event>
<event>
 7    1  0.2942034E-011  0.5052882E+02  0.7816164E-02  0.1300439E+00
        -11   -1    0    0    0    0  0.00000000000E+00  0.00000000000E+00  0.45593999997E+02  0.45594000000E+02  0.51100000000E-03 0.  1.
         11   -1    0    0    0    0 -0.00000000000E+00 -0.00000000000E+00 -0.45593999997E+02  0.45594000000E+02  0.51100000000E-03 0. -1.
    9900012    2    1    2    0    0  0.57989921514E+01 -0.34504499143E+02  0.20711827699E+02  0.50528824188E+02  0.29999891601E+02 0.  0.
         12    1    1    2    0    0 -0.57989921514E+01  0.34504499143E+02 -0.20711827699E+02  0.40659175812E+02  0.00000000000E+00 0. -1.
         11    1    3    3    0    0 -0.50087889774E+01 -0.93984855170E+01  0.18128348526E+02  0.21025140132E+02  0.51100000000E-03 0. -1.
        -11    1    3    3    0    0  0.61894929166E+00 -0.14259813580E+02  0.31299005907E+01  0.14612380351E+02  0.51100000000E-03 0.  1.
         12    1    3    3    0    0  0.10188831837E+02 -0.10846200046E+02 -0.54642141765E+00  0.14891303704E+02  0.00000000000E+00 0. -1.
</event>
<event>
 7    1  0.2942034E-011  0.5052887E+02  0.7816164E-02  0.1300439E+00
        -11   -1    0    0    0    0  0.00000000000E+00  0.00000000000E+00  0.45593999997E+02  0.45594000000E+02  0.51100000000E-03 0.  1.
         11   -1    0    0    0    0 -0.00000000000E+00 -0.00000000000E+00 -0.45593999997E+02  0.45594000000E+02  0.51100000000E-03 0. -1.
    9900012    2    1    2    0    0 -0.22020812644E+02  0.22066140645E+02  0.26102370409E+02  0.50528874414E+02  0.30000044267E+02 0.  0.
         12    1    1    2    0    0  0.22020812644E+02 -0.22066140645E+02 -0.26102370409E+02  0.40659125586E+02  0.00000000000E+00 0. -1.
         11    1    3    3    0    0  0.72964226222E+00  0.17191509113E+01 -0.41122842606E+01  0.45164964062E+01  0.51100000000E-03 0. -1.
        -11    1    3    3    0    0 -0.17105030010E+02  0.20768572854E+02  0.30069179855E+02  0.40349364895E+02  0.51100000000E-03 0.  1.
        -12    1    3    3    0    0 -0.56454248963E+01 -0.42158312002E+00  0.14547481472E+00  0.56630131122E+01  0.00000000000E+00 0.  1.
</event>
<event>
 7    1  0.2942034E-011  0.5052887E+02  0.7816164E-02  0.1300439E+00
        -11   -1    0    0    0    0  0.00000000000E+00  0.00000000000E+00  0.45593999997E+02  0.45594000000E+02  0.51100000000E-03 0.  1.
         11   -1    0    0    0    0 -0.00000000000E+00 -0.00000000000E+00 -0.45593999997E+02  0.45594000000E+02  0.51100000000E-03 0. -1.
    9900012    2    1    2    0    0  0.29473330144E+02 -0.18175951614E+02  0.21310146747E+02  0.50528871121E+02  0.30000034258E+02 0.  0.
         12    1    1    2    0    0 -0.29473330144E+02  0.18175951614E+02 -0.21310146747E+02  0.40659128879E+02  0.00000000000E+00 0. -1.
         11    1    3    3    0    0  0.96877506551E+01  0.46483970198E+01  0.30356892360E+01  0.11165819137E+02  0.51100000000E-03 0. -1.
        -11    1    3    3    0    0 -0.95877654940E+00 -0.10564785753E+02  0.38840233045E+01  0.11296883985E+02  0.51100000000E-03 0.  1.
        -12    1    3    3    0    0  0.20744356038E+02 -0.12259562881E+02  0.14390434206E+02  0.28066167999E+02  0.00000000000E+00 0.  1.
</event>
<event>
 7    1  0.2942034E-011  0.5052886E+02  0.7816164E-02  0.1300439E+00
        -11   -1    0    0    0    0  0.00000000000E+00  0.00000000000E+00  0.45593999997E+02  0.45594000000E+02  0.51100000000E-03 0.  1.
         11   -1    0    0    0    0 -0.00000000000E+00 -0.00000000000E+00 -0.45593999997E+02  0.45594000000E+02  0.51100000000E-03 0. -1.
    9900012    2    1    2    0    0 -0.41936537242E+01 -0.85969937992E+01  0.39517976576E+02  0.50528861954E+02  0.30000006397E+02 0.  0.
         12    1    1    2    0    0  0.41936537242E+01  0.85969937992E+01 -0.39517976576E+02  0.40659138046E+02  0.00000000000E+00 0. -1.
         11    1    3    3    0    0 -0.28408512429E+01  0.43580272113E+01  0.96836842147E+01  0.10992569181E+02  0.51100000000E-03 0. -1.
        -11    1    3    3    0    0  0.85380371879E+01 -0.24074819385E+01  0.35851654408E+01  0.95680436770E+01  0.51100000000E-03 0.  1.
        -12    1    3    3    0    0 -0.98908396691E+01 -0.10547539072E+02  0.26249126921E+02  0.29968249097E+02  0.00000000000E+00 0.  1.
</event>
<event>
 7    1  0.2942034E-011  0.5052886E+02  0.7816164E-02  0.1300439E+00
        -11   -1    0    0    0    0  0.00000000000E+00  0.00000000000E+00  0.45593999997E+02  0.45594000000E+02  0.51100000000E-03 0.  1.
         11   -1    0    0    0    0 -0.00000000000E+00 -0.00000000000E+00 -0.45593999997E+02  0.45594000000E+02  0.51100000000E-03 0. -1.
    9900012    2    1    2    0    0 -0.20525205044E+02  0.88772253341E+01  0.33956982679E+02  0.50528857800E+02  0.29999993770E+02 0.  0.
         12    1    1    2    0    0  0.20525205044E+02 -0.88772253341E+01 -0.33956982679E+02  0.40659142200E+02  0.00000000000E+00 0. -1.
         11    1    3    3    0    0 -0.88767353852E+01  0.48451651870E+01 -0.31716570327E+01  0.10598653942E+02  0.51100000000E-03 0. -1.
        -11    1    3    3    0    0 -0.39611223401E+01  0.95223716493E+00  0.24446773403E+02  0.24783905582E+02  0.51100000000E-03 0.  1.
        -12    1    3    3    0    0 -0.76873473191E+01  0.30798229822E+01  0.12681866308E+02  0.15146298276E+02  0.00000000000E+00 0.  1.
</event>
<event>
 7    1  0.2942034E-011  0.5052886E+02  0.7816164E-02  0.1300439E+00
        -11   -1    0    0    0    0  0.00000000000E+00  0.00000000000E+00  0.45593999997E+02  0.45594000000E+02  0.51100000000E-03 0.  1.
         11   -1    0    0    0    0 -0.00000000000E+00 -0.00000000000E+00 -0.45593999997E+02  0.45594000000E+02  0.51100000000E-03 0. -1.
    9900012    2    1    2    0    0  0.10004997141E+02  0.31024413839E+01  0.39286649254E+02  0.50528856872E+02  0.29999990947E+02 0.  0.
         12    1    1    2    0    0 -0.10004997141E+02 -0.31024413839E+01 -0.39286649254E+02  0.40659143128E+02  0.00000000000E+00 0. -1.
         11    1    3    3    0    0  0.76844260612E+01  0.16318430630E+00  0.37566922548E+02  0.38345152275E+02  0.51100000000E-03 0. -1.
        -11    1    3    3    0    0  0.59137017522E+01 -0.94514551669E+00  0.30599215645E+01  0.67251980419E+01  0.51100000000E-03 0.  1.
         12    1    3    3    0    0 -0.35931306720E+01  0.38844025943E+01 -0.13401948590E+01  0.54585065541E+01  0.00000000000E+00 0. -1.
</event>
<event>
 7    1  0.2942034E-011  0.5052886E+02  0.7816164E-02  0.1300439E+00
        -11   -1    0    0    0    0  0.00000000000E+00  0.00000000000E+00  0.45593999997E+02  0.45594000000E+02  0.51100000000E-03 0. -1.
         11   -1    0    0    0    0 -0.00000000000E+00 -0.00000000000E+00 -0.45593999997E+02  0.45594000000E+02  0.51100000000E-03 0.  1.
    9900012    2    1    2    0    0 -0.26483766006E+02 -0.28157872254E+02  0.12605949570E+02  0.50528860852E+02  0.30000003045E+02 0.  0.
         12    1    1    2    0    0  0.26483766006E+02  0.28157872254E+02 -0.12605949570E+02  0.40659139148E+02  0.00000000000E+00 0. -1.
         11    1    3    3    0    0 -0.21360832393E+02 -0.19353454065E+02  0.56190871900E+01  0.29366911412E+02  0.51100000000E-03 0. -1.
        -11    1    3    3    0    0 -0.75430429672E+01  0.27950311556E+01  0.37699087761E+01  0.88838003584E+01  0.51100000000E-03 0.  1.
         12    1    3    3    0    0  0.24201093541E+01 -0.11599449344E+02  0.32169536034E+01  0.12278149081E+02  0.00000000000E+00 0. -1.
</event>
<event>
 7    1  0.2942034E-011  0.5052886E+02  0.7816164E-02  0.1300439E+00
        -11   -1    0    0    0    0  0.00000000000E+00  0.00000000000E+00  0.45593999997E+02  0.45594000000E+02  0.51100000000E-03 0. -1.
         11   -1    0    0    0    0 -0.00000000000E+00 -0.00000000000E+00 -0.45593999997E+02  0.45594000000E+02  0.51100000000E-03 0.  1.
    9900012    2    1    2    0    0 -0.25477255060E+02  0.19772169817E+02 -0.24761589620E+02  0.50528861481E+02  0.30000004957E+02 0.  0.
         12    1    1    2    0    0  0.25477255060E+02 -0.19772169817E+02  0.24761589620E+02  0.40659138519E+02  0.00000000000E+00 0. -1.
         11    1    3    3    0    0 -0.36490334759E+01  0.91380805638E+01  0.50093877703E+01  0.11041464024E+02  0.51100000000E-03 0. -1.
        -11    1    3    3    0    0 -0.94476448190E+01  0.80998235655E+01 -0.19818185886E+02  0.23401402233E+02  0.51100000000E-03 0.  1.
         12    1    3    3    0    0 -0.12380576765E+02  0.25342656875E+01 -0.99527915042E+01  0.16085995224E+02  0.00000000000E+00 0. -1.
</event>
<event>
 7    1  0.2942034E-011  0.5052887E+02  0.7816164E-02  0.1300439E+00
        -11   -1    0    0    0    0  0.00000000000E+00  0.00000000000E+00  0.45593999997E+02  0.45594000000E+02  0.51100000000E-03 0. -1.
         11   -1    0    0    0    0 -0.00000000000E+00 -0.00000000000E+00 -0.45593999997E+02  0.45594000000E+02  0.51100000000E-03 0.  1.
    9900012    2    1    2    0    0 -0.24540296417E+02  0.25920166322E+02 -0.19470065773E+02  0.50528872715E+02  0.30000039104E+02 0.  0.
         12    1    1    2    0    0  0.24540296417E+02 -0.25920166322E+02  0.19470065773E+02  0.40659127285E+02  0.00000000000E+00 0. -1.
         11    1    3    3    0    0 -0.16216877066E+01 -0.10563235431E+01  0.22451683181E+01  0.29641982867E+01  0.51100000000E-03 0. -1.
        -11    1    3    3    0    0 -0.21271465418E+02  0.31202808024E+02 -0.18939675740E+02  0.42246914527E+02  0.51100000000E-03 0.  1.
        -12    1    3    3    0    0 -0.16471432928E+01 -0.42263181595E+01 -0.27755583502E+01  0.53177599013E+01  0.00000000000E+00 0.  1.
</event>
<event>
 7    1  0.2942034E-011  0.5052887E+02  0.7816164E-02  0.1300439E+00
        -11   -1    0    0    0    0  0.00000000000E+00  0.00000000000E+00  0.45593999997E+02  0.45594000000E+02  0.51100000000E-03 0. -1.
         11   -1    0    0    0    0 -0.00000000000E+00 -0.00000000000E+00 -0.45593999997E+02  0.45594000000E+02  0.51100000000E-03 0.  1.
    9900012    2    1    2    0    0  0.24719872704E+02 -0.20528623073E+02 -0.24913216491E+02  0.50528870303E+02  0.30000031774E+02 0.  0.
         12    1    1    2    0    0 -0.24719872704E+02  0.20528623073E+02  0.24913216491E+02  0.40659129697E+02  0.00000000000E+00 0. -1.
         11    1    3    3    0    0  0.19250396940E+02 -0.74555298514E+01 -0.22124552777E+02  0.30259850356E+02  0.51100000000E-03 0. -1.
        -11    1    3    3    0    0  0.83262600371E+01 -0.10642446989E+02  0.25433990952E+01  0.13749805938E+02  0.51100000000E-03 0.  1.
        -12    1    3    3    0    0 -0.28567842735E+01 -0.24306462325E+01 -0.53320628090E+01  0.65192140088E+01  0.00000000000E+00 0.  1.
</event>
<event>
 7    1  0.2942034E-011  0.5052886E+02  0.7816164E-02  0.1300439E+00
        -11   -1    0    0    0    0  0.00000000000E+00  0.00000000000E+00  0.45593999997E+02  0.45594000000E+02  0.51100000000E-03 0. -1.
         11   -1    0    0    0    0 -0.00000000000E+00 -0.00000000000E+00 -0.45593999997E+02  0.45594000000E+02  0.51100000000E-03 0.  1.
    9900012    2    1    2    0    0 -0.68546973596E+01 -0.25096329577E+02 -0.31246653745E+02  0.50528855833E+02  0.29999987789E+02 0.  0.
         12    1    1    2    0    0  0.68546973596E+01  0.25096329577E+02  0.31246653745E+02  0.40659144167E+02  0.00000000000E+00 0. -1.
         11    1    3    3    0    0  0.15404774293E+01 -0.73881264464E+01  0.36621008891E+01  0.83885914360E+01  0.51100000000E-03 0. -1.
        -11    1    3    3    0    0 -0.29049117734E+01 -0.30493175972E+01 -0.20289041469E+02  0.20721536000E+02  0.51100000000E-03 0.  1.
         12    1    3    3    0    0 -0.54902630156E+01 -0.14658885534E+02 -0.14619713166E+02  0.21418728396E+02  0.00000000000E+00 0. -1.
</event>
<event>
 7    1  0.2942034E-011  0.5052886E+02  0.7816164E-02  0.1300439E+00
        -11   -1    0    0    0    0  0.00000000000E+00  0.00000000000E+00  0.45593999997E+02  0.45594000000E+02  0.51100000000E-03 0.  1.
         11   -1    0    0    0    0 -0.00000000000E+00 -0.00000000000E+00 -0.45593999997E+02  0.45594000000E+02  0.51100000000E-03 0. -1.
    9900012    2    1    2    0    0 -0.38887839279E+02 -0.66289612407E+01  0.98467433560E+01  0.50528861720E+02  0.30000005684E+02 0.  0.
         12    1    1    2    0    0  0.38887839279E+02  0.66289612407E+01 -0.98467433560E+01  0.40659138280E+02  0.00000000000E+00 0. -1.
         11    1    3    3    0    0 -0.20601718418E+02  0.44435589520E+01  0.41130258609E+01  0.21473076163E+02  0.51100000000E-03 0. -1.
        -11    1    3    3    0    0 -0.38317985816E+01 -0.52479829661E+01 -0.65397932774E+01  0.92191595037E+01  0.51100000000E-03 0.  1.
        -12    1    3    3    0    0 -0.14454322280E+02 -0.58245372267E+01  0.12273510773E+02  0.19836626053E+02  0.00000000000E+00 0.  1.
</event>
<event>
 7    1  0.2942034E-011  0.5052886E+02  0.7816164E-02  0.1300439E+00
        -11   -1    0    0    0    0  0.00000000000E+00  0.00000000000E+00  0.45593999997E+02  0.45594000000E+02  0.51100000000E-03 0.  1.
         11   -1    0    0    0    0 -0.00000000000E+00 -0.00000000000E+00 -0.45593999997E+02  0.45594000000E+02  0.51100000000E-03 0. -1.
    9900012    2    1    2    0    0  0.20559478805E+02 -0.81844626077E+01  0.34109940293E+02  0.50528860514E+02  0.30000002019E+02 0.  0.
         12    1    1    2    0    0 -0.20559478805E+02  0.81844626077E+01 -0.34109940293E+02  0.40659139486E+02  0.00000000000E+00 0. -1.
         11    1    3    3    0    0  0.11676321676E+01 -0.11205739022E+02  0.78257166205E+01  0.13717645308E+02  0.51100000000E-03 0. -1.
        -11    1    3    3    0    0  0.21843555042E+02  0.16591292465E+01  0.25990515423E+02  0.33991182664E+02  0.51100000000E-03 0.  1.
        -12    1    3    3    0    0 -0.24517084037E+01  0.13621471677E+01  0.29370824954E+00  0.28200325422E+01  0.00000000000E+00 0.  1.
</event>
<event>
 7    1  0.2942034E-011  0.5052888E+02  0.7816164E-02  0.1300439E+00
        -11   -1    0    0    0    0  0.00000000000E+00  0.00000000000E+00  0.45593999997E+02  0.45594000000E+02  0.51100000000E-03 0.  1.
         11   -1    0    0    0    0 -0.00000000000E+00 -0.00000000000E+00 -0.45593999997E+02  0.45594000000E+02  0.51100000000E-03 0. -1.
    9900012    2    1    2    0    0  0.68006899641E+01 -0.29354908419E+01  0.39978718493E+02  0.50528875282E+02  0.30000046907E+02 0.  0.
         12    1    1    2    0    0 -0.68006899641E+01  0.29354908419E+01 -0.39978718493E+02  0.40659124718E+02  0.00000000000E+00 0. -1.
         11    1    3    3    0    0  0.27490488436E+01  0.86774383087E+01  0.72155020147E+01  0.11615449829E+02  0.51100000000E-03 0. -1.
        -11    1    3    3    0    0 -0.58996261636E+01 -0.86334540397E+01  0.14102251637E+02  0.17556070717E+02  0.51100000000E-03 0.  1.
         12    1    3    3    0    0  0.99512672841E+01 -0.29794751108E+01  0.18660964842E+02  0.21357354736E+02  0.00000000000E+00 0. -1.
</event>
<event>
 7    1  0.2942034E-011  0.5052886E+02  0.7816164E-02  0.1300439E+00
        -11   -1    0    0    0    0  0.00000000000E+00  0.00000000000E+00  0.45593999997E+02  0.45594000000E+02  0.51100000000E-03 0. -1.
         11   -1    0    0    0    0 -0.00000000000E+00 -0.00000000000E+00 -0.45593999997E+02  0.45594000000E+02  0.51100000000E-03 0.  1.
    9900012    2    1    2    0    0  0.39644708673E+02 -0.25077172796E+01  0.86702842940E+01  0.50528863247E+02  0.30000010326E+02 0.  0.
         12    1    1    2    0    0 -0.39644708673E+02  0.25077172796E+01 -0.86702842940E+01  0.40659136753E+02  0.00000000000E+00 0. -1.
         11    1    3    3    0    0  0.82469467751E+01  0.78412306402E+01  0.12154293275E+02  0.16650041272E+02  0.51100000000E-03 0. -1.
        -11    1    3    3    0    0  0.13508630850E+02 -0.35454592735E+01  0.16492709224E+01  0.14063196071E+02  0.51100000000E-03 0.  1.
         12    1    3    3    0    0  0.17889131048E+02 -0.68034886462E+01 -0.51332799035E+01  0.19815625905E+02  0.00000000000E+00 0. -1.
</event>
<event>
 7    1  0.2942034E-011  0.5052886E+02  0.7816164E-02  0.1300439E+00
        -11   -1    0    0    0    0  0.00000000000E+00  0.00000000000E+00  0.45593999997E+02  0.45594000000E+02  0.51100000000E-03 0. -1.
         11   -1    0    0    0    0 -0.00000000000E+00 -0.00000000000E+00 -0.45593999997E+02  0.45594000000E+02  0.51100000000E-03 0.  1.
    9900012    2    1    2    0    0  0.29270785220E+02 -0.58642770670E+01 -0.27604295476E+02  0.50528859064E+02  0.29999997611E+02 0.  0.
         12    1    1    2    0    0 -0.29270785220E+02  0.58642770670E+01  0.27604295476E+02  0.40659140936E+02  0.00000000000E+00 0. -1.
         11    1    3    3    0    0  0.13607232796E+02  0.22733235156E+01 -0.65743379772E+01  0.15282234924E+02  0.51100000000E-03 0. -1.
        -11    1    3    3    0    0 -0.17014332701E+00 -0.10425115568E+02 -0.24166394870E+01  0.10702902879E+02  0.51100000000E-03 0.  1.
        -12    1    3    3    0    0  0.15833695751E+02  0.22875149857E+01 -0.18613318011E+02  0.24543721261E+02  0.00000000000E+00 0.  1.
</event>
<event>
 7    1  0.2942034E-011  0.5052886E+02  0.7816164E-02  0.1300439E+00
        -11   -1    0    0    0    0  0.00000000000E+00  0.00000000000E+00  0.45593999997E+02  0.45594000000E+02  0.51100000000E-03 0.  1.
         11   -1    0    0    0    0 -0.00000000000E+00 -0.00000000000E+00 -0.45593999997E+02  0.45594000000E+02  0.51100000000E-03 0. -1.
    9900012    2    1    2    0    0  0.11661763164E+02  0.81397102544E+01  0.38090867184E+02  0.50528858765E+02  0.29999996702E+02 0.  0.
         12    1    1    2    0    0 -0.11661763164E+02 -0.81397102544E+01 -0.38090867184E+02  0.40659141235E+02  0.00000000000E+00 0. -1.
         11    1    3    3    0    0 -0.17502149716E+01 -0.16305480834E+01  0.13568939174E+02  0.13778172958E+02  0.51100000000E-03 0. -1.
        -11    1    3    3    0    0  0.17849949068E+02  0.14875353166E+01  0.17264571288E+02  0.24877678048E+02  0.51100000000E-03 0.  1.
        -12    1    3    3    0    0 -0.44379709323E+01  0.82827230212E+01  0.72573567224E+01  0.11873007759E+02  0.00000000000E+00 0.  1.
</event>
<event>
 7    1  0.2942034E-011  0.5052886E+02  0.7816164E-02  0.1300439E+00
        -11   -1    0    0    0    0  0.00000000000E+00  0.00000000000E+00  0.45593999997E+02  0.45594000000E+02  0.51100000000E-03 0. -1.
         11   -1    0    0    0    0 -0.00000000000E+00 -0.00000000000E+00 -0.45593999997E+02  0.45594000000E+02  0.51100000000E-03 0.  1.
    9900012    2    1    2    0    0  0.16992530649E+02  0.34309336243E+02 -0.13685348223E+02  0.50528863176E+02  0.30000010111E+02 0.  0.
         12    1    1    2    0    0 -0.16992530649E+02 -0.34309336243E+02  0.13685348223E+02  0.40659136824E+02  0.00000000000E+00 0. -1.
         11    1    3    3    0    0  0.19391244384E+02  0.18298931890E+02 -0.11919100137E+02  0.29205071741E+02  0.51100000000E-03 0. -1.
        -11    1    3    3    0    0 -0.28781583564E+01  0.11791693709E+02 -0.74404856217E+01  0.14236876855E+02  0.51100000000E-03 0.  1.
         12    1    3    3    0    0  0.47944462098E+00  0.42187106440E+01  0.56742375360E+01  0.70869145795E+01  0.00000000000E+00 0. -1.
</event>
<event>
 7    1  0.2942034E-011  0.5052886E+02  0.7816164E-02  0.1300439E+00
        -11   -1    0    0    0    0  0.00000000000E+00  0.00000000000E+00  0.45593999997E+02  0.45594000000E+02  0.51100000000E-03 0.  1.
         11   -1    0    0    0    0 -0.00000000000E+00 -0.00000000000E+00 -0.45593999997E+02  0.45594000000E+02  0.51100000000E-03 0. -1.
    9900012    2    1    2    0    0  0.30984484804E+02 -0.12434488803E+02  0.23205831626E+02  0.50528862874E+02  0.30000009191E+02 0.  0.
         12    1    1    2    0    0 -0.30984484804E+02  0.12434488803E+02 -0.23205831626E+02  0.40659137126E+02  0.00000000000E+00 0. -1.
         11    1    3    3    0    0  0.15118653791E+02  0.65244532404E+01  0.43133767054E+01  0.17021968200E+02  0.51100000000E-03 0. -1.
        -11    1    3    3    0    0  0.17292849108E+02 -0.13625628015E+02  0.16381284910E+02  0.27441699376E+02  0.51100000000E-03 0.  1.
         12    1    3    3    0    0 -0.14270180954E+01 -0.53333140285E+01  0.25111700112E+01  0.60651952975E+01  0.00000000000E+00 0. -1.
</event>
<event>
 7    1  0.2942034E-011  0.5052885E+02  0.7816164E-02  0.1300439E+00
        -11   -1    0    0    0    0  0.00000000000E+00  0.00000000000E+00  0.45593999997E+02  0.45594000000E+02  0.51100000000E-03 0.  1.
         11   -1    0    0    0    0 -0.00000000000E+00 -0.00000000000E+00 -0.45593999997E+02  0.45594000000E+02  0.51100000000E-03 0. -1.
    9900012    2    1    2    0    0  0.36102126088E+02 -0.93239772191E+01  0.16213152388E+02  0.50528851342E+02  0.29999974140E+02 0.  0.
         12    1    1    2    0    0 -0.36102126088E+02  0.93239772191E+01 -0.16213152388E+02  0.40659148658E+02  0.00000000000E+00 0. -1.
         11    1    3    3    0    0 -0.95798437498E+00  0.39338635323E+01 -0.35311321138E+01  0.53723282309E+01  0.51100000000E-03 0. -1.
        -11    1    3    3    0    0  0.12615812025E+02  0.25985620215E+00  0.50205580772E+01  0.13580583270E+02  0.51100000000E-03 0.  1.
         12    1    3    3    0    0  0.24444298438E+02 -0.13517696954E+02  0.14723726424E+02  0.31575939841E+02  0.00000000000E+00 0. -1.
</event>
<event>
 7    1  0.2942034E-011  0.5052887E+02  0.7816164E-02  0.1300439E+00
        -11   -1    0    0    0    0  0.00000000000E+00  0.00000000000E+00  0.45593999997E+02  0.45594000000E+02  0.51100000000E-03 0.  1.
         11   -1    0    0    0    0 -0.00000000000E+00 -0.00000000000E+00 -0.45593999997E+02  0.45594000000E+02  0.51100000000E-03 0. -1.
    9900012    2    1    2    0    0 -0.29766121175E+02  0.45535517985E+01  0.27320471283E+02  0.50528868739E+02  0.30000027018E+02 0.  0.
         12    1    1    2    0    0  0.29766121175E+02 -0.45535517985E+01 -0.27320471283E+02  0.40659131261E+02  0.00000000000E+00 0. -1.
         11    1    3    3    0    0 -0.75721049746E+01  0.70777242236E+01  0.16438228033E+02  0.19433123657E+02  0.51100000000E-03 0. -1.
        -11    1    3    3    0    0 -0.12240532177E+02 -0.51620458365E+00 -0.41675548338E+01  0.12940850386E+02  0.51100000000E-03 0.  1.
        -12    1    3    3    0    0 -0.99534840236E+01 -0.20079678414E+01  0.15049798084E+02  0.18154894696E+02  0.00000000000E+00 0.  1.
</event>
<event>
 7    1  0.2942034E-011  0.5052885E+02  0.7816164E-02  0.1300439E+00
        -11   -1    0    0    0    0  0.00000000000E+00  0.00000000000E+00  0.45593999997E+02  0.45594000000E+02  0.51100000000E-03 0.  1.
         11   -1    0    0    0    0 -0.00000000000E+00 -0.00000000000E+00 -0.45593999997E+02  0.45594000000E+02  0.51100000000E-03 0. -1.
    9900012    2    1    2    0    0 -0.13783268032E+02 -0.34705274970E+02  0.16085132964E+02  0.50528854770E+02  0.29999984559E+02 0.  0.
         12    1    1    2    0    0  0.13783268032E+02  0.34705274970E+02 -0.16085132964E+02  0.40659145230E+02  0.00000000000E+00 0. -1.
         11    1    3    3    0    0 -0.11974153216E+01  0.27220577960E+01  0.28299381143E+01  0.41051129204E+01  0.51100000000E-03 0.  1.
        -11    1    3    3    0    0  0.31185008254E+01 -0.16849006582E+02 -0.43435529866E+00  0.17140674870E+02  0.51100000000E-03 0. -1.
        -12    1    3    3    0    0 -0.15704353535E+02 -0.20578326183E+02  0.13689550149E+02  0.29283066980E+02  0.00000000000E+00 0.  1.
</event>
<event>
 7    1  0.2942034E-011  0.5052886E+02  0.7816164E-02  0.1300439E+00
        -11   -1    0    0    0    0  0.00000000000E+00  0.00000000000E+00  0.45593999997E+02  0.45594000000E+02  0.51100000000E-03 0.  1.
         11   -1    0    0    0    0 -0.00000000000E+00 -0.00000000000E+00 -0.45593999997E+02  0.45594000000E+02  0.51100000000E-03 0. -1.
    9900012    2    1    2    0    0  0.76752565867E+01  0.15377581455E+02  0.36848145855E+02  0.50528862921E+02  0.30000009335E+02 0.  0.
         12    1    1    2    0    0 -0.76752565867E+01 -0.15377581455E+02 -0.36848145855E+02  0.40659137079E+02  0.00000000000E+00 0. -1.
         11    1    3    3    0    0  0.11881753652E+02  0.12610013317E+02  0.89109778098E+01  0.19483173034E+02  0.51100000000E-03 0. -1.
        -11    1    3    3    0    0  0.63039060714E+00 -0.12255536578E+01  0.23058116061E+02  0.23099266019E+02  0.51100000000E-03 0.  1.
         12    1    3    3    0    0 -0.48368876721E+01  0.39931217952E+01  0.48790519842E+01  0.79464238679E+01  0.00000000000E+00 0. -1.
</event>
<event>
 7    1  0.2942034E-011  0.5052886E+02  0.7816164E-02  0.1300439E+00
        -11   -1    0    0    0    0  0.00000000000E+00  0.00000000000E+00  0.45593999997E+02  0.45594000000E+02  0.51100000000E-03 0.  1.
         11   -1    0    0    0    0 -0.00000000000E+00 -0.00000000000E+00 -0.45593999997E+02  0.45594000000E+02  0.51100000000E-03 0. -1.
    9900012    2    1    2    0    0 -0.25819481427E+02 -0.52095086929E+01  0.30973874085E+02  0.50528862309E+02  0.30000007473E+02 0.  0.
         12    1    1    2    0    0  0.25819481427E+02  0.52095086929E+01 -0.30973874085E+02  0.40659137691E+02  0.00000000000E+00 0. -1.
         11    1    3    3    0    0 -0.16472249219E+02 -0.11460314581E+01  0.10497668249E+02  0.19566538308E+02  0.51100000000E-03 0. -1.
        -11    1    3    3    0    0  0.28874620608E+01 -0.42713286040E+01 -0.18706608516E+01  0.54846200852E+01  0.51100000000E-03 0.  1.
        -12    1    3    3    0    0 -0.12234694269E+02  0.20785136925E+00  0.22346866687E+02  0.25477703915E+02  0.00000000000E+00 0.  1.
</event>
<event>
 7    1  0.2942034E-011  0.5052886E+02  0.7816164E-02  0.1300439E+00
        -11   -1    0    0    0    0  0.00000000000E+00  0.00000000000E+00  0.45593999997E+02  0.45594000000E+02  0.51100000000E-03 0.  1.
         11   -1    0    0    0    0 -0.00000000000E+00 -0.00000000000E+00 -0.45593999997E+02  0.45594000000E+02  0.51100000000E-03 0. -1.
    9900012    2    1    2    0    0  0.18603872979E+02  0.13617903070E+02  0.33490513779E+02  0.50528857277E+02  0.29999992178E+02 0.  0.
         12    1    1    2    0    0 -0.18603872979E+02 -0.13617903070E+02 -0.33490513779E+02  0.40659142723E+02  0.00000000000E+00 0. -1.
         11    1    3    3    0    0 -0.62566268257E+00 -0.14032006035E+01 -0.46922176894E+01  0.49373406640E+01  0.51100000000E-03 0. -1.
        -11    1    3    3    0    0  0.95093414584E+01  0.73023715620E+01  0.23368510689E+02  0.26264795782E+02  0.51100000000E-03 0.  1.
         12    1    3    3    0    0  0.97201942028E+01  0.77187321119E+01  0.14814220779E+02  0.19326720830E+02  0.00000000000E+00 0. -1.
</event>
<event>
 7    1  0.2942034E-011  0.5052887E+02  0.7816164E-02  0.1300439E+00
        -11   -1    0    0    0    0  0.00000000000E+00  0.00000000000E+00  0.45593999997E+02  0.45594000000E+02  0.51100000000E-03 0.  1.
         11   -1    0    0    0    0 -0.00000000000E+00 -0.00000000000E+00 -0.45593999997E+02  0.45594000000E+02  0.51100000000E-03 0. -1.
    9900012    2    1    2    0    0  0.12533685062E+02 -0.17945578520E+02  0.34264084744E+02  0.50528873681E+02  0.30000042041E+02 0.  0.
         12    1    1    2    0    0 -0.12533685062E+02  0.17945578520E+02 -0.34264084744E+02  0.40659126319E+02  0.00000000000E+00 0. -1.
         11    1    3    3    0    0  0.97929603984E+01 -0.12455800712E+02  0.40227829875E+01  0.16347226920E+02  0.51100000000E-03 0. -1.
        -11    1    3    3    0    0 -0.24805953704E+01  0.40756408269E+01  0.65437761424E+01  0.80984694853E+01  0.51100000000E-03 0.  1.
        -12    1    3    3    0    0  0.52213200340E+01 -0.95654186351E+01  0.23697525614E+02  0.26083177276E+02  0.00000000000E+00 0.  1.
</event>
<event>
 7    1  0.2942034E-011  0.5052886E+02  0.7816164E-02  0.1300439E+00
        -11   -1    0    0    0    0  0.00000000000E+00  0.00000000000E+00  0.45593999997E+02  0.45594000000E+02  0.51100000000E-03 0.  1.
         11   -1    0    0    0    0 -0.00000000000E+00 -0.00000000000E+00 -0.45593999997E+02  0.45594000000E+02  0.51100000000E-03 0. -1.
    9900012    2    1    2    0    0  0.26251362501E+02  0.76659668582E+01  0.30087608893E+02  0.50528864619E+02  0.30000014495E+02 0.  0.
         12    1    1    2    0    0 -0.26251362501E+02 -0.76659668582E+01 -0.30087608893E+02  0.40659135381E+02  0.00000000000E+00 0. -1.
         11    1    3    3    0    0  0.28486774484E+01  0.14505014168E+02  0.11046517436E+02  0.18453616094E+02  0.51100000000E-03 0. -1.
        -11    1    3    3    0    0  0.79902342114E+01  0.16386736999E+01  0.49891247622E+01  0.95614047296E+01  0.51100000000E-03 0.  1.
         12    1    3    3    0    0  0.15412450841E+02 -0.84777210094E+01  0.14051966695E+02  0.22513843796E+02  0.00000000000E+00 0. -1.
</event>
<event>
 7    1  0.2942034E-011  0.5052886E+02  0.7816164E-02  0.1300439E+00
        -11   -1    0    0    0    0  0.00000000000E+00  0.00000000000E+00  0.45593999997E+02  0.45594000000E+02  0.51100000000E-03 0.  1.
         11   -1    0    0    0    0 -0.00000000000E+00 -0.00000000000E+00 -0.45593999997E+02  0.45594000000E+02  0.51100000000E-03 0. -1.
    9900012    2    1    2    0    0 -0.16032925939E+02  0.27949746604E+02  0.24797632163E+02  0.50528860679E+02  0.30000002519E+02 0.  0.
         12    1    1    2    0    0  0.16032925939E+02 -0.27949746604E+02 -0.24797632163E+02  0.40659139321E+02  0.00000000000E+00 0. -1.
         11    1    3    3    0    0  0.29973692744E+01 -0.10172387198E+01  0.27167992285E+01  0.41713301822E+01  0.51100000000E-03 0. -1.
        -11    1    3    3    0    0 -0.18204448268E+02  0.28045415348E+02  0.25931442915E+02  0.42312964807E+02  0.51100000000E-03 0.  1.
        -12    1    3    3    0    0 -0.82584694526E+00  0.92156997597E+00 -0.38506099804E+01  0.40445656897E+01  0.00000000000E+00 0.  1.
</event>
<event>
 7    1  0.2942034E-011  0.5052886E+02  0.7816164E-02  0.1300439E+00
        -11   -1    0    0    0    0  0.00000000000E+00  0.00000000000E+00  0.45593999997E+02  0.45594000000E+02  0.51100000000E-03 0. -1.
         11   -1    0    0    0    0 -0.00000000000E+00 -0.00000000000E+00 -0.45593999997E+02  0.45594000000E+02  0.51100000000E-03 0.  1.
    9900012    2    1    2    0    0  0.69387713489E+01 -0.38807160960E+02 -0.99510373082E+01  0.50528862858E+02  0.30000009144E+02 0.  0.
         12    1    1    2    0    0 -0.69387713489E+01  0.38807160960E+02  0.99510373082E+01  0.40659137142E+02  0.00000000000E+00 0. -1.
         11    1    3    3    0    0  0.92804567655E+01 -0.13010385336E+02  0.27482823560E+01  0.16215734967E+02  0.51100000000E-03 0. -1.
        -11    1    3    3    0    0  0.61240268241E-01 -0.15838906583E+02 -0.16971415603E+02  0.23214298610E+02  0.51100000000E-03 0.  1.
         12    1    3    3    0    0 -0.24029256848E+01 -0.99578690415E+01  0.42720959393E+01  0.11098829281E+02  0.00000000000E+00 0. -1.
</event>
<event>
 7    1  0.2942034E-011  0.5052886E+02  0.7816164E-02  0.1300439E+00
        -11   -1    0    0    0    0  0.00000000000E+00  0.00000000000E+00  0.45593999997E+02  0.45594000000E+02  0.51100000000E-03 0.  1.
         11   -1    0    0    0    0 -0.00000000000E+00 -0.00000000000E+00 -0.45593999997E+02  0.45594000000E+02  0.51100000000E-03 0. -1.
    9900012    2    1    2    0    0 -0.20063976718E+02  0.32421430531E+02  0.14122785809E+02  0.50528863285E+02  0.30000010441E+02 0.  0.
         12    1    1    2    0    0  0.20063976718E+02 -0.32421430531E+02 -0.14122785809E+02  0.40659136715E+02  0.00000000000E+00 0. -1.
         11    1    3    3    0    0 -0.10088592754E+02  0.23523097725E+02  0.17390025181E+02  0.30943962357E+02  0.51100000000E-03 0. -1.
        -11    1    3    3    0    0 -0.11731386967E+02  0.20187537442E+01 -0.37166595028E+01  0.12470539883E+02  0.51100000000E-03 0.  1.
         12    1    3    3    0    0  0.17560030029E+01  0.68795790618E+01  0.44942013122E+00  0.71143610443E+01  0.00000000000E+00 0. -1.
</event>
<event>
 7    1  0.2942034E-011  0.5052879E+02  0.7816164E-02  0.1300439E+00
        -11   -1    0    0    0    0  0.00000000000E+00  0.00000000000E+00  0.45593999997E+02  0.45594000000E+02  0.51100000000E-03 0.  1.
         11   -1    0    0    0    0 -0.00000000000E+00 -0.00000000000E+00 -0.45593999997E+02  0.45594000000E+02  0.51100000000E-03 0. -1.
    9900012    2    1    2    0    0 -0.18303319854E+02  0.36265694562E+02  0.17203556236E+01  0.50528785261E+02  0.29999773278E+02 0.  0.
         12    1    1    2    0    0  0.18303319854E+02 -0.36265694562E+02 -0.17203556236E+01  0.40659214739E+02  0.00000000000E+00 0. -1.
         11    1    3    3    0    0 -0.25403918171E+01 -0.15956108024E+01 -0.66416596524E+01  0.72877436574E+01  0.51100000000E-03 0. -1.
        -11    1    3    3    0    0 -0.16621733499E+02  0.28663610864E+02  0.56424141842E+01  0.33611329196E+02  0.51100000000E-03 0.  1.
        -12    1    3    3    0    0  0.85880546206E+00  0.91976945007E+01  0.27196010917E+01  0.96297124073E+01  0.00000000000E+00 0.  1.
</event>
<event>
 7    1  0.2942034E-011  0.5052882E+02  0.7816164E-02  0.1300439E+00
        -11   -1    0    0    0    0  0.00000000000E+00  0.00000000000E+00  0.45593999997E+02  0.45594000000E+02  0.51100000000E-03 0. -1.
         11   -1    0    0    0    0 -0.00000000000E+00 -0.00000000000E+00 -0.45593999997E+02  0.45594000000E+02  0.51100000000E-03 0.  1.
    9900012    2    1    2    0    0 -0.19733471581E+01 -0.40567700798E+02  0.18806029208E+01  0.50528817588E+02  0.29999871541E+02 0.  0.
         12    1    1    2    0    0  0.19733471581E+01  0.40567700798E+02 -0.18806029208E+01  0.40659182412E+02  0.00000000000E+00 0. -1.
         11    1    3    3    0    0  0.39987087089E+01  0.35856052922E+01  0.15090389111E+01  0.55788381717E+01  0.51100000000E-03 0. -1.
        -11    1    3    3    0    0 -0.26542053710E+01 -0.12464396937E+02  0.26134509149E+01  0.13009078488E+02  0.51100000000E-03 0.  1.
         12    1    3    3    0    0 -0.33178504960E+01 -0.31688909153E+02 -0.22418869052E+01  0.31940900929E+02  0.00000000000E+00 0. -1.
</event>
<event>
 7    1  0.2942034E-011  0.5052885E+02  0.7816164E-02  0.1300439E+00
        -11   -1    0    0    0    0  0.00000000000E+00  0.00000000000E+00  0.45593999997E+02  0.45594000000E+02  0.51100000000E-03 0. -1.
         11   -1    0    0    0    0 -0.00000000000E+00 -0.00000000000E+00 -0.45593999997E+02  0.45594000000E+02  0.51100000000E-03 0.  1.
    9900012    2    1    2    0    0 -0.21796322735E+02 -0.28865141165E+02 -0.18571218108E+02  0.50528853412E+02  0.29999980431E+02 0.  0.
         12    1    1    2    0    0  0.21796322735E+02  0.28865141165E+02  0.18571218108E+02  0.40659146588E+02  0.00000000000E+00 0. -1.
         11    1    3    3    0    0  0.58603597555E+00 -0.53791151562E+01  0.26152696852E+01  0.60098214462E+01  0.51100000000E-03 0. -1.
        -11    1    3    3    0    0 -0.22532088668E+02 -0.10132535728E+02 -0.18580638262E+02  0.30912835822E+02  0.51100000000E-03 0.  1.
        -12    1    3    3    0    0  0.14972995721E+00 -0.13353490281E+02 -0.26058495306E+01  0.13606196144E+02  0.00000000000E+00 0.  1.
</event>
<event>
 7    1  0.2942034E-011  0.5052886E+02  0.7816164E-02  0.1300439E+00
        -11   -1    0    0    0    0  0.00000000000E+00  0.00000000000E+00  0.45593999997E+02  0.45594000000E+02  0.51100000000E-03 0.  1.
         11   -1    0    0    0    0 -0.00000000000E+00 -0.00000000000E+00 -0.45593999997E+02  0.45594000000E+02  0.51100000000E-03 0. -1.
    9900012    2    1    2    0    0  0.14997355691E+01  0.38345240313E+02  0.13437233522E+02  0.50528857041E+02  0.29999991461E+02 0.  0.
         12    1    1    2    0    0 -0.14997355691E+01 -0.38345240313E+02 -0.13437233522E+02  0.40659142959E+02  0.00000000000E+00 0. -1.
         11    1    3    3    0    0  0.28469402653E+01  0.36020272032E+02  0.80347992920E+01  0.37015173457E+02  0.51100000000E-03 0. -1.
        -11    1    3    3    0    0  0.35173683353E+01  0.90158254866E+00  0.72584386705E+01  0.81160127706E+01  0.51100000000E-03 0.  1.
         12    1    3    3    0    0 -0.48645730316E+01  0.14233857332E+01 -0.18560044410E+01  0.53976708134E+01  0.00000000000E+00 0. -1.
</event>
<event>
 7    1  0.2942034E-011  0.5052879E+02  0.7816164E-02  0.1300439E+00
        -11   -1    0    0    0    0  0.00000000000E+00  0.00000000000E+00  0.45593999997E+02  0.45594000000E+02  0.51100000000E-03 0.  1.
         11   -1    0    0    0    0 -0.00000000000E+00 -0.00000000000E+00 -0.45593999997E+02  0.45594000000E+02  0.51100000000E-03 0. -1.
    9900012    2    1    2    0    0 -0.29775620630E+02  0.82553011552E+01  0.26427896979E+02  0.50528790468E+02  0.29999789105E+02 0.  0.
         12    1    1    2    0    0  0.29775620630E+02 -0.82553011552E+01 -0.26427896979E+02  0.40659209532E+02  0.00000000000E+00 0. -1.
         11    1    3    3    0    0 -0.25233831417E+01 -0.95883704571E+01  0.91949867174E+01  0.13522281298E+02  0.51100000000E-03 0. -1.
        -11    1    3    3    0    0 -0.12910042196E+02  0.71142496300E+01  0.92030237814E+01  0.17377496491E+02  0.51100000000E-03 0.  1.
         12    1    3    3    0    0 -0.14342195293E+02  0.10729421982E+02  0.80298864798E+01  0.19629012679E+02  0.00000000000E+00 0. -1.
</event>
<event>
 7    1  0.2942034E-011  0.5052886E+02  0.7816164E-02  0.1300439E+00
        -11   -1    0    0    0    0  0.00000000000E+00  0.00000000000E+00  0.45593999997E+02  0.45594000000E+02  0.51100000000E-03 0.  1.
         11   -1    0    0    0    0 -0.00000000000E+00 -0.00000000000E+00 -0.45593999997E+02  0.45594000000E+02  0.51100000000E-03 0. -1.
    9900012    2    1    2    0    0  0.27712247229E+02  0.26133814424E+02  0.14220446954E+02  0.50528855710E+02  0.29999987416E+02 0.  0.
         12    1    1    2    0    0 -0.27712247229E+02 -0.26133814424E+02 -0.14220446954E+02  0.40659144290E+02  0.00000000000E+00 0. -1.
         11    1    3    3    0    0 -0.97752706198E+00  0.88158477527E+01  0.95865453071E+01  0.13060497002E+02  0.51100000000E-03 0. -1.
        -11    1    3    3    0    0  0.29794392538E+02  0.12782552493E+02  0.49188117459E+01  0.32791678581E+02  0.51100000000E-03 0.  1.
        -12    1    3    3    0    0 -0.11046182467E+01  0.45354141785E+01 -0.28491009870E+00  0.46766801265E+01  0.00000000000E+00 0.  1.
</event>
<event>
 7    1  0.2942034E-011  0.5052886E+02  0.7816164E-02  0.1300439E+00
        -11   -1    0    0    0    0  0.00000000000E+00  0.00000000000E+00  0.45593999997E+02  0.45594000000E+02  0.51100000000E-03 0.  1.
         11   -1    0    0    0    0 -0.00000000000E+00 -0.00000000000E+00 -0.45593999997E+02  0.45594000000E+02  0.51100000000E-03 0. -1.
    9900012    2    1    2    0    0  0.39585220282E+02 -0.82966302804E+01 -0.41643289643E+01  0.50528863579E+02  0.30000011334E+02 0.  0.
         12    1    1    2    0    0 -0.39585220282E+02  0.82966302804E+01  0.41643289643E+01  0.40659136421E+02  0.00000000000E+00 0. -1.
         11    1    3    3    0    0  0.50246360627E+01 -0.39098330603E+01 -0.10664056501E+02  0.12419978399E+02  0.51100000000E-03 0. -1.
        -11    1    3    3    0    0  0.31733639260E+02 -0.18628326380E+01  0.14846129943E+01  0.31822917562E+02  0.51100000000E-03 0.  1.
        -12    1    3    3    0    0  0.28269449593E+01 -0.25239645821E+01  0.50151145427E+01  0.62859676177E+01  0.00000000000E+00 0.  1.
</event>
<event>
 7    1  0.2942034E-011  0.5052886E+02  0.7816164E-02  0.1300439E+00
        -11   -1    0    0    0    0  0.00000000000E+00  0.00000000000E+00  0.45593999997E+02  0.45594000000E+02  0.51100000000E-03 0.  1.
         11   -1    0    0    0    0 -0.00000000000E+00 -0.00000000000E+00 -0.45593999997E+02  0.45594000000E+02  0.51100000000E-03 0. -1.
    9900012    2    1    2    0    0  0.10717568687E+02 -0.10566781057E+02  0.37770918748E+02  0.50528862730E+02  0.30000008754E+02 0.  0.
         12    1    1    2    0    0 -0.10717568687E+02  0.10566781057E+02 -0.37770918748E+02  0.40659137270E+02  0.00000000000E+00 0. -1.
         11    1    3    3    0    0 -0.21296546168E+01  0.44662759726E+01  0.12002234348E+02  0.12982167749E+02  0.51100000000E-03 0. -1.
        -11    1    3    3    0    0  0.62706859963E+01 -0.18651807709E+02  0.20200209547E+02  0.28200352829E+02  0.51100000000E-03 0.  1.
        -12    1    3    3    0    0  0.65765373078E+01  0.36187506791E+01  0.55684748524E+01  0.93463421519E+01  0.00000000000E+00 0.  1.
</event>
<event>
 7    1  0.2942034E-011  0.5052886E+02  0.7816164E-02  0.1300439E+00
        -11   -1    0    0    0    0  0.00000000000E+00  0.00000000000E+00  0.45593999997E+02  0.45594000000E+02  0.51100000000E-03 0. -1.
         11   -1    0    0    0    0 -0.00000000000E+00 -0.00000000000E+00 -0.45593999997E+02  0.45594000000E+02  0.51100000000E-03 0.  1.
    9900012    2    1    2    0    0  0.32613155912E+02 -0.10507841265E+02 -0.21889102909E+02  0.50528862125E+02  0.30000006915E+02 0.  0.
         12    1    1    2    0    0 -0.32613155912E+02  0.10507841265E+02  0.21889102909E+02  0.40659137875E+02  0.00000000000E+00 0. -1.
         11    1    3    3    0    0  0.23829649519E+02 -0.16534418228E+02 -0.35182161661E+01  0.29216725134E+02  0.51100000000E-03 0. -1.
        -11    1    3    3    0    0  0.39061328815E+01  0.35339909947E+01 -0.78991524158E+01  0.94943970629E+01  0.51100000000E-03 0.  1.
         12    1    3    3    0    0  0.48773735114E+01  0.24925859677E+01 -0.10471734327E+02  0.11817739928E+02  0.00000000000E+00 0. -1.
</event>
<event>
 7    1  0.2942034E-011  0.5052886E+02  0.7816164E-02  0.1300439E+00
        -11   -1    0    0    0    0  0.00000000000E+00  0.00000000000E+00  0.45593999997E+02  0.45594000000E+02  0.51100000000E-03 0.  1.
         11   -1    0    0    0    0 -0.00000000000E+00 -0.00000000000E+00 -0.45593999997E+02  0.45594000000E+02  0.51100000000E-03 0. -1.
    9900012    2    1    2    0    0 -0.11791131665E+02 -0.27049521447E+02 -0.27972453261E+02  0.50528861570E+02  0.30000005228E+02 0.  0.
         12    1    1    2    0    0  0.11791131665E+02  0.27049521447E+02  0.27972453261E+02  0.40659138430E+02  0.00000000000E+00 0. -1.
         11    1    3    3    0    0  0.21247756830E+01 -0.11420765059E+02 -0.11018694501E+02  0.16011251513E+02  0.51100000000E-03 0. -1.
        -11    1    3    3    0    0 -0.10403879063E+02 -0.34317246126E+01  0.25494187095E+01  0.11247976236E+02  0.51100000000E-03 0.  1.
        -12    1    3    3    0    0 -0.35120282846E+01 -0.12197031775E+02 -0.19503177469E+02  0.23269633822E+02  0.00000000000E+00 0.  1.
</event>
<event>
 7    1  0.3177532E-011  0.5052886E+02  0.7816164E-02  0.1300439E+00
        -11   -1    0    0    0    0  0.00000000000E+00  0.00000000000E+00  0.45593999997E+02  0.45594000000E+02  0.51100000000E-03 0. -1.
         11   -1    0    0    0    0 -0.00000000000E+00 -0.00000000000E+00 -0.45593999997E+02  0.45594000000E+02  0.51100000000E-03 0.  1.
    9900012    2    1    2    0    0  0.31135946026E+02  0.52527128718E+01 -0.25614987848E+02  0.50528859208E+02  0.29999998049E+02 0.  0.
         12    1    1    2    0    0 -0.31135946026E+02 -0.52527128718E+01  0.25614987848E+02  0.40659140792E+02  0.00000000000E+00 0. -1.
         11    1    3    3    0    0 -0.25824969848E+01  0.98869247525E+00  0.33456813485E+01  0.43405515127E+01  0.51100000000E-03 0. -1.
        -11    1    3    3    0    0  0.14328436490E+02  0.19782653774E+01 -0.20059888104E+02  0.24730886300E+02  0.51100000000E-03 0.  1.
         12    1    3    3    0    0  0.19390006521E+02  0.22857550192E+01 -0.89007810925E+01  0.21457421395E+02  0.00000000000E+00 0. -1.
</event>
<event>
 7    1  0.2942034E-011  0.5052887E+02  0.7816164E-02  0.1300439E+00
        -11   -1    0    0    0    0  0.00000000000E+00  0.00000000000E+00  0.45593999997E+02  0.45594000000E+02  0.51100000000E-03 0.  1.
         11   -1    0    0    0    0 -0.00000000000E+00 -0.00000000000E+00 -0.45593999997E+02  0.45594000000E+02  0.51100000000E-03 0. -1.
    9900012    2    1    2    0    0 -0.29195992330E+02 -0.13717924200E+02  0.24750308553E+02  0.50528865898E+02  0.30000018382E+02 0.  0.
         12    1    1    2    0    0  0.29195992330E+02  0.13717924200E+02 -0.24750308553E+02  0.40659134102E+02  0.00000000000E+00 0. -1.
         11    1    3    3    0    0 -0.16427323273E+01 -0.13221537078E+02  0.16315482367E+02  0.21064248796E+02  0.51100000000E-03 0. -1.
        -11    1    3    3    0    0 -0.82689081850E+01 -0.25446874298E+01  0.41892509904E+01  0.96124971162E+01  0.51100000000E-03 0.  1.
         12    1    3    3    0    0 -0.19284351818E+02  0.20483003071E+01  0.42455751948E+01  0.19852119985E+02  0.00000000000E+00 0. -1.
</event>
<event>
 7    1  0.2942034E-011  0.5052883E+02  0.7816164E-02  0.1300439E+00
        -11   -1    0    0    0    0  0.00000000000E+00  0.00000000000E+00  0.45593999997E+02  0.45594000000E+02  0.51100000000E-03 0.  1.
         11   -1    0    0    0    0 -0.00000000000E+00 -0.00000000000E+00 -0.45593999997E+02  0.45594000000E+02  0.51100000000E-03 0. -1.
    9900012    2    1    2    0    0  0.73304756072E+01  0.34391944115E+02 -0.20411433334E+02  0.50528827561E+02  0.29999901856E+02 0.  0.
         12    1    1    2    0    0 -0.73304756072E+01 -0.34391944115E+02  0.20411433334E+02  0.40659172439E+02  0.00000000000E+00 0. -1.
         11    1    3    3    0    0  0.59770652835E+01  0.21248271819E+01 -0.13837421869E+02  0.15222169497E+02  0.51100000000E-03 0. -1.
        -11    1    3    3    0    0  0.26794674756E+01  0.31651219334E+02 -0.85061689290E+01  0.32883645500E+02  0.51100000000E-03 0.  1.
        -12    1    3    3    0    0 -0.13260571519E+01  0.61589759892E+00  0.19321574635E+01  0.24230125641E+01  0.00000000000E+00 0.  1.
</event>
<event>
 7    1  0.2942034E-011  0.5052886E+02  0.7816164E-02  0.1300439E+00
        -11   -1    0    0    0    0  0.00000000000E+00  0.00000000000E+00  0.45593999997E+02  0.45594000000E+02  0.51100000000E-03 0.  1.
         11   -1    0    0    0    0 -0.00000000000E+00 -0.00000000000E+00 -0.45593999997E+02  0.45594000000E+02  0.51100000000E-03 0. -1.
    9900012    2    1    2    0    0 -0.22012197083E+02  0.75416441314E+01  0.33342949845E+02  0.50528861777E+02  0.30000005858E+02 0.  0.
         12    1    1    2    0    0  0.22012197083E+02 -0.75416441314E+01 -0.33342949845E+02  0.40659138223E+02  0.00000000000E+00 0. -1.
         11    1    3    3    0    0  0.30896248790E+01 -0.64188103291E+01  0.27602082206E+01  0.76397419862E+01  0.51100000000E-03 0. -1.
        -11    1    3    3    0    0 -0.31920958094E+01  0.45806508542E+01  0.26791875114E+01  0.61927283072E+01  0.51100000000E-03 0.  1.
         12    1    3    3    0    0 -0.21909726153E+02  0.93798036064E+01  0.27903554113E+02  0.36696391484E+02  0.00000000000E+00 0. -1.
</event>
<event>
 7    1  0.2942034E-011  0.5052888E+02  0.7816164E-02  0.1300439E+00
        -11   -1    0    0    0    0  0.00000000000E+00  0.00000000000E+00  0.45593999997E+02  0.45594000000E+02  0.51100000000E-03 0.  1.
         11   -1    0    0    0    0 -0.00000000000E+00 -0.00000000000E+00 -0.45593999997E+02  0.45594000000E+02  0.51100000000E-03 0. -1.
    9900012    2    1    2    0    0  0.13521216849E+02 -0.63111506593E+01  0.37822086454E+02  0.50528878619E+02  0.30000057050E+02 0.  0.
         12    1    1    2    0    0 -0.13521216849E+02  0.63111506593E+01 -0.37822086454E+02  0.40659121381E+02  0.00000000000E+00 0. -1.
         11    1    3    3    0    0  0.18736468183E+01  0.75128008828E+00 -0.21611616089E+01  0.29572950363E+01  0.51100000000E-03 0. -1.
        -11    1    3    3    0    0  0.15039270002E+02 -0.85885467579E+01  0.40275099752E+02  0.43840921955E+02  0.51100000000E-03 0.  1.
        -12    1    3    3    0    0 -0.33916999711E+01  0.15261160103E+01 -0.29185168842E+00  0.37306616275E+01  0.00000000000E+00 0.  1.
</event>
<event>
 7    1  0.2942034E-011  0.5052886E+02  0.7816164E-02  0.1300439E+00
        -11   -1    0    0    0    0  0.00000000000E+00  0.00000000000E+00  0.45593999997E+02  0.45594000000E+02  0.51100000000E-03 0. -1.
         11   -1    0    0    0    0 -0.00000000000E+00 -0.00000000000E+00 -0.45593999997E+02  0.45594000000E+02  0.51100000000E-03 0.  1.
    9900012    2    1    2    0    0  0.13501893406E+00  0.40407347570E+02 -0.45159562062E+01  0.50528857999E+02  0.29999994375E+02 0.  0.
         12    1    1    2    0    0 -0.13501893406E+00 -0.40407347570E+02  0.45159562062E+01  0.40659142001E+02  0.00000000000E+00 0. -1.
         11    1    3    3    0    0 -0.42386264463E+01  0.25223492142E+02  0.10020503510E+02  0.27470001835E+02  0.51100000000E-03 0. -1.
        -11    1    3    3    0    0  0.42609315965E+01  0.71844283937E+01 -0.12086313508E+02  0.14691852296E+02  0.51100000000E-03 0.  1.
         12    1    3    3    0    0  0.11271378390E+00  0.79994270350E+01 -0.24501462089E+01  0.83670038682E+01  0.00000000000E+00 0. -1.
</event>
<event>
 7    1  0.2942034E-011  0.5052886E+02  0.7816164E-02  0.1300439E+00
        -11   -1    0    0    0    0  0.00000000000E+00  0.00000000000E+00  0.45593999997E+02  0.45594000000E+02  0.51100000000E-03 0. -1.
         11   -1    0    0    0    0 -0.00000000000E+00 -0.00000000000E+00 -0.45593999997E+02  0.45594000000E+02  0.51100000000E-03 0.  1.
    9900012    2    1    2    0    0 -0.21566672167E+02 -0.25176161716E+02 -0.23541563538E+02  0.50528859811E+02  0.29999999882E+02 0.  0.
         12    1    1    2    0    0  0.21566672167E+02  0.25176161716E+02  0.23541563538E+02  0.40659140189E+02  0.00000000000E+00 0. -1.
         11    1    3    3    0    0  0.14156806265E+00 -0.28077530414E+01 -0.80928828200E+01  0.85672791047E+01  0.51100000000E-03 0. -1.
        -11    1    3    3    0    0 -0.14440674346E+02 -0.32578521908E+01  0.21825083110E+01  0.14963623199E+02  0.51100000000E-03 0.  1.
        -12    1    3    3    0    0 -0.72675658838E+01 -0.19110556484E+02 -0.17631189029E+02  0.26997957507E+02  0.00000000000E+00 0.  1.
</event>
<event>
 7    1  0.2942034E-011  0.5052886E+02  0.7816164E-02  0.1300439E+00
        -11   -1    0    0    0    0  0.00000000000E+00  0.00000000000E+00  0.45593999997E+02  0.45594000000E+02  0.51100000000E-03 0.  1.
         11   -1    0    0    0    0 -0.00000000000E+00 -0.00000000000E+00 -0.45593999997E+02  0.45594000000E+02  0.51100000000E-03 0. -1.
    9900012    2    1    2    0    0  0.83083915540E+01 -0.35131939453E+02  0.18705162689E+02  0.50528860176E+02  0.30000000992E+02 0.  0.
         12    1    1    2    0    0 -0.83083915540E+01  0.35131939453E+02 -0.18705162689E+02  0.40659139824E+02  0.00000000000E+00 0. -1.
         11    1    3    3    0    0 -0.38911737779E+01 -0.13814802434E+02 -0.41808687236E+01  0.14948901739E+02  0.51100000000E-03 0. -1.
        -11    1    3    3    0    0  0.66432611811E+01 -0.95279708979E+01  0.18470947521E+02  0.21819510791E+02  0.51100000000E-03 0.  1.
         12    1    3    3    0    0  0.55563041508E+01 -0.11789166122E+02  0.44150838916E+01  0.13760447647E+02  0.00000000000E+00 0. -1.
</event>
<event>
 7    1  0.2942034E-011  0.5052886E+02  0.7816164E-02  0.1300439E+00
        -11   -1    0    0    0    0  0.00000000000E+00  0.00000000000E+00  0.45593999997E+02  0.45594000000E+02  0.51100000000E-03 0.  1.
         11   -1    0    0    0    0 -0.00000000000E+00 -0.00000000000E+00 -0.45593999997E+02  0.45594000000E+02  0.51100000000E-03 0. -1.
    9900012    2    1    2    0    0  0.26328073211E+02  0.50734695158E+01  0.30565639469E+02  0.50528857755E+02  0.29999993633E+02 0.  0.
         12    1    1    2    0    0 -0.26328073211E+02 -0.50734695158E+01 -0.30565639469E+02  0.40659142245E+02  0.00000000000E+00 0. -1.
         11    1    3    3    0    0  0.28097283569E+02  0.37491465212E+01  0.13816772282E+02  0.31534372360E+02  0.51100000000E-03 0. -1.
        -11    1    3    3    0    0  0.19997366409E+01  0.26572073279E+01  0.24054274435E+01  0.41043609568E+01  0.51100000000E-03 0.  1.
         12    1    3    3    0    0 -0.37689469987E+01 -0.13328843333E+01  0.14343439743E+02  0.14890124438E+02  0.00000000000E+00 0. -1.
</event>
<event>
 7    1  0.2942034E-011  0.5052886E+02  0.7816164E-02  0.1300439E+00
        -11   -1    0    0    0    0  0.00000000000E+00  0.00000000000E+00  0.45593999997E+02  0.45594000000E+02  0.51100000000E-03 0. -1.
         11   -1    0    0    0    0 -0.00000000000E+00 -0.00000000000E+00 -0.45593999997E+02  0.45594000000E+02  0.51100000000E-03 0.  1.
    9900012    2    1    2    0    0  0.39506882136E+02 -0.63877088541E+01 -0.71811911437E+01  0.50528855067E+02  0.29999985460E+02 0.  0.
         12    1    1    2    0    0 -0.39506882136E+02  0.63877088541E+01  0.71811911437E+01  0.40659144933E+02  0.00000000000E+00 0. -1.
         11    1    3    3    0    0 -0.21172149097E+01 -0.33825023297E+01 -0.30141855355E+01  0.50009234835E+01  0.51100000000E-03 0. -1.
        -11    1    3    3    0    0  0.27038924229E+02  0.62525139692E+01 -0.51439626940E+01  0.28225125453E+02  0.51100000000E-03 0.  1.
        -12    1    3    3    0    0  0.14585172817E+02 -0.92577204936E+01  0.97695708578E+00  0.17302806130E+02  0.00000000000E+00 0.  1.
</event>
<event>
 7    1  0.2942034E-011  0.5052886E+02  0.7816164E-02  0.1300439E+00
        -11   -1    0    0    0    0  0.00000000000E+00  0.00000000000E+00  0.45593999997E+02  0.45594000000E+02  0.51100000000E-03 0.  1.
         11   -1    0    0    0    0 -0.00000000000E+00 -0.00000000000E+00 -0.45593999997E+02  0.45594000000E+02  0.51100000000E-03 0. -1.
    9900012    2    1    2    0    0  0.30936619607E+02 -0.21222903128E+02  0.15674161411E+02  0.50528863440E+02  0.30000010912E+02 0.  0.
         12    1    1    2    0    0 -0.30936619607E+02  0.21222903128E+02 -0.15674161411E+02  0.40659136560E+02  0.00000000000E+00 0. -1.
         11    1    3    3    0    0 -0.36600250403E+01 -0.78499542408E+01 -0.95825460779E+00  0.87141159639E+01  0.51100000000E-03 0. -1.
        -11    1    3    3    0    0  0.65427087746E+01 -0.68097632811E+01  0.27668422941E+01  0.98404944284E+01  0.51100000000E-03 0.  1.
         12    1    3    3    0    0  0.28053935872E+02 -0.65631856060E+01  0.13865573725E+02  0.31974253048E+02  0.00000000000E+00 0. -1.
</event>
<event>
 7    1  0.2942034E-011  0.5052886E+02  0.7816164E-02  0.1300439E+00
        -11   -1    0    0    0    0  0.00000000000E+00  0.00000000000E+00  0.45593999997E+02  0.45594000000E+02  0.51100000000E-03 0. -1.
         11   -1    0    0    0    0 -0.00000000000E+00 -0.00000000000E+00 -0.45593999997E+02  0.45594000000E+02  0.51100000000E-03 0.  1.
    9900012    2    1    2    0    0 -0.31688052197E+02  0.21062215642E+02  0.14332341754E+02  0.50528860807E+02  0.30000002909E+02 0.  0.
         12    1    1    2    0    0  0.31688052197E+02 -0.21062215642E+02 -0.14332341754E+02  0.40659139193E+02  0.00000000000E+00 0. -1.
         11    1    3    3    0    0 -0.38625480905E+01  0.14623322167E+02  0.15571852602E+02  0.21708141852E+02  0.51100000000E-03 0. -1.
        -11    1    3    3    0    0 -0.83200968856E+01  0.19370666381E+01 -0.20536466660E+01  0.87859947779E+01  0.51100000000E-03 0.  1.
         12    1    3    3    0    0 -0.19505407220E+02  0.45018268371E+01  0.81413581716E+00  0.20034724177E+02  0.00000000000E+00 0. -1.
</event>
<event>
 7    1  0.2942034E-011  0.5052886E+02  0.7816164E-02  0.1300439E+00
        -11   -1    0    0    0    0  0.00000000000E+00  0.00000000000E+00  0.45593999997E+02  0.45594000000E+02  0.51100000000E-03 0.  1.
         11   -1    0    0    0    0 -0.00000000000E+00 -0.00000000000E+00 -0.45593999997E+02  0.45594000000E+02  0.51100000000E-03 0. -1.
    9900012    2    1    2    0    0 -0.25536956204E+02  0.30244163907E+02 -0.92908728298E+01  0.50528857110E+02  0.29999991672E+02 0.  0.
         12    1    1    2    0    0  0.25536956204E+02 -0.30244163907E+02  0.92908728298E+01  0.40659142890E+02  0.00000000000E+00 0. -1.
         11    1    3    3    0    0 -0.30284169142E+02  0.28142874352E+02 -0.12259765686E+02  0.43121388340E+02  0.51100000000E-03 0. -1.
        -11    1    3    3    0    0  0.40920451753E+01  0.31503746704E+01  0.32980655929E+01  0.61275550750E+01  0.51100000000E-03 0.  1.
         12    1    3    3    0    0  0.65516776275E+00 -0.10490851154E+01 -0.32917273691E+00  0.12799136953E+01  0.00000000000E+00 0. -1.
</event>
<event>
 7    1  0.2942034E-011  0.5052886E+02  0.7816164E-02  0.1300439E+00
        -11   -1    0    0    0    0  0.00000000000E+00  0.00000000000E+00  0.45593999997E+02  0.45594000000E+02  0.51100000000E-03 0. -1.
         11   -1    0    0    0    0 -0.00000000000E+00 -0.00000000000E+00 -0.45593999997E+02  0.45594000000E+02  0.51100000000E-03 0.  1.
    9900012    2    1    2    0    0 -0.34340322280E+02 -0.18086330631E+02  0.12115806967E+02  0.50528857505E+02  0.29999992871E+02 0.  0.
         12    1    1    2    0    0  0.34340322280E+02  0.18086330631E+02 -0.12115806967E+02  0.40659142495E+02  0.00000000000E+00 0. -1.
         11    1    3    3    0    0 -0.11327653273E+02 -0.10672322262E+02  0.11261328875E+02  0.19210198318E+02  0.51100000000E-03 0. -1.
        -11    1    3    3    0    0 -0.12468977529E+02 -0.35205227448E+01 -0.94766710837E+01  0.16052313731E+02  0.51100000000E-03 0.  1.
        -12    1    3    3    0    0 -0.10543691477E+02 -0.38934856243E+01  0.10331149176E+02  0.15266345456E+02  0.00000000000E+00 0.  1.
</event>
<event>
 7    1  0.2942034E-011  0.5052886E+02  0.7816164E-02  0.1300439E+00
        -11   -1    0    0    0    0  0.00000000000E+00  0.00000000000E+00  0.45593999997E+02  0.45594000000E+02  0.51100000000E-03 0.  1.
         11   -1    0    0    0    0 -0.00000000000E+00 -0.00000000000E+00 -0.45593999997E+02  0.45594000000E+02  0.51100000000E-03 0. -1.
    9900012    2    1    2    0    0  0.76799947596E+01 -0.37427599488E+02 -0.13905328580E+02  0.50528859750E+02  0.29999999696E+02 0.  0.
         12    1    1    2    0    0 -0.76799947596E+01  0.37427599488E+02  0.13905328580E+02  0.40659140250E+02  0.00000000000E+00 0. -1.
         11    1    3    3    0    0  0.13100928034E+02 -0.15446530392E+02 -0.46051261699E-01  0.20254178273E+02  0.51100000000E-03 0.  1.
        -11    1    3    3    0    0 -0.29857929982E+01  0.19287742547E+00 -0.58543663815E+01  0.65746305995E+01  0.51100000000E-03 0. -1.
        -12    1    3    3    0    0 -0.24351402765E+01 -0.22173946521E+02 -0.80049109363E+01  0.23700050878E+02  0.00000000000E+00 0.  1.
</event>
<event>
 7    1  0.2942034E-011  0.5052886E+02  0.7816164E-02  0.1300439E+00
        -11   -1    0    0    0    0  0.00000000000E+00  0.00000000000E+00  0.45593999997E+02  0.45594000000E+02  0.51100000000E-03 0. -1.
         11   -1    0    0    0    0 -0.00000000000E+00 -0.00000000000E+00 -0.45593999997E+02  0.45594000000E+02  0.51100000000E-03 0.  1.
    9900012    2    1    2    0    0  0.35250412700E+02 -0.14649905657E+02  0.13998359839E+02  0.50528863149E+02  0.30000010028E+02 0.  0.
         12    1    1    2    0    0 -0.35250412700E+02  0.14649905657E+02 -0.13998359839E+02  0.40659136851E+02  0.00000000000E+00 0. -1.
         11    1    3    3    0    0 -0.10331625563E+01 -0.40575484185E+01 -0.45242529007E+01  0.61644130789E+01  0.51100000000E-03 0. -1.
        -11    1    3    3    0    0  0.32486778327E+02 -0.90709724361E+01  0.10443952615E+02  0.35309339466E+02  0.51100000000E-03 0.  1.
         12    1    3    3    0    0  0.37967969288E+01 -0.15213848029E+01  0.80786601255E+01  0.90551106045E+01  0.00000000000E+00 0. -1.
</event>
<event>
 7    1  0.2942034E-011  0.5052890E+02  0.7816164E-02  0.1300439E+00
        -11   -1    0    0    0    0  0.00000000000E+00  0.00000000000E+00  0.45593999997E+02  0.45594000000E+02  0.51100000000E-03 0. -1.
         11   -1    0    0    0    0 -0.00000000000E+00 -0.00000000000E+00 -0.45593999997E+02  0.45594000000E+02  0.51100000000E-03 0.  1.
    9900012    2    1    2    0    0 -0.45392819420E+01 -0.40336438023E+02  0.23514042641E+01  0.50528899973E+02  0.30000121959E+02 0.  0.
         12    1    1    2    0    0  0.45392819420E+01  0.40336438023E+02 -0.23514042641E+01  0.40659100027E+02  0.00000000000E+00 0. -1.
         11    1    3    3    0    0  0.19779910907E+01 -0.11182466640E+02  0.13145843714E+02  0.17371620999E+02  0.51100000000E-03 0. -1.
        -11    1    3    3    0    0 -0.48457850612E+00 -0.13795251884E+02 -0.71698366639E+00  0.13822367985E+02  0.51100000000E-03 0.  1.
         12    1    3    3    0    0 -0.60326945266E+01 -0.15358719499E+02 -0.10077455784E+02  0.19334910990E+02  0.00000000000E+00 0. -1.
</event>
<event>
 7    1  0.2942034E-011  0.5052884E+02  0.7816164E-02  0.1300439E+00
        -11   -1    0    0    0    0  0.00000000000E+00  0.00000000000E+00  0.45593999997E+02  0.45594000000E+02  0.51100000000E-03 0.  1.
         11   -1    0    0    0    0 -0.00000000000E+00 -0.00000000000E+00 -0.45593999997E+02  0.45594000000E+02  0.51100000000E-03 0. -1.
    9900012    2    1    2    0    0 -0.11233727723E+02  0.36143716898E+02  0.14852680279E+02  0.50528843328E+02  0.29999949781E+02 0.  0.
         12    1    1    2    0    0  0.11233727723E+02 -0.36143716898E+02 -0.14852680279E+02  0.40659156672E+02  0.00000000000E+00 0. -1.
         11    1    3    3    0    0 -0.82722053118E+01  0.16036338687E+02  0.17024762359E+01  0.18124347293E+02  0.51100000000E-03 0. -1.
        -11    1    3    3    0    0  0.43169547416E+00 -0.25325499586E+01  0.87153126916E+01  0.90860797844E+01  0.51100000000E-03 0.  1.
        -12    1    3    3    0    0 -0.33932178849E+01  0.22639928170E+02  0.44348913513E+01  0.23318416251E+02  0.00000000000E+00 0.  1.
</event>
<event>
 7    1  0.2942034E-011  0.5052886E+02  0.7816164E-02  0.1300439E+00
        -11   -1    0    0    0    0  0.00000000000E+00  0.00000000000E+00  0.45593999997E+02  0.45594000000E+02  0.51100000000E-03 0. -1.
         11   -1    0    0    0    0 -0.00000000000E+00 -0.00000000000E+00 -0.45593999997E+02  0.45594000000E+02  0.51100000000E-03 0.  1.
    9900012    2    1    2    0    0 -0.31266360473E+02 -0.24122577075E+02 -0.96789336065E+01  0.50528858621E+02  0.29999996263E+02 0.  0.
         12    1    1    2    0    0  0.31266360473E+02  0.24122577075E+02  0.96789336065E+01  0.40659141379E+02  0.00000000000E+00 0. -1.
         11    1    3    3    0    0 -0.34582070526E+01 -0.74137672806E+01  0.69355114933E+01  0.10724945746E+02  0.51100000000E-03 0. -1.
        -11    1    3    3    0    0 -0.21684881091E+02 -0.66385707302E+01 -0.16451410925E+02  0.28017023592E+02  0.51100000000E-03 0.  1.
        -12    1    3    3    0    0 -0.61232723289E+01 -0.10070239064E+02 -0.16303417454E+00  0.11786889283E+02  0.00000000000E+00 0.  1.
</event>
<event>
 7    1  0.2942034E-011  0.5052885E+02  0.7816164E-02  0.1300439E+00
        -11   -1    0    0    0    0  0.00000000000E+00  0.00000000000E+00  0.45593999997E+02  0.45594000000E+02  0.51100000000E-03 0.  1.
         11   -1    0    0    0    0 -0.00000000000E+00 -0.00000000000E+00 -0.45593999997E+02  0.45594000000E+02  0.51100000000E-03 0. -1.
    9900012    2    1    2    0    0 -0.28132792966E+02 -0.25311399361E+02 -0.14867589092E+02  0.50528853636E+02  0.29999981111E+02 0.  0.
         12    1    1    2    0    0  0.28132792966E+02  0.25311399361E+02  0.14867589092E+02  0.40659146364E+02  0.00000000000E+00 0. -1.
         11    1    3    3    0    0 -0.10862311109E+02 -0.15298862590E+02 -0.17619813829E+02  0.25739130498E+02  0.51100000000E-03 0. -1.
        -11    1    3    3    0    0 -0.17339597585E+02 -0.12950647452E+02  0.18775415916E+01  0.21723399286E+02  0.51100000000E-03 0.  1.
         12    1    3    3    0    0  0.69115728758E-01  0.29381106814E+01  0.87468314452E+00  0.30663238516E+01  0.00000000000E+00 0. -1.
</event>
<event>
 7    1  0.2942034E-011  0.5052886E+02  0.7816164E-02  0.1300439E+00
        -11   -1    0    0    0    0  0.00000000000E+00  0.00000000000E+00  0.45593999997E+02  0.45594000000E+02  0.51100000000E-03 0.  1.
         11   -1    0    0    0    0 -0.00000000000E+00 -0.00000000000E+00 -0.45593999997E+02  0.45594000000E+02  0.51100000000E-03 0. -1.
    9900012    2    1    2    0    0  0.45146699484E+01 -0.36056752719E+02  0.18239901452E+02  0.50528859989E+02  0.30000000424E+02 0.  0.
         12    1    1    2    0    0 -0.45146699484E+01  0.36056752719E+02 -0.18239901452E+02  0.40659140011E+02  0.00000000000E+00 0. -1.
         11    1    3    3    0    0  0.13222100988E+02 -0.22121767807E+02  0.12397827345E+02  0.28598998034E+02  0.51100000000E-03 0. -1.
        -11    1    3    3    0    0 -0.30675967407E+01 -0.11786540314E+02  0.89760080972E+01  0.15129487895E+02  0.51100000000E-03 0.  1.
         12    1    3    3    0    0 -0.56398342985E+01 -0.21484445989E+01 -0.31339339899E+01  0.68003740605E+01  0.00000000000E+00 0. -1.
</event>
<event>
 7    1  0.2942034E-011  0.5052886E+02  0.7816164E-02  0.1300439E+00
        -11   -1    0    0    0    0  0.00000000000E+00  0.00000000000E+00  0.45593999997E+02  0.45594000000E+02  0.51100000000E-03 0.  1.
         11   -1    0    0    0    0 -0.00000000000E+00 -0.00000000000E+00 -0.45593999997E+02  0.45594000000E+02  0.51100000000E-03 0. -1.
    9900012    2    1    2    0    0 -0.17300146444E+02 -0.34524380567E+02  0.12725467241E+02  0.50528862810E+02  0.30000008998E+02 0.  0.
         12    1    1    2    0    0  0.17300146444E+02  0.34524380567E+02 -0.12725467241E+02  0.40659137190E+02  0.00000000000E+00 0. -1.
         11    1    3    3    0    0 -0.22306082419E+01 -0.13872624793E+02 -0.22426806137E+01  0.14228666430E+02  0.51100000000E-03 0. -1.
        -11    1    3    3    0    0 -0.11324676291E+02 -0.32652975801E+01  0.14260954542E+02  0.18500953654E+02  0.51100000000E-03 0.  1.
        -12    1    3    3    0    0 -0.37448619114E+01 -0.17386458194E+02  0.70719331204E+00  0.17799242727E+02  0.00000000000E+00 0.  1.
</event>
<event>
 7    1  0.2942034E-011  0.5052886E+02  0.7816164E-02  0.1300439E+00
        -11   -1    0    0    0    0  0.00000000000E+00  0.00000000000E+00  0.45593999997E+02  0.45594000000E+02  0.51100000000E-03 0. -1.
         11   -1    0    0    0    0 -0.00000000000E+00 -0.00000000000E+00 -0.45593999997E+02  0.45594000000E+02  0.51100000000E-03 0.  1.
    9900012    2    1    2    0    0  0.14971935111E+02  0.37726803449E+02  0.23864750213E+01  0.50528858317E+02  0.29999995339E+02 0.  0.
         12    1    1    2    0    0 -0.14971935111E+02 -0.37726803449E+02 -0.23864750213E+01  0.40659141683E+02  0.00000000000E+00 0. -1.
         11    1    3    3    0    0  0.74595013655E+01  0.19453867259E+01 -0.27314828384E+01  0.81786116727E+01  0.51100000000E-03 0. -1.
        -11    1    3    3    0    0 -0.14814457943E+01  0.19161333684E+02  0.11509202035E+02  0.22401185727E+02  0.51100000000E-03 0.  1.
        -12    1    3    3    0    0  0.89938795398E+01  0.16620083038E+02 -0.63912441755E+01  0.19949060917E+02  0.00000000000E+00 0.  1.
</event>
<event>
 7    1  0.2942034E-011  0.5052885E+02  0.7816164E-02  0.1300439E+00
        -11   -1    0    0    0    0  0.00000000000E+00  0.00000000000E+00  0.45593999997E+02  0.45594000000E+02  0.51100000000E-03 0.  1.
         11   -1    0    0    0    0 -0.00000000000E+00 -0.00000000000E+00 -0.45593999997E+02  0.45594000000E+02  0.51100000000E-03 0. -1.
    9900012    2    1    2    0    0  0.90901033284E+01  0.21635833693E+02  0.33202815092E+02  0.50528853327E+02  0.29999980172E+02 0.  0.
         12    1    1    2    0    0 -0.90901033284E+01 -0.21635833693E+02 -0.33202815092E+02  0.40659146673E+02  0.00000000000E+00 0. -1.
         11    1    3    3    0    0  0.46602901198E+01 -0.50584030447E+01  0.40190089705E+01  0.79660641932E+01  0.51100000000E-03 0. -1.
        -11    1    3    3    0    0  0.21901769881E+00  0.73181440288E+01  0.50007111260E-01  0.73215914767E+01  0.51100000000E-03 0.  1.
         12    1    3    3    0    0  0.42107955097E+01  0.19376092709E+02  0.29133799011E+02  0.35241197657E+02  0.00000000000E+00 0. -1.
</event>
<event>
 7    1  0.2942034E-011  0.5052886E+02  0.7816164E-02  0.1300439E+00
        -11   -1    0    0    0    0  0.00000000000E+00  0.00000000000E+00  0.45593999997E+02  0.45594000000E+02  0.51100000000E-03 0. -1.
         11   -1    0    0    0    0 -0.00000000000E+00 -0.00000000000E+00 -0.45593999997E+02  0.45594000000E+02  0.51100000000E-03 0.  1.
    9900012    2    1    2    0    0 -0.37665576592E+02 -0.53245872703E+01 -0.14356831344E+02  0.50528862087E+02  0.30000006799E+02 0.  0.
         12    1    1    2    0    0  0.37665576592E+02  0.53245872703E+01  0.14356831344E+02  0.40659137913E+02  0.00000000000E+00 0. -1.
         11    1    3    3    0    0 -0.11382735854E+02 -0.14993812742E+02 -0.26829421969E+01  0.19015237973E+02  0.51100000000E-03 0. -1.
        -11    1    3    3    0    0 -0.12324518070E+02  0.63948127304E+01 -0.99310765444E+01  0.17070842308E+02  0.51100000000E-03 0.  1.
        -12    1    3    3    0    0 -0.13958322668E+02  0.32744127418E+01 -0.17428126023E+01  0.14442781806E+02  0.00000000000E+00 0.  1.
</event>
<event>
 7    1  0.2942034E-011  0.5052885E+02  0.7816164E-02  0.1300439E+00
        -11   -1    0    0    0    0  0.00000000000E+00  0.00000000000E+00  0.45593999997E+02  0.45594000000E+02  0.51100000000E-03 0.  1.
         11   -1    0    0    0    0 -0.00000000000E+00 -0.00000000000E+00 -0.45593999997E+02  0.45594000000E+02  0.51100000000E-03 0. -1.
    9900012    2    1    2    0    0  0.13400691536E+02 -0.65804320147E+00  0.38381695694E+02  0.50528854426E+02  0.29999983512E+02 0.  0.
         12    1    1    2    0    0 -0.13400691536E+02  0.65804320147E+00 -0.38381695694E+02  0.40659145574E+02  0.00000000000E+00 0. -1.
         11    1    3    3    0    0  0.13168477222E+02  0.38319958019E+01  0.24752950203E+02  0.28298436851E+02  0.51100000000E-03 0.  1.
        -11    1    3    3    0    0 -0.74062437509E+01  0.79181061254E+00  0.94878418191E+01  0.12062278109E+02  0.51100000000E-03 0. -1.
        -12    1    3    3    0    0  0.76384580644E+01 -0.52818496159E+01  0.41409036717E+01  0.10168139465E+02  0.00000000000E+00 0.  1.
</event>
<event>
 7    1  0.2942034E-011  0.5052886E+02  0.7816164E-02  0.1300439E+00
        -11   -1    0    0    0    0  0.00000000000E+00  0.00000000000E+00  0.45593999997E+02  0.45594000000E+02  0.51100000000E-03 0.  1.
         11   -1    0    0    0    0 -0.00000000000E+00 -0.00000000000E+00 -0.45593999997E+02  0.45594000000E+02  0.51100000000E-03 0. -1.
    9900012    2    1    2    0    0  0.33993795176E+02 -0.26281957707E+01  0.22151297657E+02  0.50528861896E+02  0.30000006220E+02 0.  0.
         12    1    1    2    0    0 -0.33993795176E+02  0.26281957707E+01 -0.22151297657E+02  0.40659138104E+02  0.00000000000E+00 0. -1.
         11    1    3    3    0    0  0.87998290100E+00 -0.54486206484E+01  0.13923810592E+02  0.14977794849E+02  0.51100000000E-03 0. -1.
        -11    1    3    3    0    0  0.27791274226E+02  0.16290813629E+01  0.10346763122E+02  0.29699567952E+02  0.51100000000E-03 0.  1.
         12    1    3    3    0    0  0.53225380490E+01  0.11913435148E+01 -0.21192760578E+01  0.58514990953E+01  0.00000000000E+00 0. -1.
</event>
<event>
 7    1  0.2942034E-011  0.5052886E+02  0.7816164E-02  0.1300439E+00
        -11   -1    0    0    0    0  0.00000000000E+00  0.00000000000E+00  0.45593999997E+02  0.45594000000E+02  0.51100000000E-03 0. -1.
         11   -1    0    0    0    0 -0.00000000000E+00 -0.00000000000E+00 -0.45593999997E+02  0.45594000000E+02  0.51100000000E-03 0.  1.
    9900012    2    1    2    0    0  0.23863682027E+02 -0.10380115541E+02  0.31240094196E+02  0.50528860758E+02  0.30000002760E+02 0.  0.
         12    1    1    2    0    0 -0.23863682027E+02  0.10380115541E+02 -0.31240094196E+02  0.40659139242E+02  0.00000000000E+00 0. -1.
         11    1    3    3    0    0 -0.33308992307E+01 -0.49122547294E+01  0.99328094755E+01  0.11570904915E+02  0.51100000000E-03 0. -1.
        -11    1    3    3    0    0  0.12316386005E+02  0.51655735534E+01  0.44259987460E+01  0.14070038363E+02  0.51100000000E-03 0.  1.
        -12    1    3    3    0    0  0.14878195252E+02 -0.10633434365E+02  0.16881285975E+02  0.24887917480E+02  0.00000000000E+00 0.  1.
</event>
<event>
 7    1  0.2942034E-011  0.5052883E+02  0.7816164E-02  0.1300439E+00
        -11   -1    0    0    0    0  0.00000000000E+00  0.00000000000E+00  0.45593999997E+02  0.45594000000E+02  0.51100000000E-03 0.  1.
         11   -1    0    0    0    0 -0.00000000000E+00 -0.00000000000E+00 -0.45593999997E+02  0.45594000000E+02  0.51100000000E-03 0. -1.
    9900012    2    1    2    0    0  0.13367606954E+02 -0.10967821961E+02  0.36799208542E+02  0.50528833954E+02  0.29999921285E+02 0.  0.
         12    1    1    2    0    0 -0.13367606954E+02  0.10967821961E+02 -0.36799208542E+02  0.40659166046E+02  0.00000000000E+00 0. -1.
         11    1    3    3    0    0 -0.27520296238E+00  0.20992696694E+01 -0.32228882646E+01  0.38561222546E+01  0.51100000000E-03 0. -1.
        -11    1    3    3    0    0  0.29576270237E+01 -0.12792224443E+02  0.19087195027E+02  0.23166993290E+02  0.51100000000E-03 0.  1.
         12    1    3    3    0    0  0.10685182893E+02 -0.27486718759E+00  0.20934901779E+02  0.23505718409E+02  0.00000000000E+00 0. -1.
</event>
<event>
 7    1  0.2942034E-011  0.5052887E+02  0.7816164E-02  0.1300439E+00
        -11   -1    0    0    0    0  0.00000000000E+00  0.00000000000E+00  0.45593999997E+02  0.45594000000E+02  0.51100000000E-03 0.  1.
         11   -1    0    0    0    0 -0.00000000000E+00 -0.00000000000E+00 -0.45593999997E+02  0.45594000000E+02  0.51100000000E-03 0. -1.
    9900012    2    1    2    0    0  0.34267925620E+02 -0.18422139291E+02  0.11810956539E+02  0.50528872652E+02  0.30000038913E+02 0.  0.
         12    1    1    2    0    0 -0.34267925620E+02  0.18422139291E+02 -0.11810956539E+02  0.40659127348E+02  0.00000000000E+00 0. -1.
         11    1    3    3    0    0  0.45835092158E+01 -0.10426218822E+02  0.11661114992E+02  0.16300190145E+02  0.51100000000E-03 0.  1.
        -11    1    3    3    0    0  0.22860076830E+02 -0.10326789077E+02 -0.47232028418E+01  0.25525170531E+02  0.51100000000E-03 0. -1.
        -12    1    3    3    0    0  0.68243395743E+01  0.23308686078E+01  0.48730443884E+01  0.87035119753E+01  0.00000000000E+00 0.  1.
</event>
<event>
 7    1  0.2942034E-011  0.5052888E+02  0.7816164E-02  0.1300439E+00
        -11   -1    0    0    0    0  0.00000000000E+00  0.00000000000E+00  0.45593999997E+02  0.45594000000E+02  0.51100000000E-03 0.  1.
         11   -1    0    0    0    0 -0.00000000000E+00 -0.00000000000E+00 -0.45593999997E+02  0.45594000000E+02  0.51100000000E-03 0. -1.
    9900012    2    1    2    0    0  0.33428773184E+02 -0.22042978617E+02  0.70560666464E+01  0.50528882211E+02  0.30000067967E+02 0.  0.
         12    1    1    2    0    0 -0.33428773184E+02  0.22042978617E+02 -0.70560666464E+01  0.40659117789E+02  0.00000000000E+00 0. -1.
         11    1    3    3    0    0 -0.34988669550E+01  0.66725204428E+00  0.10014564879E+01  0.37000284617E+01  0.51100000000E-03 0. -1.
        -11    1    3    3    0    0  0.28570126709E+02 -0.17389143810E+02  0.11690661410E+02  0.35430298151E+02  0.51100000000E-03 0.  1.
        -12    1    3    3    0    0  0.83575134296E+01 -0.53210868518E+01 -0.56360512514E+01  0.11398555598E+02  0.00000000000E+00 0.  1.
</event>
<event>
 7    1  0.2942034E-011  0.5052886E+02  0.7816164E-02  0.1300439E+00
        -11   -1    0    0    0    0  0.00000000000E+00  0.00000000000E+00  0.45593999997E+02  0.45594000000E+02  0.51100000000E-03 0. -1.
         11   -1    0    0    0    0 -0.00000000000E+00 -0.00000000000E+00 -0.45593999997E+02  0.45594000000E+02  0.51100000000E-03 0.  1.
    9900012    2    1    2    0    0 -0.25154283013E+02  0.14985356538E+02 -0.28211107626E+02  0.50528862553E+02  0.30000008216E+02 0.  0.
         12    1    1    2    0    0  0.25154283013E+02 -0.14985356538E+02  0.28211107626E+02  0.40659137447E+02  0.00000000000E+00 0. -1.
         11    1    3    3    0    0 -0.19857908032E+01  0.75664653984E+01 -0.12551727277E+02  0.14789882408E+02  0.51100000000E-03 0. -1.
        -11    1    3    3    0    0 -0.26441759749E+02  0.37860449044E+01 -0.15420815406E+02  0.30843189567E+02  0.51100000000E-03 0.  1.
        -12    1    3    3    0    0  0.32732675390E+01  0.36328462348E+01 -0.23856494293E+00  0.48957905776E+01  0.00000000000E+00 0.  1.
</event>
<event>
 7    1  0.2942034E-011  0.5052886E+02  0.7816164E-02  0.1300439E+00
        -11   -1    0    0    0    0  0.00000000000E+00  0.00000000000E+00  0.45593999997E+02  0.45594000000E+02  0.51100000000E-03 0.  1.
         11   -1    0    0    0    0 -0.00000000000E+00 -0.00000000000E+00 -0.45593999997E+02  0.45594000000E+02  0.51100000000E-03 0. -1.
    9900012    2    1    2    0    0 -0.11551653895E+02  0.19426153868E+02  0.33798667133E+02  0.50528855127E+02  0.29999985645E+02 0.  0.
         12    1    1    2    0    0  0.11551653895E+02 -0.19426153868E+02 -0.33798667133E+02  0.40659144873E+02  0.00000000000E+00 0. -1.
         11    1    3    3    0    0  0.60700570582E+01  0.57165009520E+01  0.16630364841E+02  0.18603575216E+02  0.51100000000E-03 0. -1.
        -11    1    3    3    0    0 -0.12919624791E+02  0.39344453709E+01  0.16116510509E+02  0.21027089108E+02  0.51100000000E-03 0.  1.
         12    1    3    3    0    0 -0.47020861629E+01  0.97752075450E+01  0.10517917834E+01  0.10898190803E+02  0.00000000000E+00 0. -1.
</event>
<event>
 7    1  0.2942034E-011  0.5052885E+02  0.7816164E-02  0.1300439E+00
        -11   -1    0    0    0    0  0.00000000000E+00  0.00000000000E+00  0.45593999997E+02  0.45594000000E+02  0.51100000000E-03 0.  1.
         11   -1    0    0    0    0 -0.00000000000E+00 -0.00000000000E+00 -0.45593999997E+02  0.45594000000E+02  0.51100000000E-03 0. -1.
    9900012    2    1    2    0    0  0.13716272870E+02 -0.36795494379E+02  0.10541428739E+02  0.50528852593E+02  0.29999977941E+02 0.  0.
         12    1    1    2    0    0 -0.13716272870E+02  0.36795494379E+02 -0.10541428739E+02  0.40659147407E+02  0.00000000000E+00 0. -1.
         11    1    3    3    0    0  0.12424739152E+02 -0.81427357760E+01 -0.46144001108E+01  0.15555416342E+02  0.51100000000E-03 0. -1.
        -11    1    3    3    0    0 -0.12008751019E+01 -0.24486759811E+02  0.16942035347E+02  0.29800605178E+02  0.51100000000E-03 0.  1.
        -12    1    3    3    0    0  0.24924088198E+01 -0.41659987917E+01 -0.17862064969E+01  0.51728310727E+01  0.00000000000E+00 0.  1.
</event>
<event>
 7    1  0.2942034E-011  0.5052886E+02  0.7816164E-02  0.1300439E+00
        -11   -1    0    0    0    0  0.00000000000E+00  0.00000000000E+00  0.45593999997E+02  0.45594000000E+02  0.51100000000E-03 0. -1.
         11   -1    0    0    0    0 -0.00000000000E+00 -0.00000000000E+00 -0.45593999997E+02  0.45594000000E+02  0.51100000000E-03 0.  1.
    9900012    2    1    2    0    0  0.90758722182E+01  0.20405518256E+02 -0.33976591893E+02  0.50528862915E+02  0.30000009317E+02 0.  0.
         12    1    1    2    0    0 -0.90758722182E+01 -0.20405518256E+02  0.33976591893E+02  0.40659137085E+02  0.00000000000E+00 0. -1.
         11    1    3    3    0    0 -0.85199847039E+01  0.32452285310E+01 -0.13077501928E+01  0.92104211848E+01  0.51100000000E-03 0. -1.
        -11    1    3    3    0    0  0.15766620566E+02  0.17240991592E+02 -0.29202151893E+02  0.37397911580E+02  0.51100000000E-03 0.  1.
         12    1    3    3    0    0  0.18292363564E+01 -0.80701866835E-01 -0.34666898075E+01  0.39205301504E+01  0.00000000000E+00 0. -1.
</event>
<event>
 7    1  0.2942034E-011  0.5052886E+02  0.7816164E-02  0.1300439E+00
        -11   -1    0    0    0    0  0.00000000000E+00  0.00000000000E+00  0.45593999997E+02  0.45594000000E+02  0.51100000000E-03 0.  1.
         11   -1    0    0    0    0 -0.00000000000E+00 -0.00000000000E+00 -0.45593999997E+02  0.45594000000E+02  0.51100000000E-03 0. -1.
    9900012    2    1    2    0    0 -0.57013875562E+01 -0.37636215797E+02  0.14288990809E+02  0.50528858126E+02  0.29999994759E+02 0.  0.
         12    1    1    2    0    0  0.57013875562E+01  0.37636215797E+02 -0.14288990809E+02  0.40659141874E+02  0.00000000000E+00 0. -1.
         11    1    3    3    0    0 -0.12686700927E+01 -0.10724789164E+02 -0.67250126570E+01  0.12722280532E+02  0.51100000000E-03 0. -1.
        -11    1    3    3    0    0 -0.45575153163E+01 -0.17790293012E+02  0.21969915634E+02  0.28634640988E+02  0.51100000000E-03 0.  1.
        -12    1    3    3    0    0  0.12479785281E+00 -0.91211336207E+01 -0.95591216798E+00  0.91719366060E+01  0.00000000000E+00 0.  1.
</event>
<event>
 7    1  0.2942034E-011  0.5052886E+02  0.7816164E-02  0.1300439E+00
        -11   -1    0    0    0    0  0.00000000000E+00  0.00000000000E+00  0.45593999997E+02  0.45594000000E+02  0.51100000000E-03 0.  1.
         11   -1    0    0    0    0 -0.00000000000E+00 -0.00000000000E+00 -0.45593999997E+02  0.45594000000E+02  0.51100000000E-03 0. -1.
    9900012    2    1    2    0    0 -0.15250871945E+02 -0.29571843890E+02  0.23368407389E+02  0.50528861912E+02  0.30000006268E+02 0.  0.
         12    1    1    2    0    0  0.15250871945E+02  0.29571843890E+02 -0.23368407389E+02  0.40659138088E+02  0.00000000000E+00 0. -1.
         11    1    3    3    0    0  0.58311292424E+01  0.52177507993E+00  0.61819811937E+01  0.85141769547E+01  0.51100000000E-03 0. -1.
        -11    1    3    3    0    0 -0.12341943663E+02 -0.18359052927E+02  0.16065473321E+02  0.27340040802E+02  0.51100000000E-03 0.  1.
        -12    1    3    3    0    0 -0.87400575241E+01 -0.11734566043E+02  0.11209528743E+01  0.14674644155E+02  0.00000000000E+00 0.  1.
</event>
<event>
 7    1  0.2942034E-011  0.5052885E+02  0.7816164E-02  0.1300439E+00
        -11   -1    0    0    0    0  0.00000000000E+00  0.00000000000E+00  0.45593999997E+02  0.45594000000E+02  0.51100000000E-03 0.  1.
         11   -1    0    0    0    0 -0.00000000000E+00 -0.00000000000E+00 -0.45593999997E+02  0.45594000000E+02  0.51100000000E-03 0. -1.
    9900012    2    1    2    0    0 -0.34490550796E+01 -0.74740050362E+01  0.39817205190E+02  0.50528848984E+02  0.29999966972E+02 0.  0.
         12    1    1    2    0    0  0.34490550796E+01  0.74740050362E+01 -0.39817205190E+02  0.40659151016E+02  0.00000000000E+00 0. -1.
         11    1    3    3    0    0  0.91560306972E+00 -0.14676949879E+02  0.12120630397E+02  0.19056780111E+02  0.51100000000E-03 0. -1.
        -11    1    3    3    0    0  0.10954935909E+01  0.72577008494E+01  0.23399282967E+02  0.24523473886E+02  0.51100000000E-03 0.  1.
        -12    1    3    3    0    0 -0.54601517403E+01 -0.54756006541E-01  0.42972918264E+01  0.69485949866E+01  0.00000000000E+00 0.  1.
</event>
<event>
 7    1  0.2942034E-011  0.5052886E+02  0.7816164E-02  0.1300439E+00
        -11   -1    0    0    0    0  0.00000000000E+00  0.00000000000E+00  0.45593999997E+02  0.45594000000E+02  0.51100000000E-03 0.  1.
         11   -1    0    0    0    0 -0.00000000000E+00 -0.00000000000E+00 -0.45593999997E+02  0.45594000000E+02  0.51100000000E-03 0. -1.
    9900012    2    1    2    0    0 -0.24604180311E+02  0.16634208181E+02  0.27768739616E+02  0.50528862399E+02  0.30000007748E+02 0.  0.
         12    1    1    2    0    0  0.24604180311E+02 -0.16634208181E+02 -0.27768739616E+02  0.40659137601E+02  0.00000000000E+00 0. -1.
         11    1    3    3    0    0 -0.43904246277E+00  0.11149026506E+01  0.23560076339E+01  0.26432060905E+01  0.51100000000E-03 0. -1.
        -11    1    3    3    0    0 -0.13959926669E+02 -0.48740561472E+00  0.25302519733E+02  0.28902156009E+02  0.51100000000E-03 0.  1.
        -12    1    3    3    0    0 -0.10205211178E+02  0.16006711145E+02  0.11021224902E+00  0.18983500300E+02  0.00000000000E+00 0.  1.
</event>
<event>
 7    1  0.2942034E-011  0.5052885E+02  0.7816164E-02  0.1300439E+00
        -11   -1    0    0    0    0  0.00000000000E+00  0.00000000000E+00  0.45593999997E+02  0.45594000000E+02  0.51100000000E-03 0. -1.
         11   -1    0    0    0    0 -0.00000000000E+00 -0.00000000000E+00 -0.45593999997E+02  0.45594000000E+02  0.51100000000E-03 0.  1.
    9900012    2    1    2    0    0 -0.39606080044E+02 -0.37230646268E+01  0.84061845424E+01  0.50528846968E+02  0.29999960845E+02 0.  0.
         12    1    1    2    0    0  0.39606080044E+02  0.37230646268E+01 -0.84061845424E+01  0.40659153032E+02  0.00000000000E+00 0. -1.
         11    1    3    3    0    0  0.12266631216E+01 -0.29856880641E+01  0.54069006423E+01  0.62971112779E+01  0.51100000000E-03 0. -1.
        -11    1    3    3    0    0 -0.37343283897E+02 -0.56507934527E+01  0.68033956966E+00  0.37774530852E+02  0.51100000000E-03 0.  1.
        -12    1    3    3    0    0 -0.34894592687E+01  0.49134168899E+01  0.23189443304E+01  0.64572048387E+01  0.00000000000E+00 0.  1.
</event>
<event>
 7    1  0.2942034E-011  0.5052897E+02  0.7816164E-02  0.1300438E+00
        -11   -1    0    0    0    0  0.00000000000E+00  0.00000000000E+00  0.45593999997E+02  0.45594000000E+02  0.51100000000E-03 0.  1.
         11   -1    0    0    0    0 -0.00000000000E+00 -0.00000000000E+00 -0.45593999997E+02  0.45594000000E+02  0.51100000000E-03 0. -1.
    9900012    2    1    2    0    0  0.24308757152E+02 -0.27198752355E+02  0.17957416223E+02  0.50528971466E+02  0.30000339266E+02 0.  0.
         12    1    1    2    0    0 -0.24308757152E+02  0.27198752355E+02 -0.17957416223E+02  0.40659028534E+02  0.00000000000E+00 0. -1.
         11    1    3    3    0    0 -0.20503474276E+01 -0.36672248657E+01 -0.41674969840E+01  0.59178116024E+01  0.51100000000E-03 0. -1.
        -11    1    3    3    0    0  0.12052295092E+02 -0.20854379419E+02  0.15302161182E+02  0.28536276825E+02  0.51100000000E-03 0.  1.
        -12    1    3    3    0    0  0.14306809488E+02 -0.26771480703E+01  0.68227520244E+01  0.16074883038E+02  0.00000000000E+00 0.  1.
</event>
<event>
 7    1  0.2942034E-011  0.5052887E+02  0.7816164E-02  0.1300439E+00
        -11   -1    0    0    0    0  0.00000000000E+00  0.00000000000E+00  0.45593999997E+02  0.45594000000E+02  0.51100000000E-03 0. -1.
         11   -1    0    0    0    0 -0.00000000000E+00 -0.00000000000E+00 -0.45593999997E+02  0.45594000000E+02  0.51100000000E-03 0.  1.
    9900012    2    1    2    0    0  0.16566584063E+01  0.11406004869E+02 -0.38991329476E+02  0.50528865252E+02  0.30000016420E+02 0.  0.
         12    1    1    2    0    0 -0.16566584063E+01 -0.11406004869E+02  0.38991329476E+02  0.40659134748E+02  0.00000000000E+00 0. -1.
         11    1    3    3    0    0 -0.79298472809E+01 -0.91361235141E+00 -0.42475747651E+01  0.90420715035E+01  0.51100000000E-03 0. -1.
        -11    1    3    3    0    0  0.57438209931E+01  0.82245270623E+01 -0.34430747972E+02  0.35862386022E+02  0.51100000000E-03 0.  1.
        -12    1    3    3    0    0  0.38426846941E+01  0.40950901578E+01 -0.31300673879E+00  0.56244077269E+01  0.00000000000E+00 0.  1.
</event>
<event>
 7    1  0.2942034E-011  0.5052886E+02  0.7816164E-02  0.1300439E+00
        -11   -1    0    0    0    0  0.00000000000E+00  0.00000000000E+00  0.45593999997E+02  0.45594000000E+02  0.51100000000E-03 0.  1.
         11   -1    0    0    0    0 -0.00000000000E+00 -0.00000000000E+00 -0.45593999997E+02  0.45594000000E+02  0.51100000000E-03 0. -1.
    9900012    2    1    2    0    0 -0.70216073690E+01  0.36896121625E+02 -0.15573654248E+02  0.50528862433E+02  0.30000007852E+02 0.  0.
         12    1    1    2    0    0  0.70216073690E+01 -0.36896121625E+02  0.15573654248E+02  0.40659137567E+02  0.00000000000E+00 0. -1.
         11    1    3    3    0    0  0.80746085868E+00  0.80907729634E+01  0.63731891341E+01  0.10331028031E+02  0.51100000000E-03 0. -1.
        -11    1    3    3    0    0 -0.81203104670E+01  0.30670706354E+02 -0.20110665124E+02  0.37564218644E+02  0.51100000000E-03 0.  1.
        -12    1    3    3    0    0  0.29124223937E+00 -0.18653576923E+01 -0.18361782587E+01  0.26336157579E+01  0.00000000000E+00 0.  1.
</event>
<event>
 7    1  0.2942034E-011  0.5052886E+02  0.7816164E-02  0.1300439E+00
        -11   -1    0    0    0    0  0.00000000000E+00  0.00000000000E+00  0.45593999997E+02  0.45594000000E+02  0.51100000000E-03 0.  1.
         11   -1    0    0    0    0 -0.00000000000E+00 -0.00000000000E+00 -0.45593999997E+02  0.45594000000E+02  0.51100000000E-03 0. -1.
    9900012    2    1    2    0    0  0.22567876417E+02 -0.45584228890E+01  0.33512347917E+02  0.50528859230E+02  0.29999998117E+02 0.  0.
         12    1    1    2    0    0 -0.22567876417E+02  0.45584228890E+01 -0.33512347917E+02  0.40659140770E+02  0.00000000000E+00 0. -1.
         11    1    3    3    0    0  0.12167118484E+02 -0.46521226929E+01  0.79826041077E+01  0.15277532077E+02  0.51100000000E-03 0. -1.
        -11    1    3    3    0    0 -0.34092561709E+01  0.43631623932E+01 -0.41383042773E+00  0.55526092598E+01  0.51100000000E-03 0.  1.
        -12    1    3    3    0    0  0.13810014104E+02 -0.42694625893E+01  0.25943574237E+02  0.29698717894E+02  0.00000000000E+00 0.  1.
</event>
<event>
 7    1  0.2942034E-011  0.5052886E+02  0.7816164E-02  0.1300439E+00
        -11   -1    0    0    0    0  0.00000000000E+00  0.00000000000E+00  0.45593999997E+02  0.45594000000E+02  0.51100000000E-03 0.  1.
         11   -1    0    0    0    0 -0.00000000000E+00 -0.00000000000E+00 -0.45593999997E+02  0.45594000000E+02  0.51100000000E-03 0. -1.
    9900012    2    1    2    0    0  0.23935069063E+02 -0.30775347229E+02  0.11539315332E+02  0.50528864170E+02  0.30000013132E+02 0.  0.
         12    1    1    2    0    0 -0.23935069063E+02  0.30775347229E+02 -0.11539315332E+02  0.40659135830E+02  0.00000000000E+00 0. -1.
         11    1    3    3    0    0 -0.26073502562E+01 -0.53440670172E+00  0.37860288796E+01  0.46279456370E+01  0.51100000000E-03 0. -1.
        -11    1    3    3    0    0  0.19681724122E+02 -0.68496772862E+01  0.43364075992E+01  0.21285976004E+02  0.51100000000E-03 0.  1.
        -12    1    3    3    0    0  0.68606951971E+01 -0.23391263241E+02  0.34168788534E+01  0.24614942529E+02  0.00000000000E+00 0.  1.
</event>
<event>
 7    1  0.2942034E-011  0.5052886E+02  0.7816164E-02  0.1300439E+00
        -11   -1    0    0    0    0  0.00000000000E+00  0.00000000000E+00  0.45593999997E+02  0.45594000000E+02  0.51100000000E-03 0.  1.
         11   -1    0    0    0    0 -0.00000000000E+00 -0.00000000000E+00 -0.45593999997E+02  0.45594000000E+02  0.51100000000E-03 0. -1.
    9900012    2    1    2    0    0  0.40027592858E+01  0.37358123516E+02  0.15540736436E+02  0.50528856336E+02  0.29999989318E+02 0.  0.
         12    1    1    2    0    0 -0.40027592858E+01 -0.37358123516E+02 -0.15540736436E+02  0.40659143664E+02  0.00000000000E+00 0. -1.
         11    1    3    3    0    0 -0.72579821176E+01  0.13768940548E+02  0.13102983943E+02  0.20345766554E+02  0.51100000000E-03 0. -1.
        -11    1    3    3    0    0  0.13811436281E+02  0.14445117337E+02  0.44597723479E+01  0.20476981142E+02  0.51100000000E-03 0.  1.
         12    1    3    3    0    0 -0.25506948776E+01  0.91440656313E+01 -0.20220198541E+01  0.97061086393E+01  0.00000000000E+00 0. -1.
</event>
<event>
 7    1  0.2942034E-011  0.5052886E+02  0.7816164E-02  0.1300439E+00
        -11   -1    0    0    0    0  0.00000000000E+00  0.00000000000E+00  0.45593999997E+02  0.45594000000E+02  0.51100000000E-03 0. -1.
         11   -1    0    0    0    0 -0.00000000000E+00 -0.00000000000E+00 -0.45593999997E+02  0.45594000000E+02  0.51100000000E-03 0.  1.
    9900012    2    1    2    0    0 -0.29320968403E+02 -0.96728475849E+01 -0.26455295501E+02  0.50528857996E+02  0.29999994363E+02 0.  0.
         12    1    1    2    0    0  0.29320968403E+02  0.96728475849E+01  0.26455295501E+02  0.40659142004E+02  0.00000000000E+00 0. -1.
         11    1    3    3    0    0 -0.12570125661E+02 -0.14350316672E+02 -0.11717299691E+02  0.22388272823E+02  0.51100000000E-03 0. -1.
        -11    1    3    3    0    0 -0.16595498126E+02  0.57785787116E+01 -0.17721219370E+02  0.24956845678E+02  0.51100000000E-03 0.  1.
        -12    1    3    3    0    0 -0.15534461642E+00 -0.11011096243E+01  0.29832235601E+01  0.31837394937E+01  0.00000000000E+00 0.  1.
</event>
<event>
 7    1  0.2942034E-011  0.5052886E+02  0.7816164E-02  0.1300439E+00
        -11   -1    0    0    0    0  0.00000000000E+00  0.00000000000E+00  0.45593999997E+02  0.45594000000E+02  0.51100000000E-03 0.  1.
         11   -1    0    0    0    0 -0.00000000000E+00 -0.00000000000E+00 -0.45593999997E+02  0.45594000000E+02  0.51100000000E-03 0. -1.
    9900012    2    1    2    0    0  0.25798745888E+02 -0.26871782364E+02  0.16294095476E+02  0.50528861738E+02  0.30000005738E+02 0.  0.
         12    1    1    2    0    0 -0.25798745888E+02  0.26871782364E+02 -0.16294095476E+02  0.40659138262E+02  0.00000000000E+00 0. -1.
         11    1    3    3    0    0  0.75741559372E+01  0.23109489903E+01  0.24914334430E+01  0.83015398727E+01  0.51100000000E-03 0. -1.
        -11    1    3    3    0    0  0.13496515224E+02 -0.27709402393E+02  0.37858681038E+01  0.31053175389E+02  0.51100000000E-03 0.  1.
        -12    1    3    3    0    0  0.47280747274E+01 -0.14733289618E+01  0.10016793929E+02  0.11174146476E+02  0.00000000000E+00 0.  1.
</event>
<event>
 7    1  0.2942034E-011  0.5052881E+02  0.7816164E-02  0.1300439E+00
        -11   -1    0    0    0    0  0.00000000000E+00  0.00000000000E+00  0.45593999997E+02  0.45594000000E+02  0.51100000000E-03 0.  1.
         11   -1    0    0    0    0 -0.00000000000E+00 -0.00000000000E+00 -0.45593999997E+02  0.45594000000E+02  0.51100000000E-03 0. -1.
    9900012    2    1    2    0    0  0.83045938392E+01 -0.20759943967E+02  0.33959215041E+02  0.50528808683E+02  0.29999844472E+02 0.  0.
         12    1    1    2    0    0 -0.83045938392E+01  0.20759943967E+02 -0.33959215041E+02  0.40659191317E+02  0.00000000000E+00 0. -1.
         11    1    3    3    0    0  0.28591494201E+00 -0.79562634801E+01  0.94308617264E+01  0.12342002637E+02  0.51100000000E-03 0.  1.
        -11    1    3    3    0    0  0.48760602454E+00 -0.46212803991E+01 -0.48845149867E+01  0.67418453763E+01  0.51100000000E-03 0. -1.
        -12    1    3    3    0    0  0.75310728727E+01 -0.81824000875E+01  0.29412868302E+02  0.31444960670E+02  0.00000000000E+00 0.  1.
</event>
<event>
 7    1  0.2942034E-011  0.5052886E+02  0.7816164E-02  0.1300439E+00
        -11   -1    0    0    0    0  0.00000000000E+00  0.00000000000E+00  0.45593999997E+02  0.45594000000E+02  0.51100000000E-03 0.  1.
         11   -1    0    0    0    0 -0.00000000000E+00 -0.00000000000E+00 -0.45593999997E+02  0.45594000000E+02  0.51100000000E-03 0. -1.
    9900012    2    1    2    0    0 -0.88436121405E+01  0.20086789270E+02  0.34226846923E+02  0.50528860447E+02  0.30000001815E+02 0.  0.
         12    1    1    2    0    0  0.88436121405E+01 -0.20086789270E+02 -0.34226846923E+02  0.40659139553E+02  0.00000000000E+00 0. -1.
         11    1    3    3    0    0 -0.26714089650E+01  0.12460154585E+01  0.23469581008E+02  0.23653968237E+02  0.51100000000E-03 0. -1.
        -11    1    3    3    0    0 -0.18749626557E+01  0.19807501158E+02  0.70193204239E+01  0.21097948871E+02  0.51100000000E-03 0.  1.
         12    1    3    3    0    0 -0.42972405198E+01 -0.96672734671E+00  0.37379454912E+01  0.57769433391E+01  0.00000000000E+00 0. -1.
</event>
<event>
 7    1  0.2942034E-011  0.5052887E+02  0.7816164E-02  0.1300439E+00
        -11   -1    0    0    0    0  0.00000000000E+00  0.00000000000E+00  0.45593999997E+02  0.45594000000E+02  0.51100000000E-03 0.  1.
         11   -1    0    0    0    0 -0.00000000000E+00 -0.00000000000E+00 -0.45593999997E+02  0.45594000000E+02  0.51100000000E-03 0. -1.
    9900012    2    1    2    0    0  0.17782781712E+02  0.36521056278E+02 -0.17748245916E+01  0.50528869667E+02  0.30000029840E+02 0.  0.
         12    1    1    2    0    0 -0.17782781712E+02 -0.36521056278E+02  0.17748245916E+01  0.40659130333E+02  0.00000000000E+00 0. -1.
         11    1    3    3    0    0  0.17088068822E+02  0.30806715573E+02 -0.78899559463E+00  0.35237456417E+02  0.51100000000E-03 0. -1.
        -11    1    3    3    0    0 -0.65773411393E+01  0.14800345284E+01  0.44142873930E+00  0.67562399499E+01  0.51100000000E-03 0.  1.
         12    1    3    3    0    0  0.72720540298E+01  0.42343061769E+01 -0.14272577363E+01  0.85351732998E+01  0.00000000000E+00 0. -1.
</event>
<event>
 7    1  0.2942034E-011  0.5052886E+02  0.7816164E-02  0.1300439E+00
        -11   -1    0    0    0    0  0.00000000000E+00  0.00000000000E+00  0.45593999997E+02  0.45594000000E+02  0.51100000000E-03 0. -1.
         11   -1    0    0    0    0 -0.00000000000E+00 -0.00000000000E+00 -0.45593999997E+02  0.45594000000E+02  0.51100000000E-03 0.  1.
    9900012    2    1    2    0    0  0.30077203394E+02 -0.15968112137E+02 -0.22215918358E+02  0.50528858375E+02  0.29999995516E+02 0.  0.
         12    1    1    2    0    0 -0.30077203394E+02  0.15968112137E+02  0.22215918358E+02  0.40659141625E+02  0.00000000000E+00 0. -1.
         11    1    3    3    0    0  0.58582025734E+00 -0.97248613389E+01 -0.97988212471E-01  0.97429828792E+01  0.51100000000E-03 0. -1.
        -11    1    3    3    0    0  0.58261359973E+01  0.52295725565E+01 -0.66694651169E+01  0.10284651428E+02  0.51100000000E-03 0.  1.
         12    1    3    3    0    0  0.23665247139E+02 -0.11472823355E+02 -0.15448465029E+02  0.30501224068E+02  0.00000000000E+00 0. -1.
</event>
<event>
 7    1  0.2942034E-011  0.5052885E+02  0.7816164E-02  0.1300439E+00
        -11   -1    0    0    0    0  0.00000000000E+00  0.00000000000E+00  0.45593999997E+02  0.45594000000E+02  0.51100000000E-03 0. -1.
         11   -1    0    0    0    0 -0.00000000000E+00 -0.00000000000E+00 -0.45593999997E+02  0.45594000000E+02  0.51100000000E-03 0.  1.
    9900012    2    1    2    0    0 -0.30932126203E+02 -0.23958257221E+02 -0.11062169136E+02  0.50528854577E+02  0.29999983973E+02 0.  0.
         12    1    1    2    0    0  0.30932126203E+02  0.23958257221E+02  0.11062169136E+02  0.40659145423E+02  0.00000000000E+00 0. -1.
         11    1    3    3    0    0 -0.92295731078E+01 -0.13533170605E+01  0.22756160010E+01  0.96018183311E+01  0.51100000000E-03 0. -1.
        -11    1    3    3    0    0 -0.10811958032E+02 -0.15675389814E+02 -0.18937928049E+02  0.26856310271E+02  0.51100000000E-03 0.  1.
        -12    1    3    3    0    0 -0.10890595063E+02 -0.69295503466E+01  0.56001429121E+01  0.14070725975E+02  0.00000000000E+00 0.  1.
</event>
<event>
 7    1  0.2942034E-011  0.5052886E+02  0.7816164E-02  0.1300439E+00
        -11   -1    0    0    0    0  0.00000000000E+00  0.00000000000E+00  0.45593999997E+02  0.45594000000E+02  0.51100000000E-03 0.  1.
         11   -1    0    0    0    0 -0.00000000000E+00 -0.00000000000E+00 -0.45593999997E+02  0.45594000000E+02  0.51100000000E-03 0. -1.
    9900012    2    1    2    0    0  0.16853235349E+01 -0.30967428993E+02  0.26293411958E+02  0.50528862205E+02  0.30000007159E+02 0.  0.
         12    1    1    2    0    0 -0.16853235349E+01  0.30967428993E+02 -0.26293411958E+02  0.40659137795E+02  0.00000000000E+00 0. -1.
         11    1    3    3    0    0  0.28181569201E+01 -0.78698102534E-01  0.40410515138E+00  0.28480700574E+01  0.51100000000E-03 0. -1.
        -11    1    3    3    0    0 -0.57980863137E+01 -0.32700968962E+02  0.26697150154E+02  0.42611137072E+02  0.51100000000E-03 0.  1.
        -12    1    3    3    0    0  0.46652529285E+01  0.18122380714E+01 -0.80784334778E+00  0.50696550760E+01  0.00000000000E+00 0.  1.
</event>
<event>
 7    1  0.2942034E-011  0.5052887E+02  0.7816164E-02  0.1300439E+00
        -11   -1    0    0    0    0  0.00000000000E+00  0.00000000000E+00  0.45593999997E+02  0.45594000000E+02  0.51100000000E-03 0.  1.
         11   -1    0    0    0    0 -0.00000000000E+00 -0.00000000000E+00 -0.45593999997E+02  0.45594000000E+02  0.51100000000E-03 0. -1.
    9900012    2    1    2    0    0  0.28681120804E+02  0.26764167367E+02  0.10688213257E+02  0.50528865134E+02  0.30000016062E+02 0.  0.
         12    1    1    2    0    0 -0.28681120804E+02 -0.26764167367E+02 -0.10688213257E+02  0.40659134866E+02  0.00000000000E+00 0. -1.
         11    1    3    3    0    0  0.97382217078E+00  0.16525537439E+02  0.46042562631E+01  0.17182575280E+02  0.51100000000E-03 0. -1.
        -11    1    3    3    0    0  0.27709824578E+02  0.10672881355E+02  0.85037510392E+01  0.30887838328E+02  0.51100000000E-03 0.  1.
         12    1    3    3    0    0 -0.25259452359E-02 -0.43425142718E+00 -0.24197940457E+01  0.24584515261E+01  0.00000000000E+00 0. -1.
</event>
<event>
 7    1  0.2942034E-011  0.5052886E+02  0.7816164E-02  0.1300439E+00
        -11   -1    0    0    0    0  0.00000000000E+00  0.00000000000E+00  0.45593999997E+02  0.45594000000E+02  0.51100000000E-03 0.  1.
         11   -1    0    0    0    0 -0.00000000000E+00 -0.00000000000E+00 -0.45593999997E+02  0.45594000000E+02  0.51100000000E-03 0. -1.
    9900012    2    1    2    0    0 -0.98338693213E+01  0.27297668462E+02  0.28483290879E+02  0.50528861439E+02  0.30000004829E+02 0.  0.
         12    1    1    2    0    0  0.98338693213E+01 -0.27297668462E+02 -0.28483290879E+02  0.40659138561E+02  0.00000000000E+00 0. -1.
         11    1    3    3    0    0  0.12149852943E+01  0.13752766058E+01  0.44086614944E+00  0.18873097866E+01  0.51100000000E-03 0. -1.
        -11    1    3    3    0    0 -0.36275477051E+01  0.27951197020E+02  0.29511651612E+02  0.40808897294E+02  0.51100000000E-03 0.  1.
        -12    1    3    3    0    0 -0.74213069106E+01 -0.20288051644E+01 -0.14692268827E+01  0.78326543578E+01  0.00000000000E+00 0.  1.
</event>
<event>
 7    1  0.2942034E-011  0.5052881E+02  0.7816164E-02  0.1300439E+00
        -11   -1    0    0    0    0  0.00000000000E+00  0.00000000000E+00  0.45593999997E+02  0.45594000000E+02  0.51100000000E-03 0.  1.
         11   -1    0    0    0    0 -0.00000000000E+00 -0.00000000000E+00 -0.45593999997E+02  0.45594000000E+02  0.51100000000E-03 0. -1.
    9900012    2    1    2    0    0  0.24641691743E+02  0.27726336411E+02  0.16649527129E+02  0.50528813383E+02  0.29999858758E+02 0.  0.
         12    1    1    2    0    0 -0.24641691743E+02 -0.27726336411E+02 -0.16649527129E+02  0.40659186617E+02  0.00000000000E+00 0. -1.
         11    1    3    3    0    0  0.15111957030E+02  0.16705262520E+02 -0.22065621644E+01  0.22634176768E+02  0.51100000000E-03 0. -1.
        -11    1    3    3    0    0  0.10573103748E+02  0.14047739010E+01  0.11899861199E+02  0.15980319440E+02  0.51100000000E-03 0.  1.
         12    1    3    3    0    0 -0.10433690347E+01  0.96162999906E+01  0.69562280936E+01  0.11914317175E+02  0.00000000000E+00 0. -1.
</event>
<event>
 7    1  0.2942034E-011  0.5052886E+02  0.7816164E-02  0.1300439E+00
        -11   -1    0    0    0    0  0.00000000000E+00  0.00000000000E+00  0.45593999997E+02  0.45594000000E+02  0.51100000000E-03 0.  1.
         11   -1    0    0    0    0 -0.00000000000E+00 -0.00000000000E+00 -0.45593999997E+02  0.45594000000E+02  0.51100000000E-03 0. -1.
    9900012    2    1    2    0    0  0.40492426867E+02  0.14792875636E+01  0.33676599129E+01  0.50528855167E+02  0.29999985765E+02 0.  0.
         12    1    1    2    0    0 -0.40492426867E+02 -0.14792875636E+01 -0.33676599129E+01  0.40659144833E+02  0.00000000000E+00 0. -1.
         11    1    3    3    0    0  0.13856802346E+02 -0.27201290210E+01  0.12093183484E+02  0.18591803575E+02  0.51100000000E-03 0. -1.
        -11    1    3    3    0    0  0.13231997335E+02  0.85019820274E+01 -0.72395970252E+00  0.15744636222E+02  0.51100000000E-03 0.  1.
         12    1    3    3    0    0  0.13403627186E+02 -0.43025654428E+01 -0.80015638689E+01  0.16192415369E+02  0.00000000000E+00 0. -1.
</event>
<event>
 7    1  0.2942034E-011  0.5052884E+02  0.7816164E-02  0.1300439E+00
        -11   -1    0    0    0    0  0.00000000000E+00  0.00000000000E+00  0.45593999997E+02  0.45594000000E+02  0.51100000000E-03 0.  1.
         11   -1    0    0    0    0 -0.00000000000E+00 -0.00000000000E+00 -0.45593999997E+02  0.45594000000E+02  0.51100000000E-03 0. -1.
    9900012    2    1    2    0    0  0.22932248622E+01 -0.15142219533E+02  0.37664593925E+02  0.50528839554E+02  0.29999938309E+02 0.  0.
         12    1    1    2    0    0 -0.22932248622E+01  0.15142219533E+02 -0.37664593925E+02  0.40659160446E+02  0.00000000000E+00 0. -1.
         11    1    3    3    0    0 -0.40366062498E+01  0.80821517960E+01  0.71838974238E+01  0.11542259316E+02  0.51100000000E-03 0.  1.
        -11    1    3    3    0    0  0.15491746510E+01 -0.11718504670E+02  0.15776083600E+02  0.19713145559E+02  0.51100000000E-03 0. -1.
        -12    1    3    3    0    0  0.47806564611E+01 -0.11505866659E+02  0.14704612900E+02  0.19273434679E+02  0.00000000000E+00 0.  1.
</event>
<event>
 7    1  0.2942034E-011  0.5052885E+02  0.7816164E-02  0.1300439E+00
        -11   -1    0    0    0    0  0.00000000000E+00  0.00000000000E+00  0.45593999997E+02  0.45594000000E+02  0.51100000000E-03 0.  1.
         11   -1    0    0    0    0 -0.00000000000E+00 -0.00000000000E+00 -0.45593999997E+02  0.45594000000E+02  0.51100000000E-03 0. -1.
    9900012    2    1    2    0    0  0.22356931801E+02  0.13340511142E+02  0.31230826132E+02  0.50528854191E+02  0.29999982798E+02 0.  0.
         12    1    1    2    0    0 -0.22356931801E+02 -0.13340511142E+02 -0.31230826132E+02  0.40659145809E+02  0.00000000000E+00 0. -1.
         11    1    3    3    0    0  0.12154265586E+02  0.49868971617E+01  0.26081938195E+02  0.29203815085E+02  0.51100000000E-03 0.  1.
        -11    1    3    3    0    0  0.52652826279E+01  0.12914537835E+02  0.29725055581E+01  0.14259883527E+02  0.51100000000E-03 0. -1.
         12    1    3    3    0    0  0.49373835871E+01 -0.45609238553E+01  0.21763823785E+01  0.70651555791E+01  0.00000000000E+00 0. -1.
</event>
<event>
 7    1  0.2942034E-011  0.5052887E+02  0.7816164E-02  0.1300439E+00
        -11   -1    0    0    0    0  0.00000000000E+00  0.00000000000E+00  0.45593999997E+02  0.45594000000E+02  0.51100000000E-03 0.  1.
         11   -1    0    0    0    0 -0.00000000000E+00 -0.00000000000E+00 -0.45593999997E+02  0.45594000000E+02  0.51100000000E-03 0. -1.
    9900012    2    1    2    0    0 -0.32668512732E+02  0.22832091486E+02 -0.80392153920E+01  0.50528866834E+02  0.30000021227E+02 0.  0.
         12    1    1    2    0    0  0.32668512732E+02 -0.22832091486E+02  0.80392153920E+01  0.40659133166E+02  0.00000000000E+00 0. -1.
         11    1    3    3    0    0 -0.41487725170E+01 -0.25220730696E+01 -0.61452295414E+00  0.48939559345E+01  0.51100000000E-03 0. -1.
        -11    1    3    3    0    0 -0.28025571350E+02  0.25932042007E+02 -0.11175722788E-01  0.38182503550E+02  0.51100000000E-03 0.  1.
        -12    1    3    3    0    0 -0.49416886458E+00 -0.57787745195E+00 -0.74135167150E+01  0.74524073493E+01  0.00000000000E+00 0.  1.
</event>
<event>
 7    1  0.2942034E-011  0.5052886E+02  0.7816164E-02  0.1300439E+00
        -11   -1    0    0    0    0  0.00000000000E+00  0.00000000000E+00  0.45593999997E+02  0.45594000000E+02  0.51100000000E-03 0.  1.
         11   -1    0    0    0    0 -0.00000000000E+00 -0.00000000000E+00 -0.45593999997E+02  0.45594000000E+02  0.51100000000E-03 0. -1.
    9900012    2    1    2    0    0 -0.17915122062E+02  0.36373157276E+02  0.30343627546E+01  0.50528861715E+02  0.30000005669E+02 0.  0.
         12    1    1    2    0    0  0.17915122062E+02 -0.36373157276E+02 -0.30343627546E+01  0.40659138285E+02  0.00000000000E+00 0. -1.
         11    1    3    3    0    0  0.29572885329E+01 -0.12997684821E+01  0.55680180632E+01  0.64372182647E+01  0.51100000000E-03 0. -1.
        -11    1    3    3    0    0 -0.63791336307E+01  0.15294218518E+02  0.30542868301E+01  0.16850374900E+02  0.51100000000E-03 0.  1.
         12    1    3    3    0    0 -0.14493276965E+02  0.22378707240E+02 -0.55879421387E+01  0.27241268551E+02  0.00000000000E+00 0. -1.
</event>
<event>
 7    1  0.2942034E-011  0.5052886E+02  0.7816164E-02  0.1300439E+00
        -11   -1    0    0    0    0  0.00000000000E+00  0.00000000000E+00  0.45593999997E+02  0.45594000000E+02  0.51100000000E-03 0.  1.
         11   -1    0    0    0    0 -0.00000000000E+00 -0.00000000000E+00 -0.45593999997E+02  0.45594000000E+02  0.51100000000E-03 0. -1.
    9900012    2    1    2    0    0  0.16885323462E+02  0.18012332362E+02  0.32304917125E+02  0.50528856674E+02  0.29999990346E+02 0.  0.
         12    1    1    2    0    0 -0.16885323462E+02 -0.18012332362E+02 -0.32304917125E+02  0.40659143326E+02  0.00000000000E+00 0. -1.
         11    1    3    3    0    0  0.17209894520E+02  0.30222764237E+01  0.65045271311E+01  0.18644664053E+02  0.51100000000E-03 0. -1.
        -11    1    3    3    0    0  0.20153568051E+01  0.15425125075E+02  0.18316822571E+02  0.24031274124E+02  0.51100000000E-03 0.  1.
         12    1    3    3    0    0 -0.23399278633E+01 -0.43506913684E+00  0.74835674227E+01  0.78529184975E+01  0.00000000000E+00 0. -1.
</event>
<event>
 7    1  0.2942034E-011  0.5052885E+02  0.7816164E-02  0.1300439E+00
        -11   -1    0    0    0    0  0.00000000000E+00  0.00000000000E+00  0.45593999997E+02  0.45594000000E+02  0.51100000000E-03 0.  1.
         11   -1    0    0    0    0 -0.00000000000E+00 -0.00000000000E+00 -0.45593999997E+02  0.45594000000E+02  0.51100000000E-03 0. -1.
    9900012    2    1    2    0    0 -0.33877059581E+02  0.21157437998E+02  0.76075051606E+01  0.50528849944E+02  0.29999969889E+02 0.  0.
         12    1    1    2    0    0  0.33877059581E+02 -0.21157437998E+02 -0.76075051606E+01  0.40659150056E+02  0.00000000000E+00 0. -1.
         11    1    3    3    0    0 -0.20914690202E+02  0.43048547610E+01 -0.32924845449E+01  0.21605473739E+02  0.51100000000E-03 0. -1.
        -11    1    3    3    0    0  0.25939356215E+01  0.89657284275E+01  0.42795016123E+01  0.10267761322E+02  0.51100000000E-03 0.  1.
        -12    1    3    3    0    0 -0.15556305001E+02  0.78868548096E+01  0.66204880932E+01  0.18655614883E+02  0.00000000000E+00 0.  1.
</event>
<event>
 7    1  0.2942034E-011  0.5052886E+02  0.7816164E-02  0.1300439E+00
        -11   -1    0    0    0    0  0.00000000000E+00  0.00000000000E+00  0.45593999997E+02  0.45594000000E+02  0.51100000000E-03 0.  1.
         11   -1    0    0    0    0 -0.00000000000E+00 -0.00000000000E+00 -0.45593999997E+02  0.45594000000E+02  0.51100000000E-03 0. -1.
    9900012    2    1    2    0    0 -0.33647399355E+02  0.13721289823E+02  0.18241275290E+02  0.50528863241E+02  0.30000010308E+02 0.  0.
         12    1    1    2    0    0  0.33647399355E+02 -0.13721289823E+02 -0.18241275290E+02  0.40659136759E+02  0.00000000000E+00 0. -1.
         11    1    3    3    0    0 -0.14280621180E+01 -0.57353634329E+01  0.49325705171E+01  0.76983119765E+01  0.51100000000E-03 0. -1.
        -11    1    3    3    0    0 -0.13398220021E+02  0.16281985058E+02  0.35125413608E+01  0.21376465663E+02  0.51100000000E-03 0.  1.
        -12    1    3    3    0    0 -0.18821117216E+02  0.31746681985E+01  0.97961634119E+01  0.21454085602E+02  0.00000000000E+00 0.  1.
</event>
<event>
 7    1  0.2942034E-011  0.5052886E+02  0.7816164E-02  0.1300439E+00
        -11   -1    0    0    0    0  0.00000000000E+00  0.00000000000E+00  0.45593999997E+02  0.45594000000E+02  0.51100000000E-03 0.  1.
         11   -1    0    0    0    0 -0.00000000000E+00 -0.00000000000E+00 -0.45593999997E+02  0.45594000000E+02  0.51100000000E-03 0. -1.
    9900012    2    1    2    0    0 -0.27275411051E+02  0.10950158188E+02  0.28094688233E+02  0.50528861799E+02  0.30000005924E+02 0.  0.
         12    1    1    2    0    0  0.27275411051E+02 -0.10950158188E+02 -0.28094688233E+02  0.40659138201E+02  0.00000000000E+00 0. -1.
         11    1    3    3    0    0 -0.14100015751E+02  0.14053370899E+02  0.18842667267E+02  0.27410833402E+02  0.51100000000E-03 0. -1.
        -11    1    3    3    0    0 -0.16488908613E+01 -0.54606560767E+01 -0.27315409549E+01  0.63244701051E+01  0.51100000000E-03 0.  1.
        -12    1    3    3    0    0 -0.11526504438E+02  0.23574433660E+01  0.11983561921E+02  0.16793558292E+02  0.00000000000E+00 0.  1.
</event>
<event>
 7    1  0.2942034E-011  0.5052885E+02  0.7816164E-02  0.1300439E+00
        -11   -1    0    0    0    0  0.00000000000E+00  0.00000000000E+00  0.45593999997E+02  0.45594000000E+02  0.51100000000E-03 0. -1.
         11   -1    0    0    0    0 -0.00000000000E+00 -0.00000000000E+00 -0.45593999997E+02  0.45594000000E+02  0.51100000000E-03 0.  1.
    9900012    2    1    2    0    0  0.23981122856E+01 -0.17137888839E+02 -0.36792770449E+02  0.50528854243E+02  0.29999982958E+02 0.  0.
         12    1    1    2    0    0 -0.23981122856E+01  0.17137888839E+02  0.36792770449E+02  0.40659145757E+02  0.00000000000E+00 0. -1.
         11    1    3    3    0    0  0.21767541418E+01  0.54168610884E+01  0.36143478396E+00  0.58490407768E+01  0.51100000000E-03 0. -1.
        -11    1    3    3    0    0 -0.23586671091E+01 -0.14895842901E+02 -0.15776163872E+02  0.21825141306E+02  0.51100000000E-03 0.  1.
        -12    1    3    3    0    0  0.25800252530E+01 -0.76589070263E+01 -0.21378041361E+02  0.22854672160E+02  0.00000000000E+00 0.  1.
</event>
<event>
 7    1  0.2942034E-011  0.5052886E+02  0.7816164E-02  0.1300439E+00
        -11   -1    0    0    0    0  0.00000000000E+00  0.00000000000E+00  0.45593999997E+02  0.45594000000E+02  0.51100000000E-03 0.  1.
         11   -1    0    0    0    0 -0.00000000000E+00 -0.00000000000E+00 -0.45593999997E+02  0.45594000000E+02  0.51100000000E-03 0. -1.
    9900012    2    1    2    0    0  0.53806644592E+01  0.26620069336E+02  0.30258648949E+02  0.50528862310E+02  0.30000007478E+02 0.  0.
         12    1    1    2    0    0 -0.53806644592E+01 -0.26620069336E+02 -0.30258648949E+02  0.40659137690E+02  0.00000000000E+00 0. -1.
         11    1    3    3    0    0 -0.30265859779E+01  0.93223807410E+01  0.12578170197E+02  0.15946076982E+02  0.51100000000E-03 0. -1.
        -11    1    3    3    0    0  0.81773878995E+01  0.21242310672E+02  0.79998552811E+01  0.24126813306E+02  0.51100000000E-03 0.  1.
        -12    1    3    3    0    0  0.22986253763E+00 -0.39446220773E+01  0.96806234710E+01  0.10455972021E+02  0.00000000000E+00 0.  1.
</event>
<event>
 7    1  0.2942034E-011  0.5052885E+02  0.7816164E-02  0.1300439E+00
        -11   -1    0    0    0    0  0.00000000000E+00  0.00000000000E+00  0.45593999997E+02  0.45594000000E+02  0.51100000000E-03 0.  1.
         11   -1    0    0    0    0 -0.00000000000E+00 -0.00000000000E+00 -0.45593999997E+02  0.45594000000E+02  0.51100000000E-03 0. -1.
    9900012    2    1    2    0    0  0.79310099586E+01  0.56268134679E+01  0.39479164708E+02  0.50528851032E+02  0.29999973197E+02 0.  0.
         12    1    1    2    0    0 -0.79310099586E+01 -0.56268134679E+01 -0.39479164708E+02  0.40659148968E+02  0.00000000000E+00 0. -1.
         11    1    3    3    0    0  0.28831643732E+01  0.11195465322E+02  0.84709361632E+01  0.14332056389E+02  0.51100000000E-03 0. -1.
        -11    1    3    3    0    0  0.92391020579E+01 -0.91959862203E+01  0.20024320656E+02  0.23893526056E+02  0.51100000000E-03 0.  1.
         12    1    3    3    0    0 -0.41912564725E+01  0.36273343658E+01  0.10983907889E+02  0.12303268587E+02  0.00000000000E+00 0. -1.
</event>
<event>
 7    1  0.2942034E-011  0.5052886E+02  0.7816164E-02  0.1300439E+00
        -11   -1    0    0    0    0  0.00000000000E+00  0.00000000000E+00  0.45593999997E+02  0.45594000000E+02  0.51100000000E-03 0.  1.
         11   -1    0    0    0    0 -0.00000000000E+00 -0.00000000000E+00 -0.45593999997E+02  0.45594000000E+02  0.51100000000E-03 0. -1.
    9900012    2    1    2    0    0 -0.10475487906E+02 -0.35861789314E+00  0.39284870189E+02  0.50528862289E+02  0.30000007413E+02 0.  0.
         12    1    1    2    0    0  0.10475487906E+02  0.35861789314E+00 -0.39284870189E+02  0.40659137711E+02  0.00000000000E+00 0. -1.
         11    1    3    3    0    0  0.12199946156E+01  0.40594230838E+01  0.25176369214E+01  0.49300911315E+01  0.51100000000E-03 0. -1.
        -11    1    3    3    0    0 -0.18995121047E+02 -0.23106318188E+01  0.28908885563E+02  0.34668102165E+02  0.51100000000E-03 0.  1.
        -12    1    3    3    0    0  0.72996385256E+01 -0.21074091581E+01  0.78583477051E+01  0.10930668992E+02  0.00000000000E+00 0.  1.
</event>
<event>
 7    1  0.2942034E-011  0.5052885E+02  0.7816164E-02  0.1300439E+00
        -11   -1    0    0    0    0  0.00000000000E+00  0.00000000000E+00  0.45593999997E+02  0.45594000000E+02  0.51100000000E-03 0.  1.
         11   -1    0    0    0    0 -0.00000000000E+00 -0.00000000000E+00 -0.45593999997E+02  0.45594000000E+02  0.51100000000E-03 0. -1.
    9900012    2    1    2    0    0 -0.93661553668E+01  0.24444095777E+02  0.31111536674E+02  0.50528850981E+02  0.29999973041E+02 0.  0.
         12    1    1    2    0    0  0.93661553668E+01 -0.24444095777E+02 -0.31111536674E+02  0.40659149019E+02  0.00000000000E+00 0. -1.
         11    1    3    3    0    0 -0.34862467249E+01 -0.39087171184E+01  0.44545357444E+00  0.52564641050E+01  0.51100000000E-03 0. -1.
        -11    1    3    3    0    0 -0.85875294783E+01  0.18929398930E+02  0.11528000728E+02  0.23768942076E+02  0.51100000000E-03 0.  1.
         12    1    3    3    0    0  0.27076208364E+01  0.94234139660E+01  0.19138082372E+02  0.21503444799E+02  0.00000000000E+00 0. -1.
</event>
<event>
 7    1  0.2942034E-011  0.5052886E+02  0.7816164E-02  0.1300439E+00
        -11   -1    0    0    0    0  0.00000000000E+00  0.00000000000E+00  0.45593999997E+02  0.45594000000E+02  0.51100000000E-03 0.  1.
         11   -1    0    0    0    0 -0.00000000000E+00 -0.00000000000E+00 -0.45593999997E+02  0.45594000000E+02  0.51100000000E-03 0. -1.
    9900012    2    1    2    0    0  0.12717831739E+02  0.33111338289E+02  0.19876160227E+02  0.50528859418E+02  0.29999998688E+02 0.  0.
         12    1    1    2    0    0 -0.12717831739E+02 -0.33111338289E+02 -0.19876160227E+02  0.40659140582E+02  0.00000000000E+00 0. -1.
         11    1    3    3    0    0 -0.19717230893E+01  0.42007409554E+01  0.10461934323E+02  0.11444910945E+02  0.51100000000E-03 0. -1.
        -11    1    3    3    0    0  0.18745092563E+02  0.18310157391E+02  0.39943309743E+01  0.26506509371E+02  0.51100000000E-03 0.  1.
        -12    1    3    3    0    0 -0.40555377340E+01  0.10600439943E+02  0.54198949304E+01  0.12577439102E+02  0.00000000000E+00 0.  1.
</event>
<event>
 7    1  0.2942034E-011  0.5052889E+02  0.7816164E-02  0.1300439E+00
        -11   -1    0    0    0    0  0.00000000000E+00  0.00000000000E+00  0.45593999997E+02  0.45594000000E+02  0.51100000000E-03 0.  1.
         11   -1    0    0    0    0 -0.00000000000E+00 -0.00000000000E+00 -0.45593999997E+02  0.45594000000E+02  0.51100000000E-03 0. -1.
    9900012    2    1    2    0    0  0.37854476064E+02 -0.12632305835E+02 -0.77863077795E+01  0.50528891579E+02  0.30000096442E+02 0.  0.
         12    1    1    2    0    0 -0.37854476064E+02  0.12632305835E+02  0.77863077795E+01  0.40659108421E+02  0.00000000000E+00 0. -1.
         11    1    3    3    0    0  0.49188149860E+01  0.47282704356E+01  0.42632452612E+01  0.80452807656E+01  0.51100000000E-03 0. -1.
        -11    1    3    3    0    0  0.32145394460E+02 -0.18300682565E+02 -0.74625107265E+01  0.37735002768E+02  0.51100000000E-03 0.  1.
         12    1    3    3    0    0  0.79026661824E+00  0.94010629380E+00 -0.45870423142E+01  0.47486080449E+01  0.00000000000E+00 0. -1.
</event>
<event>
 7    1  0.2942034E-011  0.5052887E+02  0.7816164E-02  0.1300439E+00
        -11   -1    0    0    0    0  0.00000000000E+00  0.00000000000E+00  0.45593999997E+02  0.45594000000E+02  0.51100000000E-03 0. -1.
         11   -1    0    0    0    0 -0.00000000000E+00 -0.00000000000E+00 -0.45593999997E+02  0.45594000000E+02  0.51100000000E-03 0.  1.
    9900012    2    1    2    0    0 -0.46256366190E+01  0.32290425000E+02 -0.24271317937E+02  0.50528868982E+02  0.30000027756E+02 0.  0.
         12    1    1    2    0    0  0.46256366190E+01 -0.32290425000E+02  0.24271317937E+02  0.40659131018E+02  0.00000000000E+00 0. -1.
         11    1    3    3    0    0 -0.47363755758E+01 -0.33798384250E+01 -0.10641768909E+02  0.12128635832E+02  0.51100000000E-03 0. -1.
        -11    1    3    3    0    0 -0.20727525630E+00  0.15809043201E+02 -0.81868534615E+01  0.17804307900E+02  0.51100000000E-03 0.  1.
         12    1    3    3    0    0  0.31801421306E+00  0.19861220224E+02 -0.54426955659E+01  0.20595925249E+02  0.00000000000E+00 0. -1.
</event>
<event>
 7    1  0.2942034E-011  0.5052886E+02  0.7816164E-02  0.1300439E+00
        -11   -1    0    0    0    0  0.00000000000E+00  0.00000000000E+00  0.45593999997E+02  0.45594000000E+02  0.51100000000E-03 0.  1.
         11   -1    0    0    0    0 -0.00000000000E+00 -0.00000000000E+00 -0.45593999997E+02  0.45594000000E+02  0.51100000000E-03 0. -1.
    9900012    2    1    2    0    0  0.15903900745E+01 -0.32089308600E+02  0.24918119974E+02  0.50528858715E+02  0.29999996550E+02 0.  0.
         12    1    1    2    0    0 -0.15903900745E+01  0.32089308600E+02 -0.24918119974E+02  0.40659141285E+02  0.00000000000E+00 0. -1.
         11    1    3    3    0    0  0.10875182861E+02 -0.96306435313E+01  0.25458666034E+01  0.14747892531E+02  0.51100000000E-03 0. -1.
        -11    1    3    3    0    0 -0.33667825400E+00 -0.16581292548E+02  0.97827638301E+01  0.19255001512E+02  0.51100000000E-03 0.  1.
         12    1    3    3    0    0 -0.89481145329E+01 -0.58773725203E+01  0.12589489540E+02  0.16525964671E+02  0.00000000000E+00 0. -1.
</event>
<event>
 7    1  0.2942034E-011  0.5052886E+02  0.7816164E-02  0.1300439E+00
        -11   -1    0    0    0    0  0.00000000000E+00  0.00000000000E+00  0.45593999997E+02  0.45594000000E+02  0.51100000000E-03 0. -1.
         11   -1    0    0    0    0 -0.00000000000E+00 -0.00000000000E+00 -0.45593999997E+02  0.45594000000E+02  0.51100000000E-03 0.  1.
    9900012    2    1    2    0    0  0.23261406074E+02  0.33285871767E+02 -0.20306282374E+01  0.50528859295E+02  0.29999998313E+02 0.  0.
         12    1    1    2    0    0 -0.23261406074E+02 -0.33285871767E+02  0.20306282374E+01  0.40659140705E+02  0.00000000000E+00 0. -1.
         11    1    3    3    0    0  0.14018097319E+02  0.54841419529E+00  0.54323985401E+01  0.15043894600E+02  0.51100000000E-03 0. -1.
        -11    1    3    3    0    0  0.24847799838E+01  0.11486470973E+02  0.61213165889E+00  0.11768086183E+02  0.51100000000E-03 0.  1.
         12    1    3    3    0    0  0.67585287713E+01  0.21250986599E+02 -0.80751584363E+01  0.23716878512E+02  0.00000000000E+00 0. -1.
</event>
<event>
 7    1  0.2942034E-011  0.5052886E+02  0.7816164E-02  0.1300439E+00
        -11   -1    0    0    0    0  0.00000000000E+00  0.00000000000E+00  0.45593999997E+02  0.45594000000E+02  0.51100000000E-03 0. -1.
         11   -1    0    0    0    0 -0.00000000000E+00 -0.00000000000E+00 -0.45593999997E+02  0.45594000000E+02  0.51100000000E-03 0.  1.
    9900012    2    1    2    0    0 -0.34963776121E+02  0.16294430517E+02 -0.12852691726E+02  0.50528858456E+02  0.29999995762E+02 0.  0.
         12    1    1    2    0    0  0.34963776121E+02 -0.16294430517E+02  0.12852691726E+02  0.40659141544E+02  0.00000000000E+00 0. -1.
         11    1    3    3    0    0 -0.20184421101E+00  0.29947534959E+01  0.59410637643E+01  0.66562398169E+01  0.51100000000E-03 0. -1.
        -11    1    3    3    0    0 -0.31240342616E+02  0.66009164273E+01 -0.16630698890E+02  0.36001545110E+02  0.51100000000E-03 0.  1.
        -12    1    3    3    0    0 -0.35215892938E+01  0.66987605937E+01 -0.21630566008E+01  0.78710735294E+01  0.00000000000E+00 0.  1.
</event>
<event>
 7    1  0.2942034E-011  0.5052886E+02  0.7816164E-02  0.1300439E+00
        -11   -1    0    0    0    0  0.00000000000E+00  0.00000000000E+00  0.45593999997E+02  0.45594000000E+02  0.51100000000E-03 0.  1.
         11   -1    0    0    0    0 -0.00000000000E+00 -0.00000000000E+00 -0.45593999997E+02  0.45594000000E+02  0.51100000000E-03 0. -1.
    9900012    2    1    2    0    0  0.26228620257E+02  0.15800102838E+02  0.26750364826E+02  0.50528858486E+02  0.29999995855E+02 0.  0.
         12    1    1    2    0    0 -0.26228620257E+02 -0.15800102838E+02 -0.26750364826E+02  0.40659141514E+02  0.00000000000E+00 0. -1.
         11    1    3    3    0    0  0.75876843552E+01  0.30572245496E+01 -0.44628581409E+01  0.93186200087E+01  0.51100000000E-03 0.  1.
        -11    1    3    3    0    0  0.11304277567E+02  0.14784221861E+02  0.17616770852E+02  0.25626363824E+02  0.51100000000E-03 0. -1.
         12    1    3    3    0    0  0.73366583352E+01 -0.20413435720E+01  0.13596452115E+02  0.15583874654E+02  0.00000000000E+00 0. -1.
</event>
<event>
 7    1  0.2942034E-011  0.5052887E+02  0.7816164E-02  0.1300439E+00
        -11   -1    0    0    0    0  0.00000000000E+00  0.00000000000E+00  0.45593999997E+02  0.45594000000E+02  0.51100000000E-03 0.  1.
         11   -1    0    0    0    0 -0.00000000000E+00 -0.00000000000E+00 -0.45593999997E+02  0.45594000000E+02  0.51100000000E-03 0. -1.
    9900012    2    1    2    0    0  0.15547151569E+02  0.34937765309E+02  0.13813169134E+02  0.50528868084E+02  0.30000025027E+02 0.  0.
         12    1    1    2    0    0 -0.15547151569E+02 -0.34937765309E+02 -0.13813169134E+02  0.40659131916E+02  0.00000000000E+00 0. -1.
         11    1    3    3    0    0  0.14317855326E+02  0.33366296277E+02  0.10225662387E+02  0.37721013771E+02  0.51100000000E-03 0.  1.
        -11    1    3    3    0    0  0.17088249583E+01 -0.20854812330E+01 -0.37364460963E+01  0.46076397866E+01  0.51100000000E-03 0. -1.
        -12    1    3    3    0    0 -0.47952871537E+00  0.36569502646E+01  0.73239528429E+01  0.82002145260E+01  0.00000000000E+00 0.  1.
</event>
<event>
 7    1  0.2942034E-011  0.5052885E+02  0.7816164E-02  0.1300439E+00
        -11   -1    0    0    0    0  0.00000000000E+00  0.00000000000E+00  0.45593999997E+02  0.45594000000E+02  0.51100000000E-03 0. -1.
         11   -1    0    0    0    0 -0.00000000000E+00 -0.00000000000E+00 -0.45593999997E+02  0.45594000000E+02  0.51100000000E-03 0.  1.
    9900012    2    1    2    0    0  0.35598504797E+02  0.10436589230E+02 -0.16643032832E+02  0.50528849980E+02  0.29999969999E+02 0.  0.
         12    1    1    2    0    0 -0.35598504797E+02 -0.10436589230E+02  0.16643032832E+02  0.40659150020E+02  0.00000000000E+00 0. -1.
         11    1    3    3    0    0  0.24800270934E+02  0.55384046982E+01 -0.18777429590E+02  0.31596190075E+02  0.51100000000E-03 0.  1.
        -11    1    3    3    0    0  0.12898067748E+02  0.50033464825E+01  0.55627306750E+01  0.14910989252E+02  0.51100000000E-03 0. -1.
         12    1    3    3    0    0 -0.20998338860E+01 -0.10516195069E+00 -0.34283339176E+01  0.40216706522E+01  0.00000000000E+00 0. -1.
</event>
<event>
 7    1  0.2942034E-011  0.5052886E+02  0.7816164E-02  0.1300439E+00
        -11   -1    0    0    0    0  0.00000000000E+00  0.00000000000E+00  0.45593999997E+02  0.45594000000E+02  0.51100000000E-03 0.  1.
         11   -1    0    0    0    0 -0.00000000000E+00 -0.00000000000E+00 -0.45593999997E+02  0.45594000000E+02  0.51100000000E-03 0. -1.
    9900012    2    1    2    0    0  0.18959713141E+02 -0.34680005863E+02  0.95389719292E+01  0.50528861857E+02  0.30000006100E+02 0.  0.
         12    1    1    2    0    0 -0.18959713141E+02  0.34680005863E+02 -0.95389719292E+01  0.40659138143E+02  0.00000000000E+00 0. -1.
         11    1    3    3    0    0 -0.19517861243E+01 -0.51007079813E+01  0.12904778626E+02  0.14012851338E+02  0.51100000000E-03 0. -1.
        -11    1    3    3    0    0  0.62892090785E+01 -0.84068412445E+01  0.42320950763E+00  0.10507532398E+02  0.51100000000E-03 0.  1.
         12    1    3    3    0    0  0.14622290187E+02 -0.21172456637E+02 -0.37890162040E+01  0.26008478121E+02  0.00000000000E+00 0. -1.
</event>
<event>
 7    1  0.2942034E-011  0.5052885E+02  0.7816164E-02  0.1300439E+00
        -11   -1    0    0    0    0  0.00000000000E+00  0.00000000000E+00  0.45593999997E+02  0.45594000000E+02  0.51100000000E-03 0. -1.
         11   -1    0    0    0    0 -0.00000000000E+00 -0.00000000000E+00 -0.45593999997E+02  0.45594000000E+02  0.51100000000E-03 0.  1.
    9900012    2    1    2    0    0 -0.14883691436E+02 -0.27220894662E+02 -0.26280503018E+02  0.50528853233E+02  0.29999979887E+02 0.  0.
         12    1    1    2    0    0  0.14883691436E+02  0.27220894662E+02  0.26280503018E+02  0.40659146767E+02  0.00000000000E+00 0. -1.
         11    1    3    3    0    0  0.62096540725E+00  0.22765191022E+01 -0.10307649039E+02  0.10574297434E+02  0.51100000000E-03 0. -1.
        -11    1    3    3    0    0 -0.15202022410E+02 -0.14523612483E+02 -0.56689363453E+01  0.21775528569E+02  0.51100000000E-03 0.  1.
         12    1    3    3    0    0 -0.30263443317E+00 -0.14973801281E+02 -0.10303917633E+02  0.18179027229E+02  0.00000000000E+00 0. -1.
</event>
<event>
 7    1  0.2942034E-011  0.5052886E+02  0.7816164E-02  0.1300439E+00
        -11   -1    0    0    0    0  0.00000000000E+00  0.00000000000E+00  0.45593999997E+02  0.45594000000E+02  0.51100000000E-03 0.  1.
         11   -1    0    0    0    0 -0.00000000000E+00 -0.00000000000E+00 -0.45593999997E+02  0.45594000000E+02  0.51100000000E-03 0. -1.
    9900012    2    1    2    0    0 -0.60060784918E+00  0.15680082661E+02  0.37509195980E+02  0.50528861973E+02  0.30000006454E+02 0.  0.
         12    1    1    2    0    0  0.60060784918E+00 -0.15680082661E+02 -0.37509195980E+02  0.40659138027E+02  0.00000000000E+00 0. -1.
         11    1    3    3    0    0  0.12851844090E+02  0.12880149368E+02  0.16165277144E+02  0.24338946766E+02  0.51100000000E-03 0. -1.
        -11    1    3    3    0    0 -0.39542332575E+01 -0.20234748204E+01  0.50837477623E+01  0.67509186467E+01  0.51100000000E-03 0.  1.
         12    1    3    3    0    0 -0.94982186817E+01  0.48234081128E+01  0.16260171073E+02  0.19438996560E+02  0.00000000000E+00 0. -1.
</event>
<event>
 7    1  0.2942034E-011  0.5052886E+02  0.7816164E-02  0.1300439E+00
        -11   -1    0    0    0    0  0.00000000000E+00  0.00000000000E+00  0.45593999997E+02  0.45594000000E+02  0.51100000000E-03 0. -1.
         11   -1    0    0    0    0 -0.00000000000E+00 -0.00000000000E+00 -0.45593999997E+02  0.45594000000E+02  0.51100000000E-03 0.  1.
    9900012    2    1    2    0    0  0.37170074314E+02  0.20242971957E+01 -0.16353998660E+02  0.50528862333E+02  0.30000007546E+02 0.  0.
         12    1    1    2    0    0 -0.37170074314E+02 -0.20242971957E+01  0.16353998660E+02  0.40659137667E+02  0.00000000000E+00 0. -1.
         11    1    3    3    0    0  0.85350874815E+01  0.13821762326E+02 -0.88712490268E+01  0.18509129955E+02  0.51100000000E-03 0. -1.
        -11    1    3    3    0    0  0.65638542794E+01 -0.41353091374E+01 -0.22503383264E+01  0.80776845388E+01  0.51100000000E-03 0.  1.
         12    1    3    3    0    0  0.22071132553E+02 -0.76621559931E+01 -0.52324113073E+01  0.23942047839E+02  0.00000000000E+00 0. -1.
</event>
<event>
 7    1  0.2942034E-011  0.5052889E+02  0.7816164E-02  0.1300439E+00
        -11   -1    0    0    0    0  0.00000000000E+00  0.00000000000E+00  0.45593999997E+02  0.45594000000E+02  0.51100000000E-03 0. -1.
         11   -1    0    0    0    0 -0.00000000000E+00 -0.00000000000E+00 -0.45593999997E+02  0.45594000000E+02  0.51100000000E-03 0.  1.
    9900012    2    1    2    0    0  0.29807791047E+02  0.27648166720E+02 -0.48761936982E+00  0.50528889056E+02  0.30000088775E+02 0.  0.
         12    1    1    2    0    0 -0.29807791047E+02 -0.27648166720E+02  0.48761936982E+00  0.40659110944E+02  0.00000000000E+00 0. -1.
         11    1    3    3    0    0  0.42598754272E+01  0.28173248012E+01  0.30647043936E+01  0.59561960153E+01  0.51100000000E-03 0. -1.
        -11    1    3    3    0    0  0.16844358470E+02  0.12117566382E+02 -0.14808030232E+02  0.25492069098E+02  0.51100000000E-03 0.  1.
        -12    1    3    3    0    0  0.87035571503E+01  0.12713275537E+02  0.11255706469E+02  0.19080623943E+02  0.00000000000E+00 0.  1.
</event>
<event>
 7    1  0.2942034E-011  0.5052887E+02  0.7816164E-02  0.1300439E+00
        -11   -1    0    0    0    0  0.00000000000E+00  0.00000000000E+00  0.45593999997E+02  0.45594000000E+02  0.51100000000E-03 0. -1.
         11   -1    0    0    0    0 -0.00000000000E+00 -0.00000000000E+00 -0.45593999997E+02  0.45594000000E+02  0.51100000000E-03 0.  1.
    9900012    2    1    2    0    0 -0.25810672938E+02 -0.31026513458E+02  0.49325062612E+01  0.50528868272E+02  0.30000025600E+02 0.  0.
         12    1    1    2    0    0  0.25810672938E+02  0.31026513458E+02 -0.49325062612E+01  0.40659131728E+02  0.00000000000E+00 0. -1.
         11    1    3    3    0    0  0.42499782693E-01 -0.31277081897E+01 -0.51828248314E+01  0.60535971327E+01  0.51100000000E-03 0. -1.
        -11    1    3    3    0    0 -0.69537069577E+01 -0.21752678986E+02  0.90756159304E+01  0.24574374627E+02  0.51100000000E-03 0.  1.
        -12    1    3    3    0    0 -0.18899465763E+02 -0.61461262819E+01  0.10397151622E+01  0.19900896513E+02  0.00000000000E+00 0.  1.
</event>
<event>
 7    1  0.2942034E-011  0.5052886E+02  0.7816164E-02  0.1300439E+00
        -11   -1    0    0    0    0  0.00000000000E+00  0.00000000000E+00  0.45593999997E+02  0.45594000000E+02  0.51100000000E-03 0. -1.
         11   -1    0    0    0    0 -0.00000000000E+00 -0.00000000000E+00 -0.45593999997E+02  0.45594000000E+02  0.51100000000E-03 0.  1.
    9900012    2    1    2    0    0  0.98727821324E+01 -0.26714874548E+02 -0.29017393794E+02  0.50528862137E+02  0.30000006951E+02 0.  0.
         12    1    1    2    0    0 -0.98727821324E+01  0.26714874548E+02  0.29017393794E+02  0.40659137863E+02  0.00000000000E+00 0. -1.
         11    1    3    3    0    0 -0.60262030216E+01 -0.15734584190E+02 -0.40737775933E+01  0.17334587582E+02  0.51100000000E-03 0. -1.
        -11    1    3    3    0    0  0.15047654744E+02 -0.11524522823E+02 -0.25699139706E+02  0.31932621588E+02  0.51100000000E-03 0.  1.
         12    1    3    3    0    0  0.85133040990E+00  0.54423246420E+00  0.75552350530E+00  0.12616529669E+01  0.00000000000E+00 0. -1.
</event>
<event>
 7    1  0.2942034E-011  0.5052886E+02  0.7816164E-02  0.1300439E+00
        -11   -1    0    0    0    0  0.00000000000E+00  0.00000000000E+00  0.45593999997E+02  0.45594000000E+02  0.51100000000E-03 0.  1.
         11   -1    0    0    0    0 -0.00000000000E+00 -0.00000000000E+00 -0.45593999997E+02  0.45594000000E+02  0.51100000000E-03 0. -1.
    9900012    2    1    2    0    0  0.27478811507E+02 -0.28072915619E+02 -0.10487692464E+02  0.50528863678E+02  0.30000011636E+02 0.  0.
         12    1    1    2    0    0 -0.27478811507E+02  0.28072915619E+02  0.10487692464E+02  0.40659136322E+02  0.00000000000E+00 0. -1.
         11    1    3    3    0    0  0.99795075279E+01 -0.12433169568E+02 -0.11735088951E+02  0.19796125605E+02  0.51100000000E-03 0. -1.
        -11    1    3    3    0    0  0.16893306740E+02 -0.20043901289E+02  0.16732387160E+01  0.26266737893E+02  0.51100000000E-03 0.  1.
        -12    1    3    3    0    0  0.60599723974E+00  0.44041552375E+01 -0.42584222919E+00  0.44660001808E+01  0.00000000000E+00 0.  1.
</event>
<event>
 7    1  0.2942034E-011  0.5052886E+02  0.7816164E-02  0.1300439E+00
        -11   -1    0    0    0    0  0.00000000000E+00  0.00000000000E+00  0.45593999997E+02  0.45594000000E+02  0.51100000000E-03 0.  1.
         11   -1    0    0    0    0 -0.00000000000E+00 -0.00000000000E+00 -0.45593999997E+02  0.45594000000E+02  0.51100000000E-03 0. -1.
    9900012    2    1    2    0    0  0.42045023212E+01  0.21397519423E+02  0.34316675587E+02  0.50528857110E+02  0.29999991671E+02 0.  0.
         12    1    1    2    0    0 -0.42045023212E+01 -0.21397519423E+02 -0.34316675587E+02  0.40659142890E+02  0.00000000000E+00 0. -1.
         11    1    3    3    0    0 -0.31426539939E+01  0.59291177168E+01 -0.17540859335E+01  0.69359591080E+01  0.51100000000E-03 0. -1.
        -11    1    3    3    0    0  0.10353782119E+02  0.27652265152E+01  0.21545602197E+02  0.24063670878E+02  0.51100000000E-03 0.  1.
        -12    1    3    3    0    0 -0.30066258039E+01  0.12703175191E+02  0.14525159323E+02  0.19529227123E+02  0.00000000000E+00 0.  1.
</event>
<event>
 7    1  0.2942034E-011  0.5052885E+02  0.7816164E-02  0.1300439E+00
        -11   -1    0    0    0    0  0.00000000000E+00  0.00000000000E+00  0.45593999997E+02  0.45594000000E+02  0.51100000000E-03 0.  1.
         11   -1    0    0    0    0 -0.00000000000E+00 -0.00000000000E+00 -0.45593999997E+02  0.45594000000E+02  0.51100000000E-03 0. -1.
    9900012    2    1    2    0    0 -0.22585452909E+02  0.40544707709E+01  0.33565236101E+02  0.50528849851E+02  0.29999969606E+02 0.  0.
         12    1    1    2    0    0  0.22585452909E+02 -0.40544707709E+01 -0.33565236101E+02  0.40659150149E+02  0.00000000000E+00 0. -1.
         11    1    3    3    0    0  0.11234342894E+01  0.43615294446E+01  0.10617772398E+02  0.11533522214E+02  0.51100000000E-03 0. -1.
        -11    1    3    3    0    0 -0.71364812476E+01 -0.84299499081E+01  0.22639704026E+01  0.11274705419E+02  0.51100000000E-03 0.  1.
        -12    1    3    3    0    0 -0.16572405951E+02  0.81228912344E+01  0.20683493301E+02  0.27720622218E+02  0.00000000000E+00 0.  1.
</event>
<event>
 7    1  0.2942034E-011  0.5052886E+02  0.7816164E-02  0.1300439E+00
        -11   -1    0    0    0    0  0.00000000000E+00  0.00000000000E+00  0.45593999997E+02  0.45594000000E+02  0.51100000000E-03 0. -1.
         11   -1    0    0    0    0 -0.00000000000E+00 -0.00000000000E+00 -0.45593999997E+02  0.45594000000E+02  0.51100000000E-03 0.  1.
    9900012    2    1    2    0    0 -0.28035179122E+02  0.28799529187E+02 -0.61466442756E+01  0.50528863442E+02  0.30000010917E+02 0.  0.
         12    1    1    2    0    0  0.28035179122E+02 -0.28799529187E+02  0.61466442756E+01  0.40659136558E+02  0.00000000000E+00 0. -1.
         11    1    3    3    0    0 -0.20045743127E+02  0.78893284954E+01 -0.13275486180E+02  0.25304384111E+02  0.51100000000E-03 0.  1.
        -11    1    3    3    0    0 -0.79833374691E+01  0.18663073634E+02  0.29940155485E+01  0.20518482497E+02  0.51100000000E-03 0. -1.
         12    1    3    3    0    0 -0.60985260052E-02  0.22471270576E+01  0.41348263561E+01  0.47059968338E+01  0.00000000000E+00 0. -1.
</event>
<event>
 7    1  0.2942034E-011  0.5052884E+02  0.7816164E-02  0.1300439E+00
        -11   -1    0    0    0    0  0.00000000000E+00  0.00000000000E+00  0.45593999997E+02  0.45594000000E+02  0.51100000000E-03 0. -1.
         11   -1    0    0    0    0 -0.00000000000E+00 -0.00000000000E+00 -0.45593999997E+02  0.45594000000E+02  0.51100000000E-03 0.  1.
    9900012    2    1    2    0    0  0.28398656731E+02 -0.20701964104E+02 -0.20447802295E+02  0.50528835712E+02  0.29999926630E+02 0.  0.
         12    1    1    2    0    0 -0.28398656731E+02  0.20701964104E+02  0.20447802295E+02  0.40659164288E+02  0.00000000000E+00 0. -1.
         11    1    3    3    0    0  0.99075408091E+01 -0.11536136599E+02 -0.22530021772E+02  0.27181679379E+02  0.51100000000E-03 0. -1.
        -11    1    3    3    0    0  0.92134664191E+01  0.90110667818E+00  0.27000830255E+01  0.96431532865E+01  0.51100000000E-03 0.  1.
        -12    1    3    3    0    0  0.92776495031E+01 -0.10066934183E+02 -0.61786354850E+00  0.13704003047E+02  0.00000000000E+00 0.  1.
</event>
<event>
 7    1  0.2942034E-011  0.5052885E+02  0.7816164E-02  0.1300439E+00
        -11   -1    0    0    0    0  0.00000000000E+00  0.00000000000E+00  0.45593999997E+02  0.45594000000E+02  0.51100000000E-03 0.  1.
         11   -1    0    0    0    0 -0.00000000000E+00 -0.00000000000E+00 -0.45593999997E+02  0.45594000000E+02  0.51100000000E-03 0. -1.
    9900012    2    1    2    0    0 -0.62723376223E+01  0.36516718495E+01  0.40006123579E+02  0.50528845430E+02  0.29999956168E+02 0.  0.
         12    1    1    2    0    0  0.62723376223E+01 -0.36516718495E+01 -0.40006123579E+02  0.40659154570E+02  0.00000000000E+00 0. -1.
         11    1    3    3    0    0 -0.71145692144E+01  0.44440654686E+01  0.22444450356E+02  0.23960804766E+02  0.51100000000E-03 0. -1.
        -11    1    3    3    0    0  0.68953461803E+01 -0.39633276165E+01  0.25071341057E+00  0.79571742608E+01  0.51100000000E-03 0.  1.
        -12    1    3    3    0    0 -0.60531145882E+01  0.31709339974E+01  0.17310959813E+02  0.18610866403E+02  0.00000000000E+00 0.  1.
</event>
<event>
 7    1  0.2942034E-011  0.5052886E+02  0.7816164E-02  0.1300439E+00
        -11   -1    0    0    0    0  0.00000000000E+00  0.00000000000E+00  0.45593999997E+02  0.45594000000E+02  0.51100000000E-03 0. -1.
         11   -1    0    0    0    0 -0.00000000000E+00 -0.00000000000E+00 -0.45593999997E+02  0.45594000000E+02  0.51100000000E-03 0.  1.
    9900012    2    1    2    0    0  0.34465369016E+02  0.17505179018E+02  0.12604477973E+02  0.50528858115E+02  0.29999994726E+02 0.  0.
         12    1    1    2    0    0 -0.34465369016E+02 -0.17505179018E+02 -0.12604477973E+02  0.40659141885E+02  0.00000000000E+00 0. -1.
         11    1    3    3    0    0  0.12240515573E+02  0.98303933613E+01  0.26025826629E+00  0.15701419992E+02  0.51100000000E-03 0. -1.
        -11    1    3    3    0    0  0.96063108832E+01  0.70280177184E+01  0.17513839424E+02  0.21175665596E+02  0.51100000000E-03 0.  1.
        -12    1    3    3    0    0  0.12618542560E+02  0.64676793852E+00 -0.51696197169E+01  0.13651772527E+02  0.00000000000E+00 0.  1.
</event>
<event>
 7    1  0.2942034E-011  0.5052886E+02  0.7816164E-02  0.1300439E+00
        -11   -1    0    0    0    0  0.00000000000E+00  0.00000000000E+00  0.45593999997E+02  0.45594000000E+02  0.51100000000E-03 0. -1.
         11   -1    0    0    0    0 -0.00000000000E+00 -0.00000000000E+00 -0.45593999997E+02  0.45594000000E+02  0.51100000000E-03 0.  1.
    9900012    2    1    2    0    0 -0.73582191936E+01  0.23939364416E+02 -0.32030133648E+02  0.50528855643E+02  0.29999987212E+02 0.  0.
         12    1    1    2    0    0  0.73582191936E+01 -0.23939364416E+02  0.32030133648E+02  0.40659144357E+02  0.00000000000E+00 0. -1.
         11    1    3    3    0    0 -0.18065487320E+02  0.14958884948E+02 -0.13931762929E+02  0.27280470846E+02  0.51100000000E-03 0. -1.
        -11    1    3    3    0    0  0.53798614972E+01  0.66622185963E+01 -0.12702096556E+02  0.15318985721E+02  0.51100000000E-03 0.  1.
         12    1    3    3    0    0  0.53274066294E+01  0.23182608721E+01 -0.53962741626E+01  0.79293990758E+01  0.00000000000E+00 0. -1.
</event>
<event>
 7    1  0.2942034E-011  0.5052885E+02  0.7816164E-02  0.1300439E+00
        -11   -1    0    0    0    0  0.00000000000E+00  0.00000000000E+00  0.45593999997E+02  0.45594000000E+02  0.51100000000E-03 0.  1.
         11   -1    0    0    0    0 -0.00000000000E+00 -0.00000000000E+00 -0.45593999997E+02  0.45594000000E+02  0.51100000000E-03 0. -1.
    9900012    2    1    2    0    0 -0.30067430374E+02  0.25608983489E+02 -0.96589692067E+01  0.50528854771E+02  0.29999984560E+02 0.  0.
         12    1    1    2    0    0  0.30067430374E+02 -0.25608983489E+02  0.96589692067E+01  0.40659145229E+02  0.00000000000E+00 0. -1.
         11    1    3    3    0    0  0.12115671368E+01  0.14455720458E+01  0.59789282604E+01  0.62693824952E+01  0.51100000000E-03 0. -1.
        -11    1    3    3    0    0 -0.10396273484E+02  0.15785093713E+02 -0.68770332254E+01  0.20113310820E+02  0.51100000000E-03 0.  1.
         12    1    3    3    0    0 -0.20882724027E+02  0.83783177300E+01 -0.87608642417E+01  0.24146161456E+02  0.00000000000E+00 0. -1.
</event>
<event>
 7    1  0.2942034E-011  0.5052886E+02  0.7816164E-02  0.1300439E+00
        -11   -1    0    0    0    0  0.00000000000E+00  0.00000000000E+00  0.45593999997E+02  0.45594000000E+02  0.51100000000E-03 0.  1.
         11   -1    0    0    0    0 -0.00000000000E+00 -0.00000000000E+00 -0.45593999997E+02  0.45594000000E+02  0.51100000000E-03 0. -1.
    9900012    2    1    2    0    0  0.24708678458E+02  0.15399408716E+02  0.28381427919E+02  0.50528855509E+02  0.29999986806E+02 0.  0.
         12    1    1    2    0    0 -0.24708678458E+02 -0.15399408716E+02 -0.28381427919E+02  0.40659144491E+02  0.00000000000E+00 0. -1.
         11    1    3    3    0    0  0.16989858739E+02  0.10878194208E+02  0.29528243788E+02  0.35761817497E+02  0.51100000000E-03 0. -1.
        -11    1    3    3    0    0  0.10199541290E+02  0.42943467999E+01 -0.32205199139E+01  0.11525788726E+02  0.51100000000E-03 0.  1.
         12    1    3    3    0    0 -0.24807215712E+01  0.22686770813E+00  0.20737040456E+01  0.32412492869E+01  0.00000000000E+00 0. -1.
</event>
<event>
 7    1  0.2942034E-011  0.5052885E+02  0.7816164E-02  0.1300439E+00
        -11   -1    0    0    0    0  0.00000000000E+00  0.00000000000E+00  0.45593999997E+02  0.45594000000E+02  0.51100000000E-03 0. -1.
         11   -1    0    0    0    0 -0.00000000000E+00 -0.00000000000E+00 -0.45593999997E+02  0.45594000000E+02  0.51100000000E-03 0.  1.
    9900012    2    1    2    0    0  0.21162541507E+01  0.26253412953E+02 -0.30974925607E+02  0.50528852940E+02  0.29999978997E+02 0.  0.
         12    1    1    2    0    0 -0.21162541507E+01 -0.26253412953E+02  0.30974925607E+02  0.40659147060E+02  0.00000000000E+00 0. -1.
         11    1    3    3    0    0 -0.24935061151E+01 -0.44477546114E+01 -0.11958216016E+01  0.52373737115E+01  0.51100000000E-03 0. -1.
        -11    1    3    3    0    0 -0.41792380952E+01  0.18784134498E+02 -0.15341235672E+02  0.24610226576E+02  0.51100000000E-03 0.  1.
        -12    1    3    3    0    0  0.87889983610E+01  0.11917033066E+02 -0.14437868333E+02  0.20681252653E+02  0.00000000000E+00 0.  1.
</event>
<event>
 7    1  0.2942034E-011  0.5052887E+02  0.7816164E-02  0.1300439E+00
        -11   -1    0    0    0    0  0.00000000000E+00  0.00000000000E+00  0.45593999997E+02  0.45594000000E+02  0.51100000000E-03 0. -1.
         11   -1    0    0    0    0 -0.00000000000E+00 -0.00000000000E+00 -0.45593999997E+02  0.45594000000E+02  0.51100000000E-03 0.  1.
    9900012    2    1    2    0    0 -0.39485569934E+02  0.45261857920E+01 -0.85771784587E+01  0.50528873335E+02  0.30000040990E+02 0.  0.
         12    1    1    2    0    0  0.39485569934E+02 -0.45261857920E+01  0.85771784587E+01  0.40659126665E+02  0.00000000000E+00 0. -1.
         11    1    3    3    0    0 -0.78393885664E+01  0.23079120690E+01  0.10567283170E+02  0.13358515826E+02  0.51100000000E-03 0. -1.
        -11    1    3    3    0    0 -0.11978295620E+02 -0.43646251306E+00 -0.79750695454E+01  0.14396937175E+02  0.51100000000E-03 0.  1.
         12    1    3    3    0    0 -0.19667885747E+02  0.26547362360E+01 -0.11169392083E+02  0.22773420335E+02  0.00000000000E+00 0. -1.
</event>
<event>
 7    1  0.2942034E-011  0.5052886E+02  0.7816164E-02  0.1300439E+00
        -11   -1    0    0    0    0  0.00000000000E+00  0.00000000000E+00  0.45593999997E+02  0.45594000000E+02  0.51100000000E-03 0.  1.
         11   -1    0    0    0    0 -0.00000000000E+00 -0.00000000000E+00 -0.45593999997E+02  0.45594000000E+02  0.51100000000E-03 0. -1.
    9900012    2    1    2    0    0  0.99309544813E+01 -0.39375250530E+02  0.20325459957E+01  0.50528862596E+02  0.30000008346E+02 0.  0.
         12    1    1    2    0    0 -0.99309544813E+01  0.39375250530E+02 -0.20325459957E+01  0.40659137404E+02  0.00000000000E+00 0. -1.
         11    1    3    3    0    0 -0.18660594880E+01 -0.12669779566E+02 -0.99129335428E+01  0.16194806080E+02  0.51100000000E-03 0. -1.
        -11    1    3    3    0    0  0.12519165805E+02 -0.23385778931E+02  0.55619112620E+01  0.27102749414E+02  0.51100000000E-03 0.  1.
        -12    1    3    3    0    0 -0.72215183545E+00 -0.33196920332E+01  0.63835682766E+01  0.72313071025E+01  0.00000000000E+00 0.  1.
</event>
<event>
 7    1  0.2942034E-011  0.5052886E+02  0.7816164E-02  0.1300439E+00
        -11   -1    0    0    0    0  0.00000000000E+00  0.00000000000E+00  0.45593999997E+02  0.45594000000E+02  0.51100000000E-03 0.  1.
         11   -1    0    0    0    0 -0.00000000000E+00 -0.00000000000E+00 -0.45593999997E+02  0.45594000000E+02  0.51100000000E-03 0. -1.
    9900012    2    1    2    0    0  0.39531306742E+02 -0.37769669576E+01  0.87278905660E+01  0.50528858767E+02  0.29999996708E+02 0.  0.
         12    1    1    2    0    0 -0.39531306742E+02  0.37769669576E+01 -0.87278905660E+01  0.40659141233E+02  0.00000000000E+00 0. -1.
         11    1    3    3    0    0  0.95367184553E+01  0.15750572465E+01  0.12304299516E+02  0.15646903562E+02  0.51100000000E-03 0. -1.
        -11    1    3    3    0    0  0.26999987933E+02  0.92514558349E+00 -0.56989615230E+01  0.27610385825E+02  0.51100000000E-03 0.  1.
        -12    1    3    3    0    0  0.29946003533E+01 -0.62771697877E+01  0.21225525730E+01  0.72715693797E+01  0.00000000000E+00 0.  1.
</event>
<event>
 7    1  0.2942034E-011  0.5052887E+02  0.7816164E-02  0.1300439E+00
        -11   -1    0    0    0    0  0.00000000000E+00  0.00000000000E+00  0.45593999997E+02  0.45594000000E+02  0.51100000000E-03 0. -1.
         11   -1    0    0    0    0 -0.00000000000E+00 -0.00000000000E+00 -0.45593999997E+02  0.45594000000E+02  0.51100000000E-03 0.  1.
    9900012    2    1    2    0    0  0.40520254264E+02  0.33083836540E+01 -0.57332171679E+00  0.50528866884E+02  0.30000021379E+02 0.  0.
         12    1    1    2    0    0 -0.40520254264E+02 -0.33083836540E+01  0.57332171679E+00  0.40659133116E+02  0.00000000000E+00 0. -1.
         11    1    3    3    0    0  0.33294054358E+02 -0.85530154674E+01  0.63268056700E+01  0.34952490605E+02  0.51100000000E-03 0. -1.
        -11    1    3    3    0    0  0.24891176312E+01  0.30792277317E+01 -0.24018957563E+01  0.46310315796E+01  0.51100000000E-03 0.  1.
         12    1    3    3    0    0  0.47370822739E+01  0.87821713897E+01 -0.44982316305E+01  0.10945344699E+02  0.00000000000E+00 0. -1.
</event>
<event>
 7    1  0.2942034E-011  0.5052890E+02  0.7816164E-02  0.1300439E+00
        -11   -1    0    0    0    0  0.00000000000E+00  0.00000000000E+00  0.45593999997E+02  0.45594000000E+02  0.51100000000E-03 0.  1.
         11   -1    0    0    0    0 -0.00000000000E+00 -0.00000000000E+00 -0.45593999997E+02  0.45594000000E+02  0.51100000000E-03 0. -1.
    9900012    2    1    2    0    0 -0.26631015132E+02 -0.12276990099E+02  0.28164286953E+02  0.50528898776E+02  0.30000118318E+02 0.  0.
         12    1    1    2    0    0  0.26631015132E+02  0.12276990099E+02 -0.28164286953E+02  0.40659101224E+02  0.00000000000E+00 0. -1.
         11    1    3    3    0    0  0.10729444923E+00 -0.30880670869E+01 -0.37018267373E+01  0.48219489718E+01  0.51100000000E-03 0. -1.
        -11    1    3    3    0    0 -0.21699078983E+02 -0.13895966036E+02  0.23591814884E+02  0.34935964715E+02  0.51100000000E-03 0.  1.
        -12    1    3    3    0    0 -0.50392305977E+01  0.47070430242E+01  0.82742988061E+01  0.10770985089E+02  0.00000000000E+00 0.  1.
</event>
<event>
 7    1  0.2942034E-011  0.5052887E+02  0.7816164E-02  0.1300439E+00
        -11   -1    0    0    0    0  0.00000000000E+00  0.00000000000E+00  0.45593999997E+02  0.45594000000E+02  0.51100000000E-03 0.  1.
         11   -1    0    0    0    0 -0.00000000000E+00 -0.00000000000E+00 -0.45593999997E+02  0.45594000000E+02  0.51100000000E-03 0. -1.
    9900012    2    1    2    0    0 -0.34766523048E+02  0.44783514924E+01  0.20600933100E+02  0.50528865706E+02  0.30000017800E+02 0.  0.
         12    1    1    2    0    0  0.34766523048E+02 -0.44783514924E+01 -0.20600933100E+02  0.40659134294E+02  0.00000000000E+00 0. -1.
         11    1    3    3    0    0 -0.20756854156E+02  0.32519298616E+01  0.39439731988E+01  0.21377019603E+02  0.51100000000E-03 0. -1.
        -11    1    3    3    0    0  0.42829744973E+01  0.30319957095E+01  0.57209604595E+01  0.77631345066E+01  0.51100000000E-03 0.  1.
        -12    1    3    3    0    0 -0.18292643390E+02 -0.18055740788E+01  0.10935999442E+02  0.21388711596E+02  0.00000000000E+00 0.  1.
</event>
<event>
 7    1  0.2942034E-011  0.5052886E+02  0.7816164E-02  0.1300439E+00
        -11   -1    0    0    0    0  0.00000000000E+00  0.00000000000E+00  0.45593999997E+02  0.45594000000E+02  0.51100000000E-03 0. -1.
         11   -1    0    0    0    0 -0.00000000000E+00 -0.00000000000E+00 -0.45593999997E+02  0.45594000000E+02  0.51100000000E-03 0.  1.
    9900012    2    1    2    0    0 -0.27725749608E+02 -0.13630398208E+02 -0.26432187774E+02  0.50528862071E+02  0.30000006750E+02 0.  0.
         12    1    1    2    0    0  0.27725749608E+02  0.13630398208E+02  0.26432187774E+02  0.40659137929E+02  0.00000000000E+00 0. -1.
         11    1    3    3    0    0 -0.16119615058E+01 -0.74610737750E+01  0.11973710613E+01  0.77265606509E+01  0.51100000000E-03 0. -1.
        -11    1    3    3    0    0 -0.22605022233E+02 -0.57110915178E+01 -0.30397742904E+02  0.38309611984E+02  0.51100000000E-03 0.  1.
        -12    1    3    3    0    0 -0.35087658692E+01 -0.45823291553E+00  0.27681840684E+01  0.44926894358E+01  0.00000000000E+00 0.  1.
</event>
<event>
 7    1  0.2942034E-011  0.5052886E+02  0.7816164E-02  0.1300439E+00
        -11   -1    0    0    0    0  0.00000000000E+00  0.00000000000E+00  0.45593999997E+02  0.45594000000E+02  0.51100000000E-03 0. -1.
         11   -1    0    0    0    0 -0.00000000000E+00 -0.00000000000E+00 -0.45593999997E+02  0.45594000000E+02  0.51100000000E-03 0.  1.
    9900012    2    1    2    0    0 -0.12344999930E+02 -0.38739632670E+02  0.87720537007E-01  0.50528857638E+02  0.29999993277E+02 0.  0.
         12    1    1    2    0    0  0.12344999930E+02  0.38739632670E+02 -0.87720537007E-01  0.40659142362E+02  0.00000000000E+00 0. -1.
         11    1    3    3    0    0 -0.13685409641E+01 -0.21677580573E+02  0.16661736611E+01  0.21784548166E+02  0.51100000000E-03 0. -1.
        -11    1    3    3    0    0 -0.12927884884E+02 -0.15384070983E+01 -0.14339060116E+01  0.13097823891E+02  0.51100000000E-03 0.  1.
        -12    1    3    3    0    0  0.19514259176E+01 -0.15523644999E+02 -0.14454711250E+00  0.15646485581E+02  0.00000000000E+00 0.  1.
</event>
<event>
 7    1  0.2942034E-011  0.5052886E+02  0.7816164E-02  0.1300439E+00
        -11   -1    0    0    0    0  0.00000000000E+00  0.00000000000E+00  0.45593999997E+02  0.45594000000E+02  0.51100000000E-03 0.  1.
         11   -1    0    0    0    0 -0.00000000000E+00 -0.00000000000E+00 -0.45593999997E+02  0.45594000000E+02  0.51100000000E-03 0. -1.
    9900012    2    1    2    0    0  0.94889075021E+00  0.92101595926E+01  0.39590889946E+02  0.50528855886E+02  0.29999987951E+02 0.  0.
         12    1    1    2    0    0 -0.94889075021E+00 -0.92101595926E+01 -0.39590889946E+02  0.40659144114E+02  0.00000000000E+00 0. -1.
         11    1    3    3    0    0  0.74851773488E+01  0.68482327419E+01  0.13266084967E+02  0.16700753942E+02  0.51100000000E-03 0.  1.
        -11    1    3    3    0    0 -0.11086702822E+02  0.82332436563E+01  0.17534230060E+02  0.22319285486E+02  0.51100000000E-03 0. -1.
        -12    1    3    3    0    0  0.45504162235E+01 -0.58713168056E+01  0.87905749194E+01  0.11508816457E+02  0.00000000000E+00 0.  1.
</event>
<event>
 7    1  0.2942034E-011  0.5052886E+02  0.7816164E-02  0.1300439E+00
        -11   -1    0    0    0    0  0.00000000000E+00  0.00000000000E+00  0.45593999997E+02  0.45594000000E+02  0.51100000000E-03 0. -1.
         11   -1    0    0    0    0 -0.00000000000E+00 -0.00000000000E+00 -0.45593999997E+02  0.45594000000E+02  0.51100000000E-03 0.  1.
    9900012    2    1    2    0    0  0.31540966356E+02 -0.25657965872E+02 -0.47383684924E-01  0.50528855683E+02  0.29999987335E+02 0.  0.
         12    1    1    2    0    0 -0.31540966356E+02  0.25657965872E+02  0.47383684924E-01  0.40659144317E+02  0.00000000000E+00 0. -1.
         11    1    3    3    0    0  0.55542847939E+01 -0.20767719064E+02 -0.30348191869E+01  0.21710789079E+02  0.51100000000E-03 0. -1.
        -11    1    3    3    0    0  0.16639388443E+02 -0.48798104930E+00 -0.29434115682E+01  0.16904763978E+02  0.51100000000E-03 0.  1.
         12    1    3    3    0    0  0.93472931195E+01 -0.44022657589E+01  0.59308470703E+01  0.11913302625E+02  0.00000000000E+00 0. -1.
</event>
<event>
 7    1  0.2942034E-011  0.5052887E+02  0.7816164E-02  0.1300439E+00
        -11   -1    0    0    0    0  0.00000000000E+00  0.00000000000E+00  0.45593999997E+02  0.45594000000E+02  0.51100000000E-03 0.  1.
         11   -1    0    0    0    0 -0.00000000000E+00 -0.00000000000E+00 -0.45593999997E+02  0.45594000000E+02  0.51100000000E-03 0. -1.
    9900012    2    1    2    0    0  0.18854590683E+02  0.26843950119E+02  0.24022320788E+02  0.50528866415E+02  0.30000019956E+02 0.  0.
         12    1    1    2    0    0 -0.18854590683E+02 -0.26843950119E+02 -0.24022320788E+02  0.40659133585E+02  0.00000000000E+00 0. -1.
         11    1    3    3    0    0  0.19514056832E+02  0.20333402874E+02  0.34985792558E+01  0.28398692638E+02  0.51100000000E-03 0. -1.
        -11    1    3    3    0    0  0.37513158627E-01  0.69448376350E+01  0.14807573653E+02  0.16355317629E+02  0.51100000000E-03 0.  1.
         12    1    3    3    0    0 -0.69697930808E+00 -0.43429038962E+00  0.57161678796E+01  0.57748561477E+01  0.00000000000E+00 0. -1.
</event>
<event>
 7    1  0.2942034E-011  0.5052888E+02  0.7816164E-02  0.1300439E+00
        -11   -1    0    0    0    0  0.00000000000E+00  0.00000000000E+00  0.45593999997E+02  0.45594000000E+02  0.51100000000E-03 0.  1.
         11   -1    0    0    0    0 -0.00000000000E+00 -0.00000000000E+00 -0.45593999997E+02  0.45594000000E+02  0.51100000000E-03 0. -1.
    9900012    2    1    2    0    0 -0.55902525852E+01  0.27798385126E+02  0.29140406445E+02  0.50528875226E+02  0.30000046738E+02 0.  0.
         12    1    1    2    0    0  0.55902525852E+01 -0.27798385126E+02 -0.29140406445E+02  0.40659124774E+02  0.00000000000E+00 0. -1.
         11    1    3    3    0    0  0.34324381818E+01  0.16163695409E+01 -0.68931931923E+00  0.38560917715E+01  0.51100000000E-03 0. -1.
        -11    1    3    3    0    0 -0.12655957258E+02  0.25040360747E+02  0.15936622085E+02  0.32267148064E+02  0.51100000000E-03 0.  1.
        -12    1    3    3    0    0  0.36332664906E+01  0.11416548376E+01  0.13893103679E+02  0.14405635391E+02  0.00000000000E+00 0.  1.
</event>
<event>
 7    1  0.2942034E-011  0.5052886E+02  0.7816164E-02  0.1300439E+00
        -11   -1    0    0    0    0  0.00000000000E+00  0.00000000000E+00  0.45593999997E+02  0.45594000000E+02  0.51100000000E-03 0. -1.
         11   -1    0    0    0    0 -0.00000000000E+00 -0.00000000000E+00 -0.45593999997E+02  0.45594000000E+02  0.51100000000E-03 0.  1.
    9900012    2    1    2    0    0  0.26559431929E+02  0.20553725755E+02 -0.22919574564E+02  0.50528856317E+02  0.29999989262E+02 0.  0.
         12    1    1    2    0    0 -0.26559431929E+02 -0.20553725755E+02  0.22919574564E+02  0.40659143683E+02  0.00000000000E+00 0. -1.
         11    1    3    3    0    0  0.10892518145E+02  0.30993473354E+01 -0.89157494459E+00  0.11359921284E+02  0.51100000000E-03 0. -1.
        -11    1    3    3    0    0  0.60087003886E+01  0.14568305250E+02 -0.24179640517E+02  0.28861653002E+02  0.51100000000E-03 0.  1.
        -12    1    3    3    0    0  0.96582133949E+01  0.28860731702E+01  0.21516408968E+01  0.10307282031E+02  0.00000000000E+00 0.  1.
</event>
<event>
 7    1  0.2942034E-011  0.5052886E+02  0.7816164E-02  0.1300439E+00
        -11   -1    0    0    0    0  0.00000000000E+00  0.00000000000E+00  0.45593999997E+02  0.45594000000E+02  0.51100000000E-03 0. -1.
         11   -1    0    0    0    0 -0.00000000000E+00 -0.00000000000E+00 -0.45593999997E+02  0.45594000000E+02  0.51100000000E-03 0.  1.
    9900012    2    1    2    0    0 -0.34512564453E+02  0.21243835856E+02 -0.32784386029E+01  0.50528858018E+02  0.29999994431E+02 0.  0.
         12    1    1    2    0    0  0.34512564453E+02 -0.21243835856E+02  0.32784386029E+01  0.40659141982E+02  0.00000000000E+00 0. -1.
         11    1    3    3    0    0 -0.24678805969E+02  0.89105472660E+01 -0.44745231586E+01  0.26616962156E+02  0.51100000000E-03 0. -1.
        -11    1    3    3    0    0 -0.34278105853E+01  0.10414372757E+02 -0.72460804391E+01  0.13142097523E+02  0.51100000000E-03 0.  1.
        -12    1    3    3    0    0 -0.64059478989E+01  0.19189158338E+01  0.84421649947E+01  0.10769798339E+02  0.00000000000E+00 0.  1.
</event>
<event>
 7    1  0.2942034E-011  0.5052886E+02  0.7816164E-02  0.1300439E+00
        -11   -1    0    0    0    0  0.00000000000E+00  0.00000000000E+00  0.45593999997E+02  0.45594000000E+02  0.51100000000E-03 0.  1.
         11   -1    0    0    0    0 -0.00000000000E+00 -0.00000000000E+00 -0.45593999997E+02  0.45594000000E+02  0.51100000000E-03 0. -1.
    9900012    2    1    2    0    0 -0.28281256793E+02 -0.29061427181E+02  0.29613769739E+01  0.50528858479E+02  0.29999995834E+02 0.  0.
         12    1    1    2    0    0  0.28281256793E+02  0.29061427181E+02 -0.29613769739E+01  0.40659141521E+02  0.00000000000E+00 0. -1.
         11    1    3    3    0    0  0.22989947018E+01 -0.24286394176E+00  0.39629048334E+00  0.23455076085E+01  0.51100000000E-03 0. -1.
        -11    1    3    3    0    0 -0.25427914887E+02 -0.13289835428E+02 -0.65849418475E+01  0.29437391878E+02  0.51100000000E-03 0.  1.
        -12    1    3    3    0    0 -0.51523366084E+01 -0.15528727811E+02  0.91500283381E+01  0.18745958992E+02  0.00000000000E+00 0.  1.
</event>
<event>
 7    1  0.2942034E-011  0.5052886E+02  0.7816164E-02  0.1300439E+00
        -11   -1    0    0    0    0  0.00000000000E+00  0.00000000000E+00  0.45593999997E+02  0.45594000000E+02  0.51100000000E-03 0.  1.
         11   -1    0    0    0    0 -0.00000000000E+00 -0.00000000000E+00 -0.45593999997E+02  0.45594000000E+02  0.51100000000E-03 0. -1.
    9900012    2    1    2    0    0 -0.32345748353E+02  0.11445144330E+02  0.21815753510E+02  0.50528857529E+02  0.29999992946E+02 0.  0.
         12    1    1    2    0    0  0.32345748353E+02 -0.11445144330E+02 -0.21815753510E+02  0.40659142471E+02  0.00000000000E+00 0. -1.
         11    1    3    3    0    0 -0.94188206939E+00  0.64624610957E+01  0.47106985154E+00  0.65477058817E+01  0.51100000000E-03 0. -1.
        -11    1    3    3    0    0 -0.28528808697E+02  0.99879114962E+01  0.11058450620E+02  0.32186031630E+02  0.51100000000E-03 0.  1.
        -12    1    3    3    0    0 -0.28750575860E+01 -0.50052282620E+01  0.10286233039E+02  0.11795120017E+02  0.00000000000E+00 0.  1.
</event>
<event>
 7    1  0.2942034E-011  0.5052885E+02  0.7816164E-02  0.1300439E+00
        -11   -1    0    0    0    0  0.00000000000E+00  0.00000000000E+00  0.45593999997E+02  0.45594000000E+02  0.51100000000E-03 0.  1.
         11   -1    0    0    0    0 -0.00000000000E+00 -0.00000000000E+00 -0.45593999997E+02  0.45594000000E+02  0.51100000000E-03 0. -1.
    9900012    2    1    2    0    0 -0.16637448473E+02 -0.35851006335E+01  0.36925715225E+02  0.50528854865E+02  0.29999984847E+02 0.  0.
         12    1    1    2    0    0  0.16637448473E+02  0.35851006335E+01 -0.36925715225E+02  0.40659145135E+02  0.00000000000E+00 0. -1.
         11    1    3    3    0    0 -0.22550325906E+01 -0.30228955948E+01 -0.42057449504E+01  0.56490141273E+01  0.51100000000E-03 0. -1.
        -11    1    3    3    0    0 -0.76777716429E+01  0.50668323504E+01  0.20716691705E+02  0.22667207215E+02  0.51100000000E-03 0.  1.
         12    1    3    3    0    0 -0.67046442399E+01 -0.56290373891E+01  0.20414768470E+02  0.22212633522E+02  0.00000000000E+00 0. -1.
</event>
<event>
 7    1  0.2942034E-011  0.5052889E+02  0.7816164E-02  0.1300439E+00
        -11   -1    0    0    0    0  0.00000000000E+00  0.00000000000E+00  0.45593999997E+02  0.45594000000E+02  0.51100000000E-03 0.  1.
         11   -1    0    0    0    0 -0.00000000000E+00 -0.00000000000E+00 -0.45593999997E+02  0.45594000000E+02  0.51100000000E-03 0. -1.
    9900012    2    1    2    0    0  0.32454620028E+02 -0.19666927557E+02  0.14597013955E+02  0.50528890109E+02  0.30000091977E+02 0.  0.
         12    1    1    2    0    0 -0.32454620028E+02  0.19666927557E+02 -0.14597013955E+02  0.40659109891E+02  0.00000000000E+00 0. -1.
         11    1    3    3    0    0  0.21483189818E+01  0.14408636605E+01  0.58113579282E+01  0.63610725328E+01  0.51100000000E-03 0. -1.
        -11    1    3    3    0    0  0.19665272040E+02 -0.15954248434E+02 -0.52027660605E+01  0.25852074239E+02  0.51100000000E-03 0.  1.
        -12    1    3    3    0    0  0.10641029006E+02 -0.51535427842E+01  0.13988422087E+02  0.18315743338E+02  0.00000000000E+00 0.  1.
</event>
<event>
 7    1  0.2942034E-011  0.5052886E+02  0.7816164E-02  0.1300439E+00
        -11   -1    0    0    0    0  0.00000000000E+00  0.00000000000E+00  0.45593999997E+02  0.45594000000E+02  0.51100000000E-03 0.  1.
         11   -1    0    0    0    0 -0.00000000000E+00 -0.00000000000E+00 -0.45593999997E+02  0.45594000000E+02  0.51100000000E-03 0. -1.
    9900012    2    1    2    0    0  0.60268983995E+01  0.17243153595E+02  0.36325138699E+02  0.50528861400E+02  0.30000004712E+02 0.  0.
         12    1    1    2    0    0 -0.60268983995E+01 -0.17243153595E+02 -0.36325138699E+02  0.40659138600E+02  0.00000000000E+00 0. -1.
         11    1    3    3    0    0  0.10588849362E+02  0.18176701331E+02  0.38823700716E+02  0.44156493743E+02  0.51100000000E-03 0. -1.
        -11    1    3    3    0    0 -0.36860286013E+00 -0.15082776687E+01 -0.22820128374E+00  0.15693456220E+01  0.51100000000E-03 0.  1.
         12    1    3    3    0    0 -0.41933481028E+01  0.57472993209E+00 -0.22703607339E+01  0.48030220349E+01  0.00000000000E+00 0. -1.
</event>
<event>
 7    1  0.2942034E-011  0.5052885E+02  0.7816164E-02  0.1300439E+00
        -11   -1    0    0    0    0  0.00000000000E+00  0.00000000000E+00  0.45593999997E+02  0.45594000000E+02  0.51100000000E-03 0.  1.
         11   -1    0    0    0    0 -0.00000000000E+00 -0.00000000000E+00 -0.45593999997E+02  0.45594000000E+02  0.51100000000E-03 0. -1.
    9900012    2    1    2    0    0  0.19193297141E+01  0.13992809988E+02  0.38127204295E+02  0.50528852625E+02  0.29999978039E+02 0.  0.
         12    1    1    2    0    0 -0.19193297141E+01 -0.13992809988E+02 -0.38127204295E+02  0.40659147375E+02  0.00000000000E+00 0. -1.
         11    1    3    3    0    0 -0.40206308125E+00  0.15252072393E+01 -0.49701813995E+01  0.52144621246E+01  0.51100000000E-03 0. -1.
        -11    1    3    3    0    0  0.28443556896E+01  0.25785731787E+01  0.84832863006E+01  0.93115812645E+01  0.51100000000E-03 0.  1.
         12    1    3    3    0    0 -0.52296289427E+00  0.98890295704E+01  0.34614099394E+02  0.36002809236E+02  0.00000000000E+00 0. -1.
</event>
<event>
 7    1  0.2942034E-011  0.5052885E+02  0.7816164E-02  0.1300439E+00
        -11   -1    0    0    0    0  0.00000000000E+00  0.00000000000E+00  0.45593999997E+02  0.45594000000E+02  0.51100000000E-03 0. -1.
         11   -1    0    0    0    0 -0.00000000000E+00 -0.00000000000E+00 -0.45593999997E+02  0.45594000000E+02  0.51100000000E-03 0.  1.
    9900012    2    1    2    0    0  0.24911862295E+02 -0.19365895342E+02 -0.25642298165E+02  0.50528852929E+02  0.29999978963E+02 0.  0.
         12    1    1    2    0    0 -0.24911862295E+02  0.19365895342E+02  0.25642298165E+02  0.40659147071E+02  0.00000000000E+00 0. -1.
         11    1    3    3    0    0  0.18608981452E+00 -0.63267180193E+01  0.45007565056E+01  0.77665178618E+01  0.51100000000E-03 0. -1.
        -11    1    3    3    0    0  0.17563221371E+02 -0.11986167777E+02 -0.28103099449E+02  0.35240873454E+02  0.51100000000E-03 0.  1.
         12    1    3    3    0    0  0.71625511090E+01 -0.10530095453E+01 -0.20399552208E+01  0.75214616129E+01  0.00000000000E+00 0. -1.
</event>
<event>
 7    1  0.2942034E-011  0.5052886E+02  0.7816164E-02  0.1300439E+00
        -11   -1    0    0    0    0  0.00000000000E+00  0.00000000000E+00  0.45593999997E+02  0.45594000000E+02  0.51100000000E-03 0.  1.
         11   -1    0    0    0    0 -0.00000000000E+00 -0.00000000000E+00 -0.45593999997E+02  0.45594000000E+02  0.51100000000E-03 0. -1.
    9900012    2    1    2    0    0 -0.35188561211E+02  0.18671518377E+02  0.81427914695E+01  0.50528862140E+02  0.30000006962E+02 0.  0.
         12    1    1    2    0    0  0.35188561211E+02 -0.18671518377E+02 -0.81427914695E+01  0.40659137860E+02  0.00000000000E+00 0. -1.
         11    1    3    3    0    0 -0.15546871752E+02 -0.33655434919E+01  0.36152271415E+01  0.16312632277E+02  0.51100000000E-03 0.  1.
        -11    1    3    3    0    0 -0.30293737326E+00  0.69928539091E+01 -0.42516339351E+01  0.81895157503E+01  0.51100000000E-03 0. -1.
        -12    1    3    3    0    0 -0.19338752085E+02  0.15044207960E+02  0.87791982631E+01  0.26026714113E+02  0.00000000000E+00 0.  1.
</event>
<event>
 7    1  0.2942034E-011  0.5052886E+02  0.7816164E-02  0.1300439E+00
        -11   -1    0    0    0    0  0.00000000000E+00  0.00000000000E+00  0.45593999997E+02  0.45594000000E+02  0.51100000000E-03 0.  1.
         11   -1    0    0    0    0 -0.00000000000E+00 -0.00000000000E+00 -0.45593999997E+02  0.45594000000E+02  0.51100000000E-03 0. -1.
    9900012    2    1    2    0    0  0.95002618135E+01  0.84489689912E+01  0.38620269444E+02  0.50528864944E+02  0.30000015484E+02 0.  0.
         12    1    1    2    0    0 -0.95002618135E+01 -0.84489689912E+01 -0.38620269444E+02  0.40659135056E+02  0.00000000000E+00 0. -1.
         11    1    3    3    0    0  0.11942356026E+02  0.34582607205E+01  0.29906601174E+01  0.12787630072E+02  0.51100000000E-03 0. -1.
        -11    1    3    3    0    0  0.40269594369E+01  0.18888162067E+01  0.20762868467E+02  0.21233952439E+02  0.51100000000E-03 0.  1.
         12    1    3    3    0    0 -0.64690536495E+01  0.31018920641E+01  0.14866740860E+02  0.16507282432E+02  0.00000000000E+00 0. -1.
</event>
<event>
 7    1  0.2942034E-011  0.5052887E+02  0.7816164E-02  0.1300439E+00
        -11   -1    0    0    0    0  0.00000000000E+00  0.00000000000E+00  0.45593999997E+02  0.45594000000E+02  0.51100000000E-03 0.  1.
         11   -1    0    0    0    0 -0.00000000000E+00 -0.00000000000E+00 -0.45593999997E+02  0.45594000000E+02  0.51100000000E-03 0. -1.
    9900012    2    1    2    0    0  0.73677717598E+01  0.26852730384E+02  0.29627888119E+02  0.50528868871E+02  0.30000027420E+02 0.  0.
         12    1    1    2    0    0 -0.73677717598E+01 -0.26852730384E+02 -0.29627888119E+02  0.40659131129E+02  0.00000000000E+00 0. -1.
         11    1    3    3    0    0  0.12789146779E+01  0.46055981510E+01 -0.24543167823E+01  0.53731581226E+01  0.51100000000E-03 0. -1.
        -11    1    3    3    0    0 -0.10175647389E+01  0.21811729886E+02  0.31053673158E+02  0.37962054943E+02  0.51100000000E-03 0.  1.
        -12    1    3    3    0    0  0.71064218208E+01  0.43540234668E+00  0.10285317438E+01  0.71936558054E+01  0.00000000000E+00 0.  1.
</event>
<event>
 7    1  0.2942034E-011  0.5052885E+02  0.7816164E-02  0.1300439E+00
        -11   -1    0    0    0    0  0.00000000000E+00  0.00000000000E+00  0.45593999997E+02  0.45594000000E+02  0.51100000000E-03 0.  1.
         11   -1    0    0    0    0 -0.00000000000E+00 -0.00000000000E+00 -0.45593999997E+02  0.45594000000E+02  0.51100000000E-03 0. -1.
    9900012    2    1    2    0    0  0.16483255141E+02 -0.28629152543E+01  0.37057686326E+02  0.50528854662E+02  0.29999984231E+02 0.  0.
         12    1    1    2    0    0 -0.16483255141E+02  0.28629152543E+01 -0.37057686326E+02  0.40659145338E+02  0.00000000000E+00 0. -1.
         11    1    3    3    0    0 -0.47479928953E+00  0.10828889137E+01 -0.45204221662E+01  0.46725046374E+01  0.51100000000E-03 0. -1.
        -11    1    3    3    0    0  0.11343058974E+02  0.99755689780E+00  0.19949031560E+02  0.22970066763E+02  0.51100000000E-03 0.  1.
         12    1    3    3    0    0  0.56149954561E+01 -0.49433610658E+01  0.21629076932E+02  0.22886283262E+02  0.00000000000E+00 0. -1.
</event>
<event>
 7    1  0.2942034E-011  0.5052889E+02  0.7816164E-02  0.1300439E+00
        -11   -1    0    0    0    0  0.00000000000E+00  0.00000000000E+00  0.45593999997E+02  0.45594000000E+02  0.51100000000E-03 0.  1.
         11   -1    0    0    0    0 -0.00000000000E+00 -0.00000000000E+00 -0.45593999997E+02  0.45594000000E+02  0.51100000000E-03 0. -1.
    9900012    2    1    2    0    0  0.27969060005E+02  0.99055511610E+01  0.27798824258E+02  0.50528894113E+02  0.30000104146E+02 0.  0.
         12    1    1    2    0    0 -0.27969060005E+02 -0.99055511610E+01 -0.27798824258E+02  0.40659105887E+02  0.00000000000E+00 0. -1.
         11    1    3    3    0    0  0.41163091384E+01  0.12929509806E+02  0.25210352959E+01  0.13801153719E+02  0.51100000000E-03 0. -1.
        -11    1    3    3    0    0  0.17833893591E+02 -0.38809813624E+01  0.11252002125E+02  0.21441019776E+02  0.51100000000E-03 0.  1.
         12    1    3    3    0    0  0.60188572758E+01  0.85702271697E+00  0.14025786838E+02  0.15286720618E+02  0.00000000000E+00 0. -1.
</event>
<event>
 7    1  0.2942034E-011  0.5052885E+02  0.7816164E-02  0.1300439E+00
        -11   -1    0    0    0    0  0.00000000000E+00  0.00000000000E+00  0.45593999997E+02  0.45594000000E+02  0.51100000000E-03 0.  1.
         11   -1    0    0    0    0 -0.00000000000E+00 -0.00000000000E+00 -0.45593999997E+02  0.45594000000E+02  0.51100000000E-03 0. -1.
    9900012    2    1    2    0    0 -0.22907299069E+02  0.33588993838E+02  0.44863688868E+00  0.50528854255E+02  0.29999982993E+02 0.  0.
         12    1    1    2    0    0  0.22907299069E+02 -0.33588993838E+02 -0.44863688868E+00  0.40659145745E+02  0.00000000000E+00 0. -1.
         11    1    3    3    0    0 -0.23063396755E+01  0.13909818244E+02 -0.70504022320E+01  0.15764213211E+02  0.51100000000E-03 0. -1.
        -11    1    3    3    0    0 -0.17310335417E+02  0.87258410501E+01  0.11627911049E+02  0.22605227933E+02  0.51100000000E-03 0.  1.
        -12    1    3    3    0    0 -0.32906239767E+01  0.10953334544E+02 -0.41288719285E+01  0.12159413110E+02  0.00000000000E+00 0.  1.
</event>
<event>
 7    1  0.2942034E-011  0.5052886E+02  0.7816164E-02  0.1300439E+00
        -11   -1    0    0    0    0  0.00000000000E+00  0.00000000000E+00  0.45593999997E+02  0.45594000000E+02  0.51100000000E-03 0.  1.
         11   -1    0    0    0    0 -0.00000000000E+00 -0.00000000000E+00 -0.45593999997E+02  0.45594000000E+02  0.51100000000E-03 0. -1.
    9900012    2    1    2    0    0 -0.29281559964E+02  0.27774636481E+02  0.49320714974E+01  0.50528861853E+02  0.30000006089E+02 0.  0.
         12    1    1    2    0    0  0.29281559964E+02 -0.27774636481E+02 -0.49320714974E+01  0.40659138147E+02  0.00000000000E+00 0. -1.
         11    1    3    3    0    0  0.21584759612E+01  0.17497829657E+01 -0.43662104110E+00  0.28127205864E+01  0.51100000000E-03 0. -1.
        -11    1    3    3    0    0 -0.24753645053E+02  0.27198154731E+02 -0.30488595853E+01  0.36902277832E+02  0.51100000000E-03 0.  1.
        -12    1    3    3    0    0 -0.66863908720E+01 -0.11733012150E+01  0.84175521238E+01  0.10813863435E+02  0.00000000000E+00 0.  1.
</event>
<event>
 7    1  0.2942034E-011  0.5052883E+02  0.7816164E-02  0.1300439E+00
        -11   -1    0    0    0    0  0.00000000000E+00  0.00000000000E+00  0.45593999997E+02  0.45594000000E+02  0.51100000000E-03 0.  1.
         11   -1    0    0    0    0 -0.00000000000E+00 -0.00000000000E+00 -0.45593999997E+02  0.45594000000E+02  0.51100000000E-03 0. -1.
    9900012    2    1    2    0    0 -0.15108198089E+02  0.45864296582E+01  0.37468324704E+02  0.50528827079E+02  0.29999900390E+02 0.  0.
         12    1    1    2    0    0  0.15108198089E+02 -0.45864296582E+01 -0.37468324704E+02  0.40659172921E+02  0.00000000000E+00 0. -1.
         11    1    3    3    0    0 -0.71075830394E+01 -0.62101597394E+01 -0.34210225130E+00  0.94446204191E+01  0.51100000000E-03 0. -1.
        -11    1    3    3    0    0 -0.72697666464E+01  0.12299817506E+02  0.32141784454E+02  0.35174270795E+02  0.51100000000E-03 0.  1.
         12    1    3    3    0    0 -0.73084840337E+00 -0.15032281082E+01  0.56686425005E+01  0.59099358654E+01  0.00000000000E+00 0. -1.
</event>
<event>
 7    1  0.2942034E-011  0.5052886E+02  0.7816164E-02  0.1300439E+00
        -11   -1    0    0    0    0  0.00000000000E+00  0.00000000000E+00  0.45593999997E+02  0.45594000000E+02  0.51100000000E-03 0.  1.
         11   -1    0    0    0    0 -0.00000000000E+00 -0.00000000000E+00 -0.45593999997E+02  0.45594000000E+02  0.51100000000E-03 0. -1.
    9900012    2    1    2    0    0 -0.40554422224E+02  0.29049085993E+01 -0.25728811092E+00  0.50528857694E+02  0.29999993446E+02 0.  0.
         12    1    1    2    0    0  0.40554422224E+02 -0.29049085993E+01  0.25728811092E+00  0.40659142306E+02  0.00000000000E+00 0. -1.
         11    1    3    3    0    0 -0.87450344443E+00 -0.26034399244E+00 -0.90802083063E+01  0.91259365775E+01  0.51100000000E-03 0. -1.
        -11    1    3    3    0    0 -0.28254247095E+02  0.12982454502E+00  0.87578934531E+01  0.29580737505E+02  0.51100000000E-03 0.  1.
        -12    1    3    3    0    0 -0.11425671685E+02  0.30354280468E+01  0.65026742322E-01  0.11822183612E+02  0.00000000000E+00 0.  1.
</event>
<event>
 7    1  0.2942034E-011  0.5052889E+02  0.7816164E-02  0.1300439E+00
        -11   -1    0    0    0    0  0.00000000000E+00  0.00000000000E+00  0.45593999997E+02  0.45594000000E+02  0.51100000000E-03 0. -1.
         11   -1    0    0    0    0 -0.00000000000E+00 -0.00000000000E+00 -0.45593999997E+02  0.45594000000E+02  0.51100000000E-03 0.  1.
    9900012    2    1    2    0    0 -0.28698191710E+02  0.14548114784E+02 -0.24858182489E+02  0.50528891699E+02  0.30000096809E+02 0.  0.
         12    1    1    2    0    0  0.28698191710E+02 -0.14548114784E+02  0.24858182489E+02  0.40659108301E+02  0.00000000000E+00 0. -1.
         11    1    3    3    0    0 -0.12707585260E+02 -0.68262774977E+01 -0.84883347996E+00  0.14449958691E+02  0.51100000000E-03 0. -1.
        -11    1    3    3    0    0 -0.32506904804E+01  0.69723893540E+01 -0.72897894514E+01  0.10598218360E+02  0.51100000000E-03 0.  1.
         12    1    3    3    0    0 -0.12739915969E+02  0.14402002927E+02 -0.16719559557E+02  0.25480714649E+02  0.00000000000E+00 0. -1.
</event>
<event>
 7    1  0.2942034E-011  0.5052883E+02  0.7816164E-02  0.1300439E+00
        -11   -1    0    0    0    0  0.00000000000E+00  0.00000000000E+00  0.45593999997E+02  0.45594000000E+02  0.51100000000E-03 0.  1.
         11   -1    0    0    0    0 -0.00000000000E+00 -0.00000000000E+00 -0.45593999997E+02  0.45594000000E+02  0.51100000000E-03 0. -1.
    9900012    2    1    2    0    0 -0.45731677292E+01 -0.21130402860E+02  0.34434870778E+02  0.50528829895E+02  0.29999908950E+02 0.  0.
         12    1    1    2    0    0  0.45731677292E+01  0.21130402860E+02 -0.34434870778E+02  0.40659170105E+02  0.00000000000E+00 0. -1.
         11    1    3    3    0    0  0.27679610081E+00 -0.10194241639E+01 -0.20080748332E+01  0.22689659549E+01  0.51100000000E-03 0. -1.
        -11    1    3    3    0    0 -0.32553703906E+01 -0.24317834276E+01  0.28542272240E+02  0.28830059173E+02  0.51100000000E-03 0.  1.
        -12    1    3    3    0    0 -0.15945934394E+01 -0.17679195269E+02  0.79006733708E+01  0.19429804767E+02  0.00000000000E+00 0.  1.
</event>
<event>
 7    1  0.2942034E-011  0.5052886E+02  0.7816164E-02  0.1300439E+00
        -11   -1    0    0    0    0  0.00000000000E+00  0.00000000000E+00  0.45593999997E+02  0.45594000000E+02  0.51100000000E-03 0.  1.
         11   -1    0    0    0    0 -0.00000000000E+00 -0.00000000000E+00 -0.45593999997E+02  0.45594000000E+02  0.51100000000E-03 0. -1.
    9900012    2    1    2    0    0  0.12481645302E+02  0.37727428197E+02  0.86032359573E+01  0.50528856173E+02  0.29999988823E+02 0.  0.
         12    1    1    2    0    0 -0.12481645302E+02 -0.37727428197E+02 -0.86032359573E+01  0.40659143827E+02  0.00000000000E+00 0. -1.
         11    1    3    3    0    0  0.93557585288E+01  0.11302966175E+01 -0.46912651479E+01  0.10526906338E+02  0.51100000000E-03 0. -1.
        -11    1    3    3    0    0  0.24608678491E+01  0.36892462361E+02  0.13235259293E+02  0.39271895020E+02  0.51100000000E-03 0.  1.
        -12    1    3    3    0    0  0.66501892461E+00 -0.29533078178E+00  0.59241812459E-01  0.73005481514E+00  0.00000000000E+00 0.  1.
</event>
<event>
 7    1  0.2942034E-011  0.5052886E+02  0.7816164E-02  0.1300439E+00
        -11   -1    0    0    0    0  0.00000000000E+00  0.00000000000E+00  0.45593999997E+02  0.45594000000E+02  0.51100000000E-03 0.  1.
         11   -1    0    0    0    0 -0.00000000000E+00 -0.00000000000E+00 -0.45593999997E+02  0.45594000000E+02  0.51100000000E-03 0. -1.
    9900012    2    1    2    0    0 -0.19035053546E+02 -0.23160177664E+02  0.27467041120E+02  0.50528862764E+02  0.30000008856E+02 0.  0.
         12    1    1    2    0    0  0.19035053546E+02  0.23160177664E+02 -0.27467041120E+02  0.40659137236E+02  0.00000000000E+00 0. -1.
         11    1    3    3    0    0 -0.66534496683E+01  0.28080534697E+01  0.32596905333E+01  0.79233288088E+01  0.51100000000E-03 0.  1.
        -11    1    3    3    0    0 -0.29805985210E+01 -0.22033960791E+02  0.83398809108E+01  0.23747273729E+02  0.51100000000E-03 0. -1.
        -12    1    3    3    0    0 -0.94010053567E+01 -0.39342703429E+01  0.15867469676E+02  0.18858260226E+02  0.00000000000E+00 0.  1.
</event>
<event>
 7    1  0.2942034E-011  0.5052886E+02  0.7816164E-02  0.1300439E+00
        -11   -1    0    0    0    0  0.00000000000E+00  0.00000000000E+00  0.45593999997E+02  0.45594000000E+02  0.51100000000E-03 0. -1.
         11   -1    0    0    0    0 -0.00000000000E+00 -0.00000000000E+00 -0.45593999997E+02  0.45594000000E+02  0.51100000000E-03 0.  1.
    9900012    2    1    2    0    0 -0.15448236928E+02  0.31492549035E+02 -0.20560576055E+02  0.50528856421E+02  0.29999989576E+02 0.  0.
         12    1    1    2    0    0  0.15448236928E+02 -0.31492549035E+02  0.20560576055E+02  0.40659143579E+02  0.00000000000E+00 0. -1.
         11    1    3    3    0    0  0.46907792824E+01  0.66379708127E+01  0.60330944341E+00  0.81504631361E+01  0.51100000000E-03 0. -1.
        -11    1    3    3    0    0 -0.17084805349E+02  0.11491542116E+02 -0.19863008257E+02  0.28609180542E+02  0.51100000000E-03 0.  1.
        -12    1    3    3    0    0 -0.30542108612E+01  0.13363036106E+02 -0.13008772421E+01  0.13769212742E+02  0.00000000000E+00 0.  1.
</event>
<event>
 7    1  0.2942034E-011  0.5052886E+02  0.7816164E-02  0.1300439E+00
        -11   -1    0    0    0    0  0.00000000000E+00  0.00000000000E+00  0.45593999997E+02  0.45594000000E+02  0.51100000000E-03 0.  1.
         11   -1    0    0    0    0 -0.00000000000E+00 -0.00000000000E+00 -0.45593999997E+02  0.45594000000E+02  0.51100000000E-03 0. -1.
    9900012    2    1    2    0    0  0.15876825505E+02  0.16840932776E+02  0.33428659331E+02  0.50528857491E+02  0.29999992829E+02 0.  0.
         12    1    1    2    0    0 -0.15876825505E+02 -0.16840932776E+02 -0.33428659331E+02  0.40659142509E+02  0.00000000000E+00 0. -1.
         11    1    3    3    0    0  0.79108320460E+01 -0.20435912844E+01 -0.14547604278E+01  0.82990274828E+01  0.51100000000E-03 0. -1.
        -11    1    3    3    0    0  0.80568063073E+01  0.19552965968E+02  0.26898039584E+02  0.34216007069E+02  0.51100000000E-03 0.  1.
         12    1    3    3    0    0 -0.90812848258E-01 -0.66844190750E+00  0.79853801749E+01  0.80138229388E+01  0.00000000000E+00 0. -1.
</event>
<event>
 7    1  0.2942034E-011  0.5052885E+02  0.7816164E-02  0.1300439E+00
        -11   -1    0    0    0    0  0.00000000000E+00  0.00000000000E+00  0.45593999997E+02  0.45594000000E+02  0.51100000000E-03 0.  1.
         11   -1    0    0    0    0 -0.00000000000E+00 -0.00000000000E+00 -0.45593999997E+02  0.45594000000E+02  0.51100000000E-03 0. -1.
    9900012    2    1    2    0    0 -0.48770904213E+01 -0.53528390884E+01  0.40009094931E+02  0.50528848823E+02  0.29999966482E+02 0.  0.
         12    1    1    2    0    0  0.48770904213E+01  0.53528390884E+01 -0.40009094931E+02  0.40659151177E+02  0.00000000000E+00 0. -1.
         11    1    3    3    0    0 -0.70370264355E+01  0.95611189277E+01  0.20122024443E+02  0.23363017874E+02  0.51100000000E-03 0. -1.
        -11    1    3    3    0    0 -0.30572184051E+00 -0.11933875073E+02  0.72884859217E+01  0.13986881975E+02  0.51100000000E-03 0.  1.
        -12    1    3    3    0    0  0.24656578548E+01 -0.29800829435E+01  0.12598584566E+02  0.13178948974E+02  0.00000000000E+00 0.  1.
</event>
<event>
 7    1  0.2942034E-011  0.5052884E+02  0.7816164E-02  0.1300439E+00
        -11   -1    0    0    0    0  0.00000000000E+00  0.00000000000E+00  0.45593999997E+02  0.45594000000E+02  0.51100000000E-03 0.  1.
         11   -1    0    0    0    0 -0.00000000000E+00 -0.00000000000E+00 -0.45593999997E+02  0.45594000000E+02  0.51100000000E-03 0. -1.
    9900012    2    1    2    0    0  0.99980699757E+01  0.23794023904E+02  0.31417354218E+02  0.50528842079E+02  0.29999945984E+02 0.  0.
         12    1    1    2    0    0 -0.99980699757E+01 -0.23794023904E+02 -0.31417354218E+02  0.40659157921E+02  0.00000000000E+00 0. -1.
         11    1    3    3    0    0  0.66373932850E+01  0.18663053024E+01 -0.11995161756E+01  0.69983515500E+01  0.51100000000E-03 0. -1.
        -11    1    3    3    0    0 -0.69377809154E+01  0.14655566033E+02  0.18782993194E+02  0.24813690846E+02  0.51100000000E-03 0.  1.
         12    1    3    3    0    0  0.10298457606E+02  0.72721525683E+01  0.13833877199E+02  0.18716799684E+02  0.00000000000E+00 0. -1.
</event>
<event>
 7    1  0.2942034E-011  0.5052886E+02  0.7816164E-02  0.1300439E+00
        -11   -1    0    0    0    0  0.00000000000E+00  0.00000000000E+00  0.45593999997E+02  0.45594000000E+02  0.51100000000E-03 0.  1.
         11   -1    0    0    0    0 -0.00000000000E+00 -0.00000000000E+00 -0.45593999997E+02  0.45594000000E+02  0.51100000000E-03 0. -1.
    9900012    2    1    2    0    0  0.54284313905E+01 -0.37306179150E+02  0.15229795631E+02  0.50528861482E+02  0.30000004959E+02 0.  0.
         12    1    1    2    0    0 -0.54284313905E+01  0.37306179150E+02 -0.15229795631E+02  0.40659138518E+02  0.00000000000E+00 0. -1.
         11    1    3    3    0    0 -0.90912658834E+01 -0.47590822561E+01  0.50129767578E+01  0.11420591732E+02  0.51100000000E-03 0. -1.
        -11    1    3    3    0    0  0.34629966826E+01 -0.22332517965E+02  0.47481880945E+01  0.23092834280E+02  0.51100000000E-03 0.  1.
        -12    1    3    3    0    0  0.11056700591E+02 -0.10214578929E+02  0.54686307786E+01  0.16015435469E+02  0.00000000000E+00 0.  1.
</event>
<event>
 7    1  0.2942034E-011  0.5052887E+02  0.7816164E-02  0.1300439E+00
        -11   -1    0    0    0    0  0.00000000000E+00  0.00000000000E+00  0.45593999997E+02  0.45594000000E+02  0.51100000000E-03 0. -1.
         11   -1    0    0    0    0 -0.00000000000E+00 -0.00000000000E+00 -0.45593999997E+02  0.45594000000E+02  0.51100000000E-03 0.  1.
    9900012    2    1    2    0    0  0.25442916582E+02  0.21526080131E+02  0.23290577575E+02  0.50528866539E+02  0.30000020332E+02 0.  0.
         12    1    1    2    0    0 -0.25442916582E+02 -0.21526080131E+02 -0.23290577575E+02  0.40659133461E+02  0.00000000000E+00 0. -1.
         11    1    3    3    0    0  0.63474474339E+01  0.24432351188E+02  0.10962134325E+02  0.27520869586E+02  0.51100000000E-03 0. -1.
        -11    1    3    3    0    0  0.71660063847E+01 -0.18183677646E+01  0.38792043899E+01  0.83490320273E+01  0.51100000000E-03 0.  1.
         12    1    3    3    0    0  0.11929462763E+02 -0.10879032927E+01  0.84492388600E+01  0.14658964926E+02  0.00000000000E+00 0. -1.
</event>
<event>
 7    1  0.2942034E-011  0.5052884E+02  0.7816164E-02  0.1300439E+00
        -11   -1    0    0    0    0  0.00000000000E+00  0.00000000000E+00  0.45593999997E+02  0.45594000000E+02  0.51100000000E-03 0.  1.
         11   -1    0    0    0    0 -0.00000000000E+00 -0.00000000000E+00 -0.45593999997E+02  0.45594000000E+02  0.51100000000E-03 0. -1.
    9900012    2    1    2    0    0  0.14660850493E+01  0.34601852433E+02  0.21300927947E+02  0.50528842008E+02  0.29999945768E+02 0.  0.
         12    1    1    2    0    0 -0.14660850493E+01 -0.34601852433E+02 -0.21300927947E+02  0.40659157992E+02  0.00000000000E+00 0. -1.
         11    1    3    3    0    0 -0.41896540552E+01  0.24220520440E+01  0.83473373822E+00  0.49108367801E+01  0.51100000000E-03 0. -1.
        -11    1    3    3    0    0  0.12674966499E+02  0.21998388463E+02  0.51037601205E+01  0.25896568081E+02  0.51100000000E-03 0.  1.
        -12    1    3    3    0    0 -0.70192273945E+01  0.10181411926E+02  0.15362434088E+02  0.19721437147E+02  0.00000000000E+00 0.  1.
</event>
<event>
 7    1  0.2942034E-011  0.5052886E+02  0.7816164E-02  0.1300439E+00
        -11   -1    0    0    0    0  0.00000000000E+00  0.00000000000E+00  0.45593999997E+02  0.45594000000E+02  0.51100000000E-03 0. -1.
         11   -1    0    0    0    0 -0.00000000000E+00 -0.00000000000E+00 -0.45593999997E+02  0.45594000000E+02  0.51100000000E-03 0.  1.
    9900012    2    1    2    0    0 -0.22409872695E+02  0.19894656941E+02 -0.27480278889E+02  0.50528862074E+02  0.30000006761E+02 0.  0.
         12    1    1    2    0    0  0.22409872695E+02 -0.19894656941E+02  0.27480278889E+02  0.40659137926E+02  0.00000000000E+00 0. -1.
         11    1    3    3    0    0 -0.18698939297E+01  0.17375971240E+02 -0.20697828772E+02  0.27089130588E+02  0.51100000000E-03 0. -1.
        -11    1    3    3    0    0 -0.14961277222E+02  0.21026358334E+01 -0.88101192680E+01  0.17489399514E+02  0.51100000000E-03 0.  1.
        -12    1    3    3    0    0 -0.55787015436E+01  0.41604986703E+00  0.20276691509E+01  0.59503319731E+01  0.00000000000E+00 0.  1.
</event>
<event>
 7    1  0.2942034E-011  0.5052886E+02  0.7816164E-02  0.1300439E+00
        -11   -1    0    0    0    0  0.00000000000E+00  0.00000000000E+00  0.45593999997E+02  0.45594000000E+02  0.51100000000E-03 0.  1.
         11   -1    0    0    0    0 -0.00000000000E+00 -0.00000000000E+00 -0.45593999997E+02  0.45594000000E+02  0.51100000000E-03 0. -1.
    9900012    2    1    2    0    0 -0.25248601782E+02 -0.26068007410E+02 -0.18333925986E+02  0.50528859031E+02  0.29999997510E+02 0.  0.
         12    1    1    2    0    0  0.25248601782E+02  0.26068007410E+02  0.18333925986E+02  0.40659140969E+02  0.00000000000E+00 0. -1.
         11    1    3    3    0    0  0.90024581869E+00  0.31247219234E+00 -0.16731647625E+01  0.19255030482E+01  0.51100000000E-03 0. -1.
        -11    1    3    3    0    0 -0.17851621477E+02 -0.27889372418E+02 -0.39483154799E+01  0.33347963636E+02  0.51100000000E-03 0.  1.
        -12    1    3    3    0    0 -0.82972261236E+01  0.15088928160E+01 -0.12712445743E+02  0.15255392347E+02  0.00000000000E+00 0.  1.
</event>
<event>
 7    1  0.2942034E-011  0.5052886E+02  0.7816164E-02  0.1300439E+00
        -11   -1    0    0    0    0  0.00000000000E+00  0.00000000000E+00  0.45593999997E+02  0.45594000000E+02  0.51100000000E-03 0.  1.
         11   -1    0    0    0    0 -0.00000000000E+00 -0.00000000000E+00 -0.45593999997E+02  0.45594000000E+02  0.51100000000E-03 0. -1.
    9900012    2    1    2    0    0 -0.12403558234E+02  0.76545096159E+01  0.37956896418E+02  0.50528858839E+02  0.29999996926E+02 0.  0.
         12    1    1    2    0    0  0.12403558234E+02 -0.76545096159E+01 -0.37956896418E+02  0.40659141161E+02  0.00000000000E+00 0. -1.
         11    1    3    3    0    0 -0.88882786378E+01  0.10426080981E+02  0.54894561014E+01  0.14759362802E+02  0.51100000000E-03 0. -1.
        -11    1    3    3    0    0  0.26848685985E+01 -0.62679875161E+01  0.92915986794E+01  0.11525189507E+02  0.51100000000E-03 0.  1.
        -12    1    3    3    0    0 -0.62001481947E+01  0.34964161509E+01  0.23175841637E+02  0.24244306530E+02  0.00000000000E+00 0.  1.
</event>
<event>
 7    1  0.2942034E-011  0.5052886E+02  0.7816164E-02  0.1300439E+00
        -11   -1    0    0    0    0  0.00000000000E+00  0.00000000000E+00  0.45593999997E+02  0.45594000000E+02  0.51100000000E-03 0.  1.
         11   -1    0    0    0    0 -0.00000000000E+00 -0.00000000000E+00 -0.45593999997E+02  0.45594000000E+02  0.51100000000E-03 0. -1.
    9900012    2    1    2    0    0  0.18716462918E+02 -0.22459365841E+02  0.28256615980E+02  0.50528862715E+02  0.30000008707E+02 0.  0.
         12    1    1    2    0    0 -0.18716462918E+02  0.22459365841E+02 -0.28256615980E+02  0.40659137285E+02  0.00000000000E+00 0. -1.
         11    1    3    3    0    0 -0.32594577008E+01  0.28442468937E+01  0.10488874737E+01  0.44512885875E+01  0.51100000000E-03 0. -1.
        -11    1    3    3    0    0  0.22664699772E+02 -0.25574613918E+02  0.21611785809E+02  0.40432892290E+02  0.51100000000E-03 0.  1.
        -12    1    3    3    0    0 -0.68877915325E+00  0.27100118357E+00  0.55959426980E+01  0.56446818372E+01  0.00000000000E+00 0.  1.
</event>
<event>
 7    1  0.2942034E-011  0.5052886E+02  0.7816164E-02  0.1300439E+00
        -11   -1    0    0    0    0  0.00000000000E+00  0.00000000000E+00  0.45593999997E+02  0.45594000000E+02  0.51100000000E-03 0. -1.
         11   -1    0    0    0    0 -0.00000000000E+00 -0.00000000000E+00 -0.45593999997E+02  0.45594000000E+02  0.51100000000E-03 0.  1.
    9900012    2    1    2    0    0 -0.18062372633E+02  0.35592397143E+02 -0.77522410276E+01  0.50528864736E+02  0.30000014850E+02 0.  0.
         12    1    1    2    0    0  0.18062372633E+02 -0.35592397143E+02  0.77522410276E+01  0.40659135264E+02  0.00000000000E+00 0. -1.
         11    1    3    3    0    0  0.28480262189E+01 -0.24297796995E+01 -0.20687704640E+01  0.42772531168E+01  0.51100000000E-03 0. -1.
        -11    1    3    3    0    0 -0.10971525745E+02  0.32862288875E+02 -0.52838333642E+01  0.35046016929E+02  0.51100000000E-03 0.  1.
         12    1    3    3    0    0 -0.99388731071E+01  0.51598879672E+01 -0.39963719945E+00  0.11205594690E+02  0.00000000000E+00 0. -1.
</event>
<event>
 7    1  0.2942034E-011  0.5052886E+02  0.7816164E-02  0.1300439E+00
        -11   -1    0    0    0    0  0.00000000000E+00  0.00000000000E+00  0.45593999997E+02  0.45594000000E+02  0.51100000000E-03 0.  1.
         11   -1    0    0    0    0 -0.00000000000E+00 -0.00000000000E+00 -0.45593999997E+02  0.45594000000E+02  0.51100000000E-03 0. -1.
    9900012    2    1    2    0    0 -0.24447531495E+02 -0.32253218074E+02 -0.39004691775E+01  0.50528861641E+02  0.30000005443E+02 0.  0.
         12    1    1    2    0    0  0.24447531495E+02  0.32253218074E+02  0.39004691775E+01  0.40659138359E+02  0.00000000000E+00 0. -1.
         11    1    3    3    0    0 -0.10772633594E+02 -0.98097803082E+01 -0.97776538249E+01  0.17546621863E+02  0.51100000000E-03 0. -1.
        -11    1    3    3    0    0 -0.10708783294E+02 -0.37748266143E+01  0.81022311930E+01  0.13948960756E+02  0.51100000000E-03 0.  1.
        -12    1    3    3    0    0 -0.29661146081E+01 -0.18668611151E+02 -0.22250465456E+01  0.19033279021E+02  0.00000000000E+00 0.  1.
</event>
<event>
 7    1  0.2942034E-011  0.5052886E+02  0.7816164E-02  0.1300439E+00
        -11   -1    0    0    0    0  0.00000000000E+00  0.00000000000E+00  0.45593999997E+02  0.45594000000E+02  0.51100000000E-03 0.  1.
         11   -1    0    0    0    0 -0.00000000000E+00 -0.00000000000E+00 -0.45593999997E+02  0.45594000000E+02  0.51100000000E-03 0. -1.
    9900012    2    1    2    0    0 -0.31766101344E+02 -0.88395199807E+01 -0.23789560435E+02  0.50528862112E+02  0.30000006877E+02 0.  0.
         12    1    1    2    0    0  0.31766101344E+02  0.88395199807E+01  0.23789560435E+02  0.40659137888E+02  0.00000000000E+00 0. -1.
         11    1    3    3    0    0  0.70995002882E+00  0.18698274636E+01 -0.43707858329E+01  0.48066675405E+01  0.51100000000E-03 0. -1.
        -11    1    3    3    0    0 -0.27430179539E+02 -0.92833579882E+01 -0.24860024651E+02  0.38165643071E+02  0.51100000000E-03 0.  1.
         12    1    3    3    0    0 -0.50458718334E+01 -0.14259894560E+01  0.54412500492E+01  0.75565515009E+01  0.00000000000E+00 0. -1.
</event>
<event>
 7    1  0.2942034E-011  0.5052885E+02  0.7816164E-02  0.1300439E+00
        -11   -1    0    0    0    0  0.00000000000E+00  0.00000000000E+00  0.45593999997E+02  0.45594000000E+02  0.51100000000E-03 0.  1.
         11   -1    0    0    0    0 -0.00000000000E+00 -0.00000000000E+00 -0.45593999997E+02  0.45594000000E+02  0.51100000000E-03 0. -1.
    9900012    2    1    2    0    0 -0.10110157175E+02  0.34655540709E+02 -0.18706803634E+02  0.50528852418E+02  0.29999977409E+02 0.  0.
         12    1    1    2    0    0  0.10110157175E+02 -0.34655540709E+02  0.18706803634E+02  0.40659147582E+02  0.00000000000E+00 0. -1.
         11    1    3    3    0    0  0.38935489236E+00  0.20964334630E+02 -0.20724152705E+02  0.29481272519E+02  0.51100000000E-03 0. -1.
        -11    1    3    3    0    0 -0.67223234130E+01  0.13212797966E+02  0.55735925602E+01  0.15837695427E+02  0.51100000000E-03 0.  1.
         12    1    3    3    0    0 -0.37771886548E+01  0.47840811269E+00 -0.35562434887E+01  0.52098844716E+01  0.00000000000E+00 0. -1.
</event>
<event>
 7    1  0.2942034E-011  0.5052886E+02  0.7816164E-02  0.1300439E+00
        -11   -1    0    0    0    0  0.00000000000E+00  0.00000000000E+00  0.45593999997E+02  0.45594000000E+02  0.51100000000E-03 0.  1.
         11   -1    0    0    0    0 -0.00000000000E+00 -0.00000000000E+00 -0.45593999997E+02  0.45594000000E+02  0.51100000000E-03 0. -1.
    9900012    2    1    2    0    0 -0.29711516038E+02 -0.25748801916E+02 -0.10362940101E+02  0.50528861876E+02  0.30000006159E+02 0.  0.
         12    1    1    2    0    0  0.29711516038E+02  0.25748801916E+02  0.10362940101E+02  0.40659138124E+02  0.00000000000E+00 0. -1.
         11    1    3    3    0    0 -0.88166864478E+01  0.29238026495E+01  0.27398618229E+01  0.96844940457E+01  0.51100000000E-03 0. -1.
        -11    1    3    3    0    0 -0.10692001218E+02 -0.21027846273E+02 -0.15522853636E+01  0.23641040566E+02  0.51100000000E-03 0.  1.
        -12    1    3    3    0    0 -0.10202828372E+02 -0.76447582932E+01 -0.11550516561E+02  0.17203327265E+02  0.00000000000E+00 0.  1.
</event>
<event>
 7    1  0.2942034E-011  0.5052877E+02  0.7816164E-02  0.1300439E+00
        -11   -1    0    0    0    0  0.00000000000E+00  0.00000000000E+00  0.45593999997E+02  0.45594000000E+02  0.51100000000E-03 0. -1.
         11   -1    0    0    0    0 -0.00000000000E+00 -0.00000000000E+00 -0.45593999997E+02  0.45594000000E+02  0.51100000000E-03 0.  1.
    9900012    2    1    2    0    0 -0.68886778979E+01  0.18124143427E+01 -0.40030415223E+02  0.50528771381E+02  0.29999731088E+02 0.  0.
         12    1    1    2    0    0  0.68886778979E+01 -0.18124143427E+01  0.40030415223E+02  0.40659228619E+02  0.00000000000E+00 0. -1.
         11    1    3    3    0    0 -0.25257773734E+01  0.71170001314E+01  0.15659658516E+01  0.77125541503E+01  0.51100000000E-03 0. -1.
        -11    1    3    3    0    0 -0.42616955668E+01 -0.69852902022E+01 -0.29907567145E+02  0.31006755734E+02  0.51100000000E-03 0.  1.
         12    1    3    3    0    0 -0.10120495766E+00  0.16807044135E+01 -0.11688813930E+02  0.11809461497E+02  0.00000000000E+00 0. -1.
</event>
<event>
 7    1  0.2942034E-011  0.5052886E+02  0.7816164E-02  0.1300439E+00
        -11   -1    0    0    0    0  0.00000000000E+00  0.00000000000E+00  0.45593999997E+02  0.45594000000E+02  0.51100000000E-03 0. -1.
         11   -1    0    0    0    0 -0.00000000000E+00 -0.00000000000E+00 -0.45593999997E+02  0.45594000000E+02  0.51100000000E-03 0.  1.
    9900012    2    1    2    0    0 -0.28643770931E+02  0.81939965393E+01 -0.27668725155E+02  0.50528861493E+02  0.30000004995E+02 0.  0.
         12    1    1    2    0    0  0.28643770931E+02 -0.81939965393E+01  0.27668725155E+02  0.40659138507E+02  0.00000000000E+00 0. -1.
         11    1    3    3    0    0  0.16009410345E+01 -0.28992251294E+01 -0.11979205293E+02  0.12428591162E+02  0.51100000000E-03 0. -1.
        -11    1    3    3    0    0 -0.28742974227E+02  0.70220506152E+01 -0.16196889479E+02  0.33731394743E+02  0.51100000000E-03 0.  1.
         12    1    3    3    0    0 -0.15017377387E+01  0.40711710535E+01  0.50736961720E+00  0.43688755889E+01  0.00000000000E+00 0. -1.
</event>
<event>
 7    1  0.2942034E-011  0.5052886E+02  0.7816164E-02  0.1300439E+00
        -11   -1    0    0    0    0  0.00000000000E+00  0.00000000000E+00  0.45593999997E+02  0.45594000000E+02  0.51100000000E-03 0.  1.
         11   -1    0    0    0    0 -0.00000000000E+00 -0.00000000000E+00 -0.45593999997E+02  0.45594000000E+02  0.51100000000E-03 0. -1.
    9900012    2    1    2    0    0  0.37865359999E+01  0.31152355084E+02  0.25852634751E+02  0.50528858276E+02  0.29999995216E+02 0.  0.
         12    1    1    2    0    0 -0.37865359999E+01 -0.31152355084E+02 -0.25852634751E+02  0.40659141724E+02  0.00000000000E+00 0. -1.
         11    1    3    3    0    0 -0.19316328748E+01  0.10001874072E+02 -0.17351986545E+01  0.10333421754E+02  0.51100000000E-03 0. -1.
        -11    1    3    3    0    0 -0.10775773209E+01  0.20636340776E+02  0.25974736227E+02  0.33191966736E+02  0.51100000000E-03 0.  1.
         12    1    3    3    0    0  0.67957461956E+01  0.51414023613E+00  0.16130971789E+01  0.70034697862E+01  0.00000000000E+00 0. -1.
</event>
<event>
 7    1  0.2942034E-011  0.5052885E+02  0.7816164E-02  0.1300439E+00
        -11   -1    0    0    0    0  0.00000000000E+00  0.00000000000E+00  0.45593999997E+02  0.45594000000E+02  0.51100000000E-03 0.  1.
         11   -1    0    0    0    0 -0.00000000000E+00 -0.00000000000E+00 -0.45593999997E+02  0.45594000000E+02  0.51100000000E-03 0. -1.
    9900012    2    1    2    0    0 -0.31703472906E+02  0.24466653818E+02 -0.70313164489E+01  0.50528846610E+02  0.29999959756E+02 0.  0.
         12    1    1    2    0    0  0.31703472906E+02 -0.24466653818E+02  0.70313164489E+01  0.40659153390E+02  0.00000000000E+00 0. -1.
         11    1    3    3    0    0 -0.21097142160E+02  0.27471288318E+02 -0.13309556280E+02  0.37106675650E+02  0.51100000000E-03 0. -1.
        -11    1    3    3    0    0 -0.52860668042E+01 -0.21041391472E+01  0.56011745615E+01  0.79839251336E+01  0.51100000000E-03 0.  1.
         12    1    3    3    0    0 -0.53202639419E+01 -0.90049535229E+00  0.67706526933E+00  0.54382458266E+01  0.00000000000E+00 0. -1.
</event>
<event>
 7    1  0.2942034E-011  0.5052885E+02  0.7816164E-02  0.1300439E+00
        -11   -1    0    0    0    0  0.00000000000E+00  0.00000000000E+00  0.45593999997E+02  0.45594000000E+02  0.51100000000E-03 0.  1.
         11   -1    0    0    0    0 -0.00000000000E+00 -0.00000000000E+00 -0.45593999997E+02  0.45594000000E+02  0.51100000000E-03 0. -1.
    9900012    2    1    2    0    0  0.51608342343E+01 -0.27402862941E+01  0.40237088809E+02  0.50528847343E+02  0.29999961984E+02 0.  0.
         12    1    1    2    0    0 -0.51608342343E+01  0.27402862941E+01 -0.40237088809E+02  0.40659152657E+02  0.00000000000E+00 0. -1.
         11    1    3    3    0    0  0.80322762855E+01 -0.13542724912E+01  0.53150468350E+01  0.97263168479E+01  0.51100000000E-03 0. -1.
        -11    1    3    3    0    0 -0.94562452638E+01  0.53810166901E+01  0.13124392759E+02  0.17047744738E+02  0.51100000000E-03 0.  1.
        -12    1    3    3    0    0  0.65848032126E+01 -0.67670304930E+01  0.21797649215E+02  0.23754785757E+02  0.00000000000E+00 0.  1.
</event>
<event>
 7    1  0.2942034E-011  0.5052886E+02  0.7816164E-02  0.1300439E+00
        -11   -1    0    0    0    0  0.00000000000E+00  0.00000000000E+00  0.45593999997E+02  0.45594000000E+02  0.51100000000E-03 0.  1.
         11   -1    0    0    0    0 -0.00000000000E+00 -0.00000000000E+00 -0.45593999997E+02  0.45594000000E+02  0.51100000000E-03 0. -1.
    9900012    2    1    2    0    0  0.40592741907E+02  0.75176675640E+00 -0.21976760563E+01  0.50528860451E+02  0.30000001828E+02 0.  0.
         12    1    1    2    0    0 -0.40592741907E+02 -0.75176675640E+00  0.21976760563E+01  0.40659139549E+02  0.00000000000E+00 0. -1.
         11    1    3    3    0    0  0.23527325871E+02 -0.68487494278E+01  0.10736916755E+02  0.26752977648E+02  0.51100000000E-03 0. -1.
        -11    1    3    3    0    0  0.63325887296E+01  0.23989448932E+01 -0.89037410742E+01  0.11186296170E+02  0.51100000000E-03 0.  1.
         12    1    3    3    0    0  0.10732827306E+02  0.52015712910E+01 -0.40308517369E+01  0.12589586633E+02  0.00000000000E+00 0. -1.
</event>
<event>
 7    1  0.2942034E-011  0.5052886E+02  0.7816164E-02  0.1300439E+00
        -11   -1    0    0    0    0  0.00000000000E+00  0.00000000000E+00  0.45593999997E+02  0.45594000000E+02  0.51100000000E-03 0.  1.
         11   -1    0    0    0    0 -0.00000000000E+00 -0.00000000000E+00 -0.45593999997E+02  0.45594000000E+02  0.51100000000E-03 0. -1.
    9900012    2    1    2    0    0  0.13525530150E+02 -0.14704566430E+02  0.35411885922E+02  0.50528857064E+02  0.29999991532E+02 0.  0.
         12    1    1    2    0    0 -0.13525530150E+02  0.14704566430E+02 -0.35411885922E+02  0.40659142936E+02  0.00000000000E+00 0. -1.
         11    1    3    3    0    0  0.52005378444E+00 -0.10527575733E-01 -0.33240482540E+01  0.33645005312E+01  0.51100000000E-03 0. -1.
        -11    1    3    3    0    0  0.11813310952E+01 -0.14113471415E+02  0.27030358160E+02  0.30515993857E+02  0.51100000000E-03 0.  1.
        -12    1    3    3    0    0  0.11824145270E+02 -0.58056743889E+00  0.11705576016E+02  0.16648362676E+02  0.00000000000E+00 0.  1.
</event>
<event>
 7    1  0.2942034E-011  0.5052880E+02  0.7816164E-02  0.1300439E+00
        -11   -1    0    0    0    0  0.00000000000E+00  0.00000000000E+00  0.45593999997E+02  0.45594000000E+02  0.51100000000E-03 0.  1.
         11   -1    0    0    0    0 -0.00000000000E+00 -0.00000000000E+00 -0.45593999997E+02  0.45594000000E+02  0.51100000000E-03 0. -1.
    9900012    2    1    2    0    0  0.38196120226E+02  0.13642977007E+02  0.28453087773E+01  0.50528804190E+02  0.29999830814E+02 0.  0.
         12    1    1    2    0    0 -0.38196120226E+02 -0.13642977007E+02 -0.28453087773E+01  0.40659195810E+02  0.00000000000E+00 0. -1.
         11    1    3    3    0    0 -0.98405081691E+00 -0.55832496747E+01  0.18299528366E+01  0.59573283094E+01  0.51100000000E-03 0. -1.
        -11    1    3    3    0    0  0.15664636046E+02  0.29158439250E+01 -0.38343482968E-01  0.15933751559E+02  0.51100000000E-03 0.  1.
         12    1    3    3    0    0  0.23515534996E+02  0.16310382757E+02  0.10536994237E+01  0.28637724322E+02  0.00000000000E+00 0. -1.
</event>
<event>
 7    1  0.2942034E-011  0.5052886E+02  0.7816164E-02  0.1300439E+00
        -11   -1    0    0    0    0  0.00000000000E+00  0.00000000000E+00  0.45593999997E+02  0.45594000000E+02  0.51100000000E-03 0.  1.
         11   -1    0    0    0    0 -0.00000000000E+00 -0.00000000000E+00 -0.45593999997E+02  0.45594000000E+02  0.51100000000E-03 0. -1.
    9900012    2    1    2    0    0  0.32070300830E+02  0.69793044255E+01  0.23998974473E+02  0.50528860052E+02  0.30000000613E+02 0.  0.
         12    1    1    2    0    0 -0.32070300830E+02 -0.69793044255E+01 -0.23998974473E+02  0.40659139948E+02  0.00000000000E+00 0. -1.
         11    1    3    3    0    0 -0.92422989369E+00 -0.23689097706E+01 -0.28926083987E+01  0.38513787151E+01  0.51100000000E-03 0. -1.
        -11    1    3    3    0    0  0.29796923418E+02  0.17253771930E+01  0.20167225321E+02  0.36021528966E+02  0.51100000000E-03 0.  1.
        -12    1    3    3    0    0  0.31976073050E+01  0.76228370030E+01  0.67243575508E+01  0.10655952371E+02  0.00000000000E+00 0.  1.
</event>
<event>
 7    1  0.2942034E-011  0.5052886E+02  0.7816164E-02  0.1300439E+00
        -11   -1    0    0    0    0  0.00000000000E+00  0.00000000000E+00  0.45593999997E+02  0.45594000000E+02  0.51100000000E-03 0.  1.
         11   -1    0    0    0    0 -0.00000000000E+00 -0.00000000000E+00 -0.45593999997E+02  0.45594000000E+02  0.51100000000E-03 0. -1.
    9900012    2    1    2    0    0 -0.99716853558E+01 -0.43175028837E+01  0.39180228858E+02  0.50528859904E+02  0.30000000165E+02 0.  0.
         12    1    1    2    0    0  0.99716853558E+01  0.43175028837E+01 -0.39180228858E+02  0.40659140096E+02  0.00000000000E+00 0. -1.
         11    1    3    3    0    0  0.17727301831E+01 -0.34211074034E+01  0.64467787045E+01  0.75104929328E+01  0.51100000000E-03 0. -1.
        -11    1    3    3    0    0 -0.87864435061E+01  0.11270293933E+02  0.11394752069E+02  0.18277349091E+02  0.51100000000E-03 0.  1.
        -12    1    3    3    0    0 -0.29579720329E+01 -0.12166689413E+02  0.21338698084E+02  0.24741017880E+02  0.00000000000E+00 0.  1.
</event>
<event>
 7    1  0.2942034E-011  0.5052886E+02  0.7816164E-02  0.1300439E+00
        -11   -1    0    0    0    0  0.00000000000E+00  0.00000000000E+00  0.45593999997E+02  0.45594000000E+02  0.51100000000E-03 0.  1.
         11   -1    0    0    0    0 -0.00000000000E+00 -0.00000000000E+00 -0.45593999997E+02  0.45594000000E+02  0.51100000000E-03 0. -1.
    9900012    2    1    2    0    0 -0.81677181224E+01 -0.36573545314E+01  0.39662045017E+02  0.50528859866E+02  0.30000000048E+02 0.  0.
         12    1    1    2    0    0  0.81677181224E+01  0.36573545314E+01 -0.39662045017E+02  0.40659140134E+02  0.00000000000E+00 0. -1.
         11    1    3    3    0    0  0.76557105120E+01  0.20533421243E+01  0.10637768630E+02  0.13266055895E+02  0.51100000000E-03 0. -1.
        -11    1    3    3    0    0 -0.10664440820E+02 -0.87536531631E+01  0.27960857268E+02  0.31179581157E+02  0.51100000000E-03 0.  1.
        -12    1    3    3    0    0 -0.51589878148E+01  0.30429565074E+01  0.10634191193E+01  0.60832228138E+01  0.00000000000E+00 0.  1.
</event>
<event>
 7    1  0.2942034E-011  0.5052888E+02  0.7816164E-02  0.1300439E+00
        -11   -1    0    0    0    0  0.00000000000E+00  0.00000000000E+00  0.45593999997E+02  0.45594000000E+02  0.51100000000E-03 0. -1.
         11   -1    0    0    0    0 -0.00000000000E+00 -0.00000000000E+00 -0.45593999997E+02  0.45594000000E+02  0.51100000000E-03 0.  1.
    9900012    2    1    2    0    0  0.11938733986E+02  0.22352917644E+02 -0.31795874841E+02  0.50528881056E+02  0.30000064459E+02 0.  0.
         12    1    1    2    0    0 -0.11938733986E+02 -0.22352917644E+02  0.31795874841E+02  0.40659118944E+02  0.00000000000E+00 0. -1.
         11    1    3    3    0    0  0.18988519127E+02  0.23837865985E+02 -0.22607454655E+02  0.37946076472E+02  0.51100000000E-03 0.  1.
        -11    1    3    3    0    0 -0.35924979862E+01 -0.29720054110E+01 -0.38252184846E+01  0.60308502436E+01  0.51100000000E-03 0. -1.
        -12    1    3    3    0    0 -0.34572871547E+01  0.14870570691E+01 -0.53632017015E+01  0.65519543411E+01  0.00000000000E+00 0.  1.
</event>
<event>
 7    1  0.2942034E-011  0.5052886E+02  0.7816164E-02  0.1300439E+00
        -11   -1    0    0    0    0  0.00000000000E+00  0.00000000000E+00  0.45593999997E+02  0.45594000000E+02  0.51100000000E-03 0. -1.
         11   -1    0    0    0    0 -0.00000000000E+00 -0.00000000000E+00 -0.45593999997E+02  0.45594000000E+02  0.51100000000E-03 0.  1.
    9900012    2    1    2    0    0  0.33536671769E+02  0.12565095012E+02 -0.19250344030E+02  0.50528859437E+02  0.29999998745E+02 0.  0.
         12    1    1    2    0    0 -0.33536671769E+02 -0.12565095012E+02  0.19250344030E+02  0.40659140563E+02  0.00000000000E+00 0. -1.
         11    1    3    3    0    0  0.52972377117E+01  0.29404560700E+01  0.66642612516E+01  0.90066302003E+01  0.51100000000E-03 0. -1.
        -11    1    3    3    0    0  0.28065061010E+02  0.10950324159E+02 -0.26442734280E+02  0.40084603593E+02  0.51100000000E-03 0.  1.
        -12    1    3    3    0    0  0.17437304717E+00 -0.13256852168E+01  0.52812899850E+00  0.14376256442E+01  0.00000000000E+00 0.  1.
</event>
<event>
 7    1  0.2942034E-011  0.5052886E+02  0.7816164E-02  0.1300439E+00
        -11   -1    0    0    0    0  0.00000000000E+00  0.00000000000E+00  0.45593999997E+02  0.45594000000E+02  0.51100000000E-03 0.  1.
         11   -1    0    0    0    0 -0.00000000000E+00 -0.00000000000E+00 -0.45593999997E+02  0.45594000000E+02  0.51100000000E-03 0. -1.
    9900012    2    1    2    0    0  0.38869096716E+02  0.70690863617E+01  0.96118248316E+01  0.50528857878E+02  0.29999994005E+02 0.  0.
         12    1    1    2    0    0 -0.38869096716E+02 -0.70690863617E+01 -0.96118248316E+01  0.40659142122E+02  0.00000000000E+00 0. -1.
         11    1    3    3    0    0  0.17374854745E+02 -0.34418723052E+01 -0.89926236503E+01  0.19864524730E+02  0.51100000000E-03 0. -1.
        -11    1    3    3    0    0  0.13540189385E+02  0.80754250151E+01  0.14361864269E+02  0.21326330282E+02  0.51100000000E-03 0.  1.
         12    1    3    3    0    0  0.79540525865E+01  0.24355336519E+01  0.42425842127E+01  0.93380028657E+01  0.00000000000E+00 0. -1.
</event>
<event>
 7    1  0.2942034E-011  0.5052886E+02  0.7816164E-02  0.1300439E+00
        -11   -1    0    0    0    0  0.00000000000E+00  0.00000000000E+00  0.45593999997E+02  0.45594000000E+02  0.51100000000E-03 0.  1.
         11   -1    0    0    0    0 -0.00000000000E+00 -0.00000000000E+00 -0.45593999997E+02  0.45594000000E+02  0.51100000000E-03 0. -1.
    9900012    2    1    2    0    0  0.28817972473E+02  0.22118792411E+02 -0.18260593428E+02  0.50528858500E+02  0.29999995896E+02 0.  0.
         12    1    1    2    0    0 -0.28817972473E+02 -0.22118792411E+02  0.18260593428E+02  0.40659141500E+02  0.00000000000E+00 0. -1.
         11    1    3    3    0    0 -0.54400872054E+01  0.60083054478E+01 -0.70903746051E+01  0.10768829809E+02  0.51100000000E-03 0. -1.
        -11    1    3    3    0    0  0.48750519174E+01  0.26363990600E+01 -0.34414036944E+01  0.65238018708E+01  0.51100000000E-03 0.  1.
         12    1    3    3    0    0  0.29383007761E+02  0.13474087904E+02 -0.77288151283E+01  0.33236226820E+02  0.00000000000E+00 0. -1.
</event>
<event>
 7    1  0.2942034E-011  0.5052886E+02  0.7816164E-02  0.1300439E+00
        -11   -1    0    0    0    0  0.00000000000E+00  0.00000000000E+00  0.45593999997E+02  0.45594000000E+02  0.51100000000E-03 0.  1.
         11   -1    0    0    0    0 -0.00000000000E+00 -0.00000000000E+00 -0.45593999997E+02  0.45594000000E+02  0.51100000000E-03 0. -1.
    9900012    2    1    2    0    0  0.32296862971E+02  0.11445806590E+02  0.21887713491E+02  0.50528857755E+02  0.29999993631E+02 0.  0.
         12    1    1    2    0    0 -0.32296862971E+02 -0.11445806590E+02 -0.21887713491E+02  0.40659142245E+02  0.00000000000E+00 0. -1.
         11    1    3    3    0    0  0.78544525781E+01  0.86806952190E+01  0.19742273909E+02  0.22952217194E+02  0.51100000000E-03 0. -1.
        -11    1    3    3    0    0  0.20014867318E+02 -0.29391141197E+01  0.90318162472E+00  0.20249667723E+02  0.51100000000E-03 0.  1.
         12    1    3    3    0    0  0.44275430743E+01  0.57042254909E+01  0.12422579581E+01  0.73269728374E+01  0.00000000000E+00 0. -1.
</event>
<event>
 7    1  0.2942034E-011  0.5052886E+02  0.7816164E-02  0.1300439E+00
        -11   -1    0    0    0    0  0.00000000000E+00  0.00000000000E+00  0.45593999997E+02  0.45594000000E+02  0.51100000000E-03 0. -1.
         11   -1    0    0    0    0 -0.00000000000E+00 -0.00000000000E+00 -0.45593999997E+02  0.45594000000E+02  0.51100000000E-03 0.  1.
    9900012    2    1    2    0    0  0.28363730613E+02  0.16959665426E+02 -0.23686161965E+02  0.50528859155E+02  0.29999997887E+02 0.  0.
         12    1    1    2    0    0 -0.28363730613E+02 -0.16959665426E+02  0.23686161965E+02  0.40659140845E+02  0.00000000000E+00 0. -1.
         11    1    3    3    0    0  0.25443478408E+02  0.11425882710E+02 -0.52928766554E+01  0.28389010774E+02  0.51100000000E-03 0. -1.
        -11    1    3    3    0    0 -0.36448590429E+01  0.17976606843E+01 -0.10281653979E+02  0.11055722056E+02  0.51100000000E-03 0.  1.
        -12    1    3    3    0    0  0.65651112478E+01  0.37361220316E+01 -0.81116313305E+01  0.11084126324E+02  0.00000000000E+00 0.  1.
</event>
<event>
 7    1  0.2942034E-011  0.5052885E+02  0.7816164E-02  0.1300439E+00
        -11   -1    0    0    0    0  0.00000000000E+00  0.00000000000E+00  0.45593999997E+02  0.45594000000E+02  0.51100000000E-03 0.  1.
         11   -1    0    0    0    0 -0.00000000000E+00 -0.00000000000E+00 -0.45593999997E+02  0.45594000000E+02  0.51100000000E-03 0. -1.
    9900012    2    1    2    0    0 -0.12127939883E+01  0.13744340205E+02  0.38246416768E+02  0.50528854012E+02  0.29999982253E+02 0.  0.
         12    1    1    2    0    0  0.12127939883E+01 -0.13744340205E+02 -0.38246416768E+02  0.40659145988E+02  0.00000000000E+00 0. -1.
         11    1    3    3    0    0 -0.24853277468E+01  0.14569052217E+02  0.39655260100E+02  0.42319898279E+02  0.51100000000E-03 0. -1.
        -11    1    3    3    0    0 -0.31991414339E-01  0.77981469342E+00  0.31275498391E+01  0.32234612862E+01  0.51100000000E-03 0.  1.
         12    1    3    3    0    0  0.13045251728E+01 -0.16045267055E+01 -0.45363931707E+01  0.49854944464E+01  0.00000000000E+00 0. -1.
</event>
<event>
 7    1  0.2942034E-011  0.5052885E+02  0.7816164E-02  0.1300439E+00
        -11   -1    0    0    0    0  0.00000000000E+00  0.00000000000E+00  0.45593999997E+02  0.45594000000E+02  0.51100000000E-03 0.  1.
         11   -1    0    0    0    0 -0.00000000000E+00 -0.00000000000E+00 -0.45593999997E+02  0.45594000000E+02  0.51100000000E-03 0. -1.
    9900012    2    1    2    0    0  0.17580030397E+02 -0.95406435078E+00  0.36649671582E+02  0.50528854231E+02  0.29999982921E+02 0.  0.
         12    1    1    2    0    0 -0.17580030397E+02  0.95406435078E+00 -0.36649671582E+02  0.40659145769E+02  0.00000000000E+00 0. -1.
         11    1    3    3    0    0  0.11024821608E+02 -0.41993864442E+00  0.22842808533E+01  0.11266808742E+02  0.51100000000E-03 0.  1.
        -11    1    3    3    0    0 -0.39971399204E+01  0.22108498219E+01  0.23239280864E+02  0.23683943080E+02  0.51100000000E-03 0. -1.
         12    1    3    3    0    0  0.10552348710E+02 -0.27449755282E+01  0.11126109866E+02  0.15578102410E+02  0.00000000000E+00 0. -1.
</event>
<event>
 7    1  0.2942034E-011  0.5052886E+02  0.7816164E-02  0.1300439E+00
        -11   -1    0    0    0    0  0.00000000000E+00  0.00000000000E+00  0.45593999997E+02  0.45594000000E+02  0.51100000000E-03 0. -1.
         11   -1    0    0    0    0 -0.00000000000E+00 -0.00000000000E+00 -0.45593999997E+02  0.45594000000E+02  0.51100000000E-03 0.  1.
    9900012    2    1    2    0    0 -0.79500955811E+01 -0.30374389349E+02 -0.25833278466E+02  0.50528858047E+02  0.29999994520E+02 0.  0.
         12    1    1    2    0    0  0.79500955811E+01  0.30374389349E+02  0.25833278466E+02  0.40659141953E+02  0.00000000000E+00 0. -1.
         11    1    3    3    0    0 -0.28008613747E+00 -0.14915115797E+02 -0.16195938802E+02  0.22019254334E+02  0.51100000000E-03 0. -1.
        -11    1    3    3    0    0  0.24354339062E+01  0.36840945323E+01 -0.44085859971E+01  0.62401539716E+01  0.51100000000E-03 0.  1.
        -12    1    3    3    0    0 -0.10105443350E+02 -0.19143368084E+02 -0.52287536669E+01  0.22269449742E+02  0.00000000000E+00 0.  1.
</event>
<event>
 7    1  0.2942034E-011  0.5052888E+02  0.7816164E-02  0.1300439E+00
        -11   -1    0    0    0    0  0.00000000000E+00  0.00000000000E+00  0.45593999997E+02  0.45594000000E+02  0.51100000000E-03 0. -1.
         11   -1    0    0    0    0 -0.00000000000E+00 -0.00000000000E+00 -0.45593999997E+02  0.45594000000E+02  0.51100000000E-03 0.  1.
    9900012    2    1    2    0    0 -0.36405074465E+02 -0.13209485352E+02  0.12383227734E+02  0.50528877049E+02  0.30000052277E+02 0.  0.
         12    1    1    2    0    0  0.36405074465E+02  0.13209485352E+02 -0.12383227734E+02  0.40659122951E+02  0.00000000000E+00 0. -1.
         11    1    3    3    0    0 -0.17999802047E+01  0.10942397875E+01  0.10722024435E+02  0.10926989416E+02  0.51100000000E-03 0. -1.
        -11    1    3    3    0    0 -0.30117284210E+02 -0.16578144918E+02  0.26145505356E+00  0.34379558696E+02  0.51100000000E-03 0.  1.
        -12    1    3    3    0    0 -0.44878100500E+01  0.22744197784E+01  0.13997482451E+01  0.52223289367E+01  0.00000000000E+00 0.  1.
</event>
<event>
 7    1  0.2942034E-011  0.5052886E+02  0.7816164E-02  0.1300439E+00
        -11   -1    0    0    0    0  0.00000000000E+00  0.00000000000E+00  0.45593999997E+02  0.45594000000E+02  0.51100000000E-03 0.  1.
         11   -1    0    0    0    0 -0.00000000000E+00 -0.00000000000E+00 -0.45593999997E+02  0.45594000000E+02  0.51100000000E-03 0. -1.
    9900012    2    1    2    0    0 -0.19246208107E+02  0.15011212896E+02  0.32517885665E+02  0.50528856782E+02  0.29999990675E+02 0.  0.
         12    1    1    2    0    0  0.19246208107E+02 -0.15011212896E+02 -0.32517885665E+02  0.40659143218E+02  0.00000000000E+00 0. -1.
         11    1    3    3    0    0 -0.39699422232E+01  0.66666723189E+01 -0.41584560346E+01  0.88032788162E+01  0.51100000000E-03 0. -1.
        -11    1    3    3    0    0 -0.58628342266E+00  0.47304352362E+01  0.90298794428E+01  0.10210752606E+02  0.51100000000E-03 0.  1.
         12    1    3    3    0    0 -0.14689982461E+02  0.36141053410E+01  0.27646462257E+02  0.31514825359E+02  0.00000000000E+00 0. -1.
</event>
<event>
 7    1  0.2942034E-011  0.5052886E+02  0.7816164E-02  0.1300439E+00
        -11   -1    0    0    0    0  0.00000000000E+00  0.00000000000E+00  0.45593999997E+02  0.45594000000E+02  0.51100000000E-03 0. -1.
         11   -1    0    0    0    0 -0.00000000000E+00 -0.00000000000E+00 -0.45593999997E+02  0.45594000000E+02  0.51100000000E-03 0.  1.
    9900012    2    1    2    0    0  0.25497873010E+02  0.27253877344E+02  0.16132276090E+02  0.50528859697E+02  0.29999999536E+02 0.  0.
         12    1    1    2    0    0 -0.25497873010E+02 -0.27253877344E+02 -0.16132276090E+02  0.40659140303E+02  0.00000000000E+00 0. -1.
         11    1    3    3    0    0 -0.19144130361E+01  0.14377660044E+02  0.43672133687E+01  0.15147760180E+02  0.51100000000E-03 0. -1.
        -11    1    3    3    0    0  0.25416925513E+02  0.11206123329E+02  0.14725698204E+02  0.31439521155E+02  0.51100000000E-03 0.  1.
         12    1    3    3    0    0  0.19953605326E+01  0.16700939707E+01 -0.29606354820E+01  0.39415783619E+01  0.00000000000E+00 0. -1.
</event>
<event>
 7    1  0.2942034E-011  0.5052886E+02  0.7816164E-02  0.1300439E+00
        -11   -1    0    0    0    0  0.00000000000E+00  0.00000000000E+00  0.45593999997E+02  0.45594000000E+02  0.51100000000E-03 0.  1.
         11   -1    0    0    0    0 -0.00000000000E+00 -0.00000000000E+00 -0.45593999997E+02  0.45594000000E+02  0.51100000000E-03 0. -1.
    9900012    2    1    2    0    0  0.11106288272E+02  0.17960149389E+02  0.34745489069E+02  0.50528860611E+02  0.30000002312E+02 0.  0.
         12    1    1    2    0    0 -0.11106288272E+02 -0.17960149389E+02 -0.34745489069E+02  0.40659139389E+02  0.00000000000E+00 0. -1.
         11    1    3    3    0    0  0.51381791243E+00 -0.42204404502E+01 -0.18985086571E+01  0.46562282829E+01  0.51100000000E-03 0. -1.
        -11    1    3    3    0    0  0.94209012839E+01  0.58753024764E+01  0.12549441198E+02  0.16755925365E+02  0.51100000000E-03 0.  1.
         12    1    3    3    0    0  0.11715690757E+01  0.16305287363E+02  0.24094556528E+02  0.29116706962E+02  0.00000000000E+00 0. -1.
</event>
<event>
 7    1  0.2942034E-011  0.5052886E+02  0.7816164E-02  0.1300439E+00
        -11   -1    0    0    0    0  0.00000000000E+00  0.00000000000E+00  0.45593999997E+02  0.45594000000E+02  0.51100000000E-03 0.  1.
         11   -1    0    0    0    0 -0.00000000000E+00 -0.00000000000E+00 -0.45593999997E+02  0.45594000000E+02  0.51100000000E-03 0. -1.
    9900012    2    1    2    0    0 -0.24761739165E+01 -0.26180105336E+02  0.31010259795E+02  0.50528861234E+02  0.30000004205E+02 0.  0.
         12    1    1    2    0    0  0.24761739165E+01  0.26180105336E+02 -0.31010259795E+02  0.40659138766E+02  0.00000000000E+00 0. -1.
         11    1    3    3    0    0 -0.10186576937E+02 -0.16787129132E+02  0.28858254990E+02  0.34905199262E+02  0.51100000000E-03 0.  1.
        -11    1    3    3    0    0  0.41621583423E+01 -0.93509590921E+01  0.46921779078E+01  0.11259686132E+02  0.51100000000E-03 0. -1.
         12    1    3    3    0    0  0.35482446786E+01 -0.42017112406E-01 -0.25401731029E+01  0.43639758397E+01  0.00000000000E+00 0. -1.
</event>
<event>
 7    1  0.2942034E-011  0.5052886E+02  0.7816164E-02  0.1300439E+00
        -11   -1    0    0    0    0  0.00000000000E+00  0.00000000000E+00  0.45593999997E+02  0.45594000000E+02  0.51100000000E-03 0. -1.
         11   -1    0    0    0    0 -0.00000000000E+00 -0.00000000000E+00 -0.45593999997E+02  0.45594000000E+02  0.51100000000E-03 0.  1.
    9900012    2    1    2    0    0 -0.28216509707E+02 -0.10335381313E+02 -0.27389300896E+02  0.50528864120E+02  0.30000012979E+02 0.  0.
         12    1    1    2    0    0  0.28216509707E+02  0.10335381313E+02  0.27389300896E+02  0.40659135880E+02  0.00000000000E+00 0. -1.
         11    1    3    3    0    0 -0.15374904872E+02  0.69739931274E+01 -0.28082267935E+01  0.17114625849E+02  0.51100000000E-03 0. -1.
        -11    1    3    3    0    0 -0.13535290991E+02 -0.14926821297E+02 -0.21732512687E+02  0.29636399987E+02  0.51100000000E-03 0.  1.
         12    1    3    3    0    0  0.69368615533E+00 -0.23825531435E+01 -0.28485614152E+01  0.37778382840E+01  0.00000000000E+00 0. -1.
</event>
<event>
 7    1  0.2942034E-011  0.5052895E+02  0.7816164E-02  0.1300438E+00
        -11   -1    0    0    0    0  0.00000000000E+00  0.00000000000E+00  0.45593999997E+02  0.45594000000E+02  0.51100000000E-03 0. -1.
         11   -1    0    0    0    0 -0.00000000000E+00 -0.00000000000E+00 -0.45593999997E+02  0.45594000000E+02  0.51100000000E-03 0.  1.
    9900012    2    1    2    0    0  0.15827318660E+02  0.22831474960E+02 -0.29688009257E+02  0.50528952318E+02  0.30000281064E+02 0.  0.
         12    1    1    2    0    0 -0.15827318660E+02 -0.22831474960E+02  0.29688009257E+02  0.40659047682E+02  0.00000000000E+00 0. -1.
         11    1    3    3    0    0 -0.47365342441E+00 -0.66420885532E+01 -0.47559392398E+01  0.81829485046E+01  0.51100000000E-03 0. -1.
        -11    1    3    3    0    0  0.37577276844E+01  0.12905967540E+02 -0.94015039655E+01  0.16403438437E+02  0.51100000000E-03 0.  1.
         12    1    3    3    0    0  0.12543244400E+02  0.16567595973E+02 -0.15530566052E+02  0.25942565376E+02  0.00000000000E+00 0. -1.
</event>
<event>
 7    1  0.2942034E-011  0.5052887E+02  0.7816164E-02  0.1300439E+00
        -11   -1    0    0    0    0  0.00000000000E+00  0.00000000000E+00  0.45593999997E+02  0.45594000000E+02  0.51100000000E-03 0.  1.
         11   -1    0    0    0    0 -0.00000000000E+00 -0.00000000000E+00 -0.45593999997E+02  0.45594000000E+02  0.51100000000E-03 0. -1.
    9900012    2    1    2    0    0  0.22512603301E+02  0.29295858424E+02  0.16973521777E+02  0.50528867327E+02  0.30000022727E+02 0.  0.
         12    1    1    2    0    0 -0.22512603301E+02 -0.29295858424E+02 -0.16973521777E+02  0.40659132673E+02  0.00000000000E+00 0. -1.
         11    1    3    3    0    0 -0.21759402329E+01  0.12555882086E+02  0.41636435467E+00  0.12749833347E+02  0.51100000000E-03 0. -1.
        -11    1    3    3    0    0  0.59509896308E+01  0.25186060754E+01  0.12270986091E+02  0.13868480596E+02  0.51100000000E-03 0.  1.
        -12    1    3    3    0    0  0.18737553903E+02  0.14221370263E+02  0.42861713320E+01  0.23910553384E+02  0.00000000000E+00 0.  1.
</event>
<event>
 7    1  0.2942034E-011  0.5052885E+02  0.7816164E-02  0.1300439E+00
        -11   -1    0    0    0    0  0.00000000000E+00  0.00000000000E+00  0.45593999997E+02  0.45594000000E+02  0.51100000000E-03 0. -1.
         11   -1    0    0    0    0 -0.00000000000E+00 -0.00000000000E+00 -0.45593999997E+02  0.45594000000E+02  0.51100000000E-03 0.  1.
    9900012    2    1    2    0    0 -0.35726499436E+02 -0.47348620261E+01 -0.18824578901E+02  0.50528850339E+02  0.29999971089E+02 0.  0.
         12    1    1    2    0    0  0.35726499436E+02  0.47348620261E+01  0.18824578901E+02  0.40659149661E+02  0.00000000000E+00 0. -1.
         11    1    3    3    0    0  0.10801993436E+01 -0.51974132193E+01  0.20255598674E+01  0.56817979401E+01  0.51100000000E-03 0. -1.
        -11    1    3    3    0    0 -0.28499910318E+02  0.51985474337E+01 -0.20090782829E+02  0.35254919352E+02  0.51100000000E-03 0.  1.
         12    1    3    3    0    0 -0.83067884617E+01 -0.47359962405E+01 -0.75935593931E+00  0.95921330464E+01  0.00000000000E+00 0. -1.
</event>
<event>
 7    1  0.2942034E-011  0.5052887E+02  0.7816164E-02  0.1300439E+00
        -11   -1    0    0    0    0  0.00000000000E+00  0.00000000000E+00  0.45593999997E+02  0.45594000000E+02  0.51100000000E-03 0. -1.
         11   -1    0    0    0    0 -0.00000000000E+00 -0.00000000000E+00 -0.45593999997E+02  0.45594000000E+02  0.51100000000E-03 0.  1.
    9900012    2    1    2    0    0  0.11287054832E+02 -0.22120877342E+02 -0.32193689328E+02  0.50528874902E+02  0.30000045753E+02 0.  0.
         12    1    1    2    0    0 -0.11287054832E+02  0.22120877342E+02  0.32193689328E+02  0.40659125098E+02  0.00000000000E+00 0. -1.
         11    1    3    3    0    0 -0.73041445229E+01 -0.13255491393E+02 -0.88971167090E+01  0.17556117602E+02  0.51100000000E-03 0. -1.
        -11    1    3    3    0    0  0.17735121827E+02 -0.38112269073E+01 -0.19168139805E+02  0.26390861687E+02  0.51100000000E-03 0.  1.
        -12    1    3    3    0    0  0.85607752819E+00 -0.50541590418E+01 -0.41284328147E+01  0.65818956129E+01  0.00000000000E+00 0.  1.
</event>
<event>
 7    1  0.2942034E-011  0.5052886E+02  0.7816164E-02  0.1300439E+00
        -11   -1    0    0    0    0  0.00000000000E+00  0.00000000000E+00  0.45593999997E+02  0.45594000000E+02  0.51100000000E-03 0.  1.
         11   -1    0    0    0    0 -0.00000000000E+00 -0.00000000000E+00 -0.45593999997E+02  0.45594000000E+02  0.51100000000E-03 0. -1.
    9900012    2    1    2    0    0  0.11458940573E+02 -0.10810364291E+02  0.37483254681E+02  0.50528859863E+02  0.30000000040E+02 0.  0.
         12    1    1    2    0    0 -0.11458940573E+02  0.10810364291E+02 -0.37483254681E+02  0.40659140137E+02  0.00000000000E+00 0. -1.
         11    1    3    3    0    0  0.99145385688E+01  0.60107702797E+01  0.77283662196E+01  0.13933954179E+02  0.51100000000E-03 0. -1.
        -11    1    3    3    0    0 -0.29602688237E+01 -0.14888005443E+00  0.96294593431E+01  0.10075308644E+02  0.51100000000E-03 0.  1.
         12    1    3    3    0    0  0.45046708281E+01 -0.16672254516E+02  0.20125429119E+02  0.26519597039E+02  0.00000000000E+00 0. -1.
</event>
<event>
 7    1  0.2942034E-011  0.5052885E+02  0.7816164E-02  0.1300439E+00
        -11   -1    0    0    0    0  0.00000000000E+00  0.00000000000E+00  0.45593999997E+02  0.45594000000E+02  0.51100000000E-03 0.  1.
         11   -1    0    0    0    0 -0.00000000000E+00 -0.00000000000E+00 -0.45593999997E+02  0.45594000000E+02  0.51100000000E-03 0. -1.
    9900012    2    1    2    0    0 -0.35069833920E+02 -0.20385144255E+02  0.27782662953E+01  0.50528854398E+02  0.29999983428E+02 0.  0.
         12    1    1    2    0    0  0.35069833920E+02  0.20385144255E+02 -0.27782662953E+01  0.40659145602E+02  0.00000000000E+00 0. -1.
         11    1    3    3    0    0  0.27768556777E+00  0.36321068897E+01 -0.24034842139E+01  0.43641776270E+01  0.51100000000E-03 0. -1.
        -11    1    3    3    0    0 -0.23384414389E+02 -0.16162781998E+02  0.11313669824E+02  0.30595187259E+02  0.51100000000E-03 0.  1.
        -12    1    3    3    0    0 -0.11963105098E+02 -0.78544691466E+01 -0.61319193153E+01  0.15569489512E+02  0.00000000000E+00 0.  1.
</event>
<event>
 7    1  0.2942034E-011  0.5052886E+02  0.7816164E-02  0.1300439E+00
        -11   -1    0    0    0    0  0.00000000000E+00  0.00000000000E+00  0.45593999997E+02  0.45594000000E+02  0.51100000000E-03 0. -1.
         11   -1    0    0    0    0 -0.00000000000E+00 -0.00000000000E+00 -0.45593999997E+02  0.45594000000E+02  0.51100000000E-03 0.  1.
    9900012    2    1    2    0    0 -0.23294815041E+02  0.17496847974E+02 -0.28361552984E+02  0.50528858537E+02  0.29999996009E+02 0.  0.
         12    1    1    2    0    0  0.23294815041E+02 -0.17496847974E+02  0.28361552984E+02  0.40659141463E+02  0.00000000000E+00 0. -1.
         11    1    3    3    0    0 -0.41195291971E+01 -0.57286781843E+01 -0.11725138896E+02  0.13684559070E+02  0.51100000000E-03 0. -1.
        -11    1    3    3    0    0 -0.67438842890E+00  0.10128936468E+02 -0.41638416306E+01  0.10972134301E+02  0.51100000000E-03 0.  1.
        -12    1    3    3    0    0 -0.18500897415E+02  0.13096589690E+02 -0.12472572458E+02  0.25872165166E+02  0.00000000000E+00 0.  1.
</event>
<event>
 7    1  0.2942034E-011  0.5052886E+02  0.7816164E-02  0.1300439E+00
        -11   -1    0    0    0    0  0.00000000000E+00  0.00000000000E+00  0.45593999997E+02  0.45594000000E+02  0.51100000000E-03 0. -1.
         11   -1    0    0    0    0 -0.00000000000E+00 -0.00000000000E+00 -0.45593999997E+02  0.45594000000E+02  0.51100000000E-03 0.  1.
    9900012    2    1    2    0    0 -0.84560468765E+01 -0.33605503557E+02 -0.21268075101E+02  0.50528860602E+02  0.30000002284E+02 0.  0.
         12    1    1    2    0    0  0.84560468765E+01  0.33605503557E+02  0.21268075101E+02  0.40659139398E+02  0.00000000000E+00 0. -1.
         11    1    3    3    0    0  0.32649834776E+01  0.31828420482E+01  0.14040815979E+01  0.47709586046E+01  0.51100000000E-03 0. -1.
        -11    1    3    3    0    0 -0.12342889272E+02 -0.30364201855E+02 -0.15995737882E+02  0.36471842571E+02  0.51100000000E-03 0.  1.
         12    1    3    3    0    0  0.62185891773E+00 -0.64241437504E+01 -0.66764188173E+01  0.92860594260E+01  0.00000000000E+00 0. -1.
</event>
<event>
 7    1  0.2942034E-011  0.5052887E+02  0.7816164E-02  0.1300439E+00
        -11   -1    0    0    0    0  0.00000000000E+00  0.00000000000E+00  0.45593999997E+02  0.45594000000E+02  0.51100000000E-03 0.  1.
         11   -1    0    0    0    0 -0.00000000000E+00 -0.00000000000E+00 -0.45593999997E+02  0.45594000000E+02  0.51100000000E-03 0. -1.
    9900012    2    1    2    0    0  0.40435282968E+01 -0.20896650839E+02  0.34643109574E+02  0.50528865991E+02  0.30000018667E+02 0.  0.
         12    1    1    2    0    0 -0.40435282968E+01  0.20896650839E+02 -0.34643109574E+02  0.40659134009E+02  0.00000000000E+00 0. -1.
         11    1    3    3    0    0 -0.50709122149E+01  0.93225470114E+00  0.70703158704E+01  0.87505780544E+01  0.51100000000E-03 0. -1.
        -11    1    3    3    0    0  0.15210489711E+02 -0.13832624432E+02  0.13945913078E+02  0.24843288586E+02  0.51100000000E-03 0.  1.
        -12    1    3    3    0    0 -0.60960491998E+01 -0.79962811082E+01  0.13626880626E+02  0.16934999350E+02  0.00000000000E+00 0.  1.
</event>
<event>
 7    1  0.2942034E-011  0.5052886E+02  0.7816164E-02  0.1300439E+00
        -11   -1    0    0    0    0  0.00000000000E+00  0.00000000000E+00  0.45593999997E+02  0.45594000000E+02  0.51100000000E-03 0. -1.
         11   -1    0    0    0    0 -0.00000000000E+00 -0.00000000000E+00 -0.45593999997E+02  0.45594000000E+02  0.51100000000E-03 0.  1.
    9900012    2    1    2    0    0  0.30829995347E+02 -0.24284406831E+02 -0.10627546870E+02  0.50528858584E+02  0.29999996151E+02 0.  0.
         12    1    1    2    0    0 -0.30829995347E+02  0.24284406831E+02  0.10627546870E+02  0.40659141416E+02  0.00000000000E+00 0. -1.
         11    1    3    3    0    0  0.16167134121E+02 -0.12305484780E+02  0.86382107856E+01  0.22077587440E+02  0.51100000000E-03 0. -1.
        -11    1    3    3    0    0  0.10336954412E+02 -0.11398589543E+02 -0.10409498055E+02  0.18577893317E+02  0.51100000000E-03 0.  1.
         12    1    3    3    0    0  0.43259068141E+01 -0.58033250830E+00 -0.88562596003E+01  0.98733778259E+01  0.00000000000E+00 0. -1.
</event>
<event>
 7    1  0.2942034E-011  0.5052887E+02  0.7816164E-02  0.1300439E+00
        -11   -1    0    0    0    0  0.00000000000E+00  0.00000000000E+00  0.45593999997E+02  0.45594000000E+02  0.51100000000E-03 0. -1.
         11   -1    0    0    0    0 -0.00000000000E+00 -0.00000000000E+00 -0.45593999997E+02  0.45594000000E+02  0.51100000000E-03 0.  1.
    9900012    2    1    2    0    0 -0.58448880792E+00  0.23991836898E+02 -0.32820954306E+02  0.50528869335E+02  0.30000028829E+02 0.  0.
         12    1    1    2    0    0  0.58448880792E+00 -0.23991836898E+02  0.32820954306E+02  0.40659130665E+02  0.00000000000E+00 0. -1.
         11    1    3    3    0    0 -0.19467666152E+01  0.23252504770E+02 -0.21405624115E+02  0.31664958904E+02  0.51100000000E-03 0. -1.
        -11    1    3    3    0    0  0.36098152860E+01 -0.57115613275E+01 -0.16652015308E+01  0.69588501634E+01  0.51100000000E-03 0.  1.
        -12    1    3    3    0    0 -0.22475374786E+01  0.64508934550E+01 -0.97501286601E+01  0.11905060268E+02  0.00000000000E+00 0.  1.
</event>
<event>
 7    1  0.2942034E-011  0.5052886E+02  0.7816164E-02  0.1300439E+00
        -11   -1    0    0    0    0  0.00000000000E+00  0.00000000000E+00  0.45593999997E+02  0.45594000000E+02  0.51100000000E-03 0.  1.
         11   -1    0    0    0    0 -0.00000000000E+00 -0.00000000000E+00 -0.45593999997E+02  0.45594000000E+02  0.51100000000E-03 0. -1.
    9900012    2    1    2    0    0  0.11268034486E+01 -0.35381974571E+02  0.20000292258E+02  0.50528862024E+02  0.30000006607E+02 0.  0.
         12    1    1    2    0    0 -0.11268034486E+01  0.35381974571E+02 -0.20000292258E+02  0.40659137976E+02  0.00000000000E+00 0. -1.
         11    1    3    3    0    0 -0.32086529476E+01 -0.28552590082E+02  0.12222009559E+02  0.31223762939E+02  0.51100000000E-03 0.  1.
        -11    1    3    3    0    0  0.85033092221E-01  0.19984599010E+01 -0.37046964857E+01  0.42102077045E+01  0.51100000000E-03 0. -1.
        -12    1    3    3    0    0  0.42504233040E+01 -0.88278443903E+01  0.11482979185E+02  0.15094891381E+02  0.00000000000E+00 0.  1.
</event>
<event>
 7    1  0.2942034E-011  0.5052888E+02  0.7816164E-02  0.1300439E+00
        -11   -1    0    0    0    0  0.00000000000E+00  0.00000000000E+00  0.45593999997E+02  0.45594000000E+02  0.51100000000E-03 0.  1.
         11   -1    0    0    0    0 -0.00000000000E+00 -0.00000000000E+00 -0.45593999997E+02  0.45594000000E+02  0.51100000000E-03 0. -1.
    9900012    2    1    2    0    0  0.23012840056E+02 -0.18724275591E+02  0.27802417641E+02  0.50528883795E+02  0.30000072784E+02 0.  0.
         12    1    1    2    0    0 -0.23012840056E+02  0.18724275591E+02 -0.27802417641E+02  0.40659116205E+02  0.00000000000E+00 0. -1.
         11    1    3    3    0    0 -0.14435861583E+01  0.55202013572E+01  0.17303958970E+01  0.59624520327E+01  0.51100000000E-03 0. -1.
        -11    1    3    3    0    0  0.16332222657E+02 -0.22545173464E+02  0.20396148016E+02  0.34511290871E+02  0.51100000000E-03 0.  1.
        -12    1    3    3    0    0  0.81242035571E+01 -0.16993034841E+01  0.56758737281E+01  0.10055140891E+02  0.00000000000E+00 0.  1.
</event>
<event>
 7    1  0.2942034E-011  0.5052886E+02  0.7816164E-02  0.1300439E+00
        -11   -1    0    0    0    0  0.00000000000E+00  0.00000000000E+00  0.45593999997E+02  0.45594000000E+02  0.51100000000E-03 0. -1.
         11   -1    0    0    0    0 -0.00000000000E+00 -0.00000000000E+00 -0.45593999997E+02  0.45594000000E+02  0.51100000000E-03 0.  1.
    9900012    2    1    2    0    0  0.13300623258E+02  0.43720840431E+01 -0.38172555451E+02  0.50528859729E+02  0.29999999632E+02 0.  0.
         12    1    1    2    0    0 -0.13300623258E+02 -0.43720840431E+01  0.38172555451E+02  0.40659140271E+02  0.00000000000E+00 0. -1.
         11    1    3    3    0    0 -0.84241958198E+01 -0.10598638658E+01 -0.12929357831E+02  0.15467988906E+02  0.51100000000E-03 0. -1.
        -11    1    3    3    0    0  0.20034410422E+02  0.41854491245E+01 -0.25757029935E+02  0.32898634875E+02  0.51100000000E-03 0.  1.
        -12    1    3    3    0    0  0.16904086562E+01  0.12464987844E+01  0.51383231469E+00  0.21622359473E+01  0.00000000000E+00 0.  1.
</event>
<event>
 7    1  0.2942034E-011  0.5052885E+02  0.7816164E-02  0.1300439E+00
        -11   -1    0    0    0    0  0.00000000000E+00  0.00000000000E+00  0.45593999997E+02  0.45594000000E+02  0.51100000000E-03 0.  1.
         11   -1    0    0    0    0 -0.00000000000E+00 -0.00000000000E+00 -0.45593999997E+02  0.45594000000E+02  0.51100000000E-03 0. -1.
    9900012    2    1    2    0    0 -0.19233112629E+02  0.33435754548E+02  0.12857072884E+02  0.50528848180E+02  0.29999964527E+02 0.  0.
         12    1    1    2    0    0  0.19233112629E+02 -0.33435754548E+02 -0.12857072884E+02  0.40659151820E+02  0.00000000000E+00 0. -1.
         11    1    3    3    0    0 -0.78735872000E+01 -0.33018510045E+01  0.12611982205E+01  0.86305397667E+01  0.51100000000E-03 0. -1.
        -11    1    3    3    0    0 -0.12961052700E+02  0.23961897896E+02  0.62095183251E+01  0.27941359236E+02  0.51100000000E-03 0.  1.
        -12    1    3    3    0    0  0.16015272712E+01  0.12775707656E+02  0.53863563388E+01  0.13956949177E+02  0.00000000000E+00 0.  1.
</event>
<event>
 7    1  0.2942034E-011  0.5052886E+02  0.7816164E-02  0.1300439E+00
        -11   -1    0    0    0    0  0.00000000000E+00  0.00000000000E+00  0.45593999997E+02  0.45594000000E+02  0.51100000000E-03 0.  1.
         11   -1    0    0    0    0 -0.00000000000E+00 -0.00000000000E+00 -0.45593999997E+02  0.45594000000E+02  0.51100000000E-03 0. -1.
    9900012    2    1    2    0    0  0.72924119602E+00 -0.26959461043E+02  0.30427311503E+02  0.50528860588E+02  0.30000002243E+02 0.  0.
         12    1    1    2    0    0 -0.72924119602E+00  0.26959461043E+02 -0.30427311503E+02  0.40659139412E+02  0.00000000000E+00 0. -1.
         11    1    3    3    0    0 -0.12020781395E+02 -0.52357691888E+01  0.76735071528E+01  0.15191944465E+02  0.51100000000E-03 0. -1.
        -11    1    3    3    0    0  0.13621426570E+01 -0.26754025942E+01  0.83657813694E+01  0.88881668436E+01  0.51100000000E-03 0.  1.
         12    1    3    3    0    0  0.11387879934E+02 -0.19048289260E+02  0.14388022981E+02  0.26448749279E+02  0.00000000000E+00 0. -1.
</event>
<event>
 7    1  0.2942034E-011  0.5052886E+02  0.7816164E-02  0.1300439E+00
        -11   -1    0    0    0    0  0.00000000000E+00  0.00000000000E+00  0.45593999997E+02  0.45594000000E+02  0.51100000000E-03 0.  1.
         11   -1    0    0    0    0 -0.00000000000E+00 -0.00000000000E+00 -0.45593999997E+02  0.45594000000E+02  0.51100000000E-03 0. -1.
    9900012    2    1    2    0    0  0.28271670735E+01 -0.95928624712E+01  0.39410017370E+02  0.50528863842E+02  0.30000012133E+02 0.  0.
         12    1    1    2    0    0 -0.28271670735E+01  0.95928624712E+01 -0.39410017370E+02  0.40659136158E+02  0.00000000000E+00 0. -1.
         11    1    3    3    0    0  0.53226386379E+01 -0.70015720236E-02 -0.13667155876E+01  0.54953109876E+01  0.51100000000E-03 0. -1.
        -11    1    3    3    0    0 -0.87333282072E+01 -0.70483885460E+01  0.32381376460E+02  0.34271042359E+02  0.51100000000E-03 0.  1.
        -12    1    3    3    0    0  0.62378566428E+01 -0.25374723532E+01  0.83953564970E+01  0.10762510495E+02  0.00000000000E+00 0.  1.
</event>
<event>
 7    1  0.2942034E-011  0.5052885E+02  0.7816164E-02  0.1300439E+00
        -11   -1    0    0    0    0  0.00000000000E+00  0.00000000000E+00  0.45593999997E+02  0.45594000000E+02  0.51100000000E-03 0. -1.
         11   -1    0    0    0    0 -0.00000000000E+00 -0.00000000000E+00 -0.45593999997E+02  0.45594000000E+02  0.51100000000E-03 0.  1.
    9900012    2    1    2    0    0  0.40462174079E+02 -0.27915503442E+01 -0.28611304788E+01  0.50528851556E+02  0.29999974791E+02 0.  0.
         12    1    1    2    0    0 -0.40462174079E+02  0.27915503442E+01  0.28611304788E+01  0.40659148444E+02  0.00000000000E+00 0. -1.
         11    1    3    3    0    0  0.52526193366E+01 -0.71644259802E+01  0.85504291982E+01  0.12329997942E+02  0.51100000000E-03 0.  1.
        -11    1    3    3    0    0  0.90913533262E+01  0.46703648148E+01 -0.18682632510E+01  0.10390159799E+02  0.51100000000E-03 0. -1.
         12    1    3    3    0    0  0.26118201417E+02 -0.29748917879E+00 -0.95432964260E+01  0.27808693815E+02  0.00000000000E+00 0. -1.
</event>
<event>
 7    1  0.2942034E-011  0.5052886E+02  0.7816164E-02  0.1300439E+00
        -11   -1    0    0    0    0  0.00000000000E+00  0.00000000000E+00  0.45593999997E+02  0.45594000000E+02  0.51100000000E-03 0.  1.
         11   -1    0    0    0    0 -0.00000000000E+00 -0.00000000000E+00 -0.45593999997E+02  0.45594000000E+02  0.51100000000E-03 0. -1.
    9900012    2    1    2    0    0  0.86613786274E+01  0.72330617184E+00  0.39719303704E+02  0.50528859106E+02  0.29999997738E+02 0.  0.
         12    1    1    2    0    0 -0.86613786274E+01 -0.72330617184E+00 -0.39719303704E+02  0.40659140894E+02  0.00000000000E+00 0. -1.
         11    1    3    3    0    0  0.13622549608E+02  0.44790377313E+01  0.35564726167E+02  0.38346908408E+02  0.51100000000E-03 0. -1.
        -11    1    3    3    0    0 -0.31910327560E+01 -0.38614911246E+01  0.71325972209E+01  0.87159478619E+01  0.51100000000E-03 0.  1.
         12    1    3    3    0    0 -0.17701382245E+01  0.10575956514E+00 -0.29780196844E+01  0.34660028361E+01  0.00000000000E+00 0. -1.
</event>
<event>
 7    1  0.2942034E-011  0.5052889E+02  0.7816164E-02  0.1300439E+00
        -11   -1    0    0    0    0  0.00000000000E+00  0.00000000000E+00  0.45593999997E+02  0.45594000000E+02  0.51100000000E-03 0.  1.
         11   -1    0    0    0    0 -0.00000000000E+00 -0.00000000000E+00 -0.45593999997E+02  0.45594000000E+02  0.51100000000E-03 0. -1.
    9900012    2    1    2    0    0 -0.12017796380E+02 -0.14023445279E+02  0.36222629475E+02  0.50528888679E+02  0.30000087630E+02 0.  0.
         12    1    1    2    0    0  0.12017796380E+02  0.14023445279E+02 -0.36222629475E+02  0.40659111321E+02  0.00000000000E+00 0. -1.
         11    1    3    3    0    0 -0.13010570652E+02 -0.12584115092E-01  0.56800193555E+01  0.14196398388E+02  0.51100000000E-03 0. -1.
        -11    1    3    3    0    0  0.46733776457E+01 -0.16906115303E+01  0.16768299728E+02  0.17489268195E+02  0.51100000000E-03 0.  1.
         12    1    3    3    0    0 -0.36806033742E+01 -0.12320249633E+02  0.13774310391E+02  0.18843222096E+02  0.00000000000E+00 0. -1.
</event>
<event>
 7    1  0.2942034E-011  0.5052884E+02  0.7816164E-02  0.1300439E+00
        -11   -1    0    0    0    0  0.00000000000E+00  0.00000000000E+00  0.45593999997E+02  0.45594000000E+02  0.51100000000E-03 0.  1.
         11   -1    0    0    0    0 -0.00000000000E+00 -0.00000000000E+00 -0.45593999997E+02  0.45594000000E+02  0.51100000000E-03 0. -1.
    9900012    2    1    2    0    0 -0.25032935339E+02  0.17940270860E+02  0.26545550954E+02  0.50528838109E+02  0.29999933917E+02 0.  0.
         12    1    1    2    0    0  0.25032935339E+02 -0.17940270860E+02 -0.26545550954E+02  0.40659161891E+02  0.00000000000E+00 0. -1.
         11    1    3    3    0    0  0.10879442548E+01 -0.19348260235E+01 -0.37740734166E+01  0.43784477681E+01  0.51100000000E-03 0. -1.
        -11    1    3    3    0    0 -0.20237669562E+01  0.19332863392E+01  0.86944066861E+01  0.91337799758E+01  0.51100000000E-03 0.  1.
         12    1    3    3    0    0 -0.24097112637E+02  0.17941810544E+02  0.21625217684E+02  0.37016610366E+02  0.00000000000E+00 0. -1.
</event>
<event>
 7    1  0.2942034E-011  0.5052886E+02  0.7816164E-02  0.1300439E+00
        -11   -1    0    0    0    0  0.00000000000E+00  0.00000000000E+00  0.45593999997E+02  0.45594000000E+02  0.51100000000E-03 0.  1.
         11   -1    0    0    0    0 -0.00000000000E+00 -0.00000000000E+00 -0.45593999997E+02  0.45594000000E+02  0.51100000000E-03 0. -1.
    9900012    2    1    2    0    0  0.32885927550E+02  0.11844734730E+02  0.20769782758E+02  0.50528857762E+02  0.29999993655E+02 0.  0.
         12    1    1    2    0    0 -0.32885927550E+02 -0.11844734730E+02 -0.20769782758E+02  0.40659142238E+02  0.00000000000E+00 0. -1.
         11    1    3    3    0    0  0.30926992672E+02  0.15038946585E+01  0.48860163461E+01  0.31346670172E+02  0.51100000000E-03 0. -1.
        -11    1    3    3    0    0  0.13841976808E+01  0.84576659318E+01  0.11210701072E+02  0.14111269788E+02  0.51100000000E-03 0.  1.
         12    1    3    3    0    0  0.57473719732E+00  0.18831741396E+01  0.46730653400E+01  0.50709178023E+01  0.00000000000E+00 0. -1.
</event>
<event>
 7    1  0.2942034E-011  0.5052877E+02  0.7816164E-02  0.1300439E+00
        -11   -1    0    0    0    0  0.00000000000E+00  0.00000000000E+00  0.45593999997E+02  0.45594000000E+02  0.51100000000E-03 0. -1.
         11   -1    0    0    0    0 -0.00000000000E+00 -0.00000000000E+00 -0.45593999997E+02  0.45594000000E+02  0.51100000000E-03 0.  1.
    9900012    2    1    2    0    0 -0.15624766482E+02  0.18691753065E+02 -0.32552387097E+02  0.50528771454E+02  0.29999731309E+02 0.  0.
         12    1    1    2    0    0  0.15624766482E+02 -0.18691753065E+02  0.32552387097E+02  0.40659228546E+02  0.00000000000E+00 0. -1.
         11    1    3    3    0    0 -0.14619837728E+02  0.57574794106E+01 -0.54627309231E+01  0.16635193228E+02  0.51100000000E-03 0. -1.
        -11    1    3    3    0    0  0.58116178479E+01  0.10886947260E+02 -0.12018196344E+02  0.17226072283E+02  0.51100000000E-03 0.  1.
         12    1    3    3    0    0 -0.68165466027E+01  0.20473263944E+01 -0.15071459830E+02  0.16667505943E+02  0.00000000000E+00 0. -1.
</event>
<event>
 7    1  0.2942034E-011  0.5052886E+02  0.7816164E-02  0.1300439E+00
        -11   -1    0    0    0    0  0.00000000000E+00  0.00000000000E+00  0.45593999997E+02  0.45594000000E+02  0.51100000000E-03 0. -1.
         11   -1    0    0    0    0 -0.00000000000E+00 -0.00000000000E+00 -0.45593999997E+02  0.45594000000E+02  0.51100000000E-03 0.  1.
    9900012    2    1    2    0    0  0.73981683799E+01  0.39895668194E+02 -0.26016230003E+01  0.50528859844E+02  0.29999999982E+02 0.  0.
         12    1    1    2    0    0 -0.73981683799E+01 -0.39895668194E+02  0.26016230003E+01  0.40659140156E+02  0.00000000000E+00 0. -1.
         11    1    3    3    0    0  0.19311239698E+01  0.16921057715E+02  0.31835940580E+01  0.17325896957E+02  0.51100000000E-03 0. -1.
        -11    1    3    3    0    0  0.70593441946E+01 -0.19218967651E+01 -0.36170145321E+01  0.81615453206E+01  0.51100000000E-03 0.  1.
        -12    1    3    3    0    0 -0.15922997845E+01  0.24896507244E+02 -0.21682025262E+01  0.25041417566E+02  0.00000000000E+00 0.  1.
</event>
<event>
 7    1  0.2942034E-011  0.5052892E+02  0.7816164E-02  0.1300439E+00
        -11   -1    0    0    0    0  0.00000000000E+00  0.00000000000E+00  0.45593999997E+02  0.45594000000E+02  0.51100000000E-03 0.  1.
         11   -1    0    0    0    0 -0.00000000000E+00 -0.00000000000E+00 -0.45593999997E+02  0.45594000000E+02  0.51100000000E-03 0. -1.
    9900012    2    1    2    0    0  0.61292674429E+00 -0.16300770262E+02  0.37243385154E+02  0.50528923177E+02  0.30000192489E+02 0.  0.
         12    1    1    2    0    0 -0.61292674429E+00  0.16300770262E+02 -0.37243385154E+02  0.40659076823E+02  0.00000000000E+00 0. -1.
         11    1    3    3    0    0 -0.23224386356E+01  0.72211057434E+01  0.72088401524E+01  0.10464485939E+02  0.51100000000E-03 0. -1.
        -11    1    3    3    0    0  0.68937733797E+01 -0.10724710413E+02  0.17995247176E+02  0.22053853315E+02  0.51100000000E-03 0.  1.
         12    1    3    3    0    0 -0.39584079999E+01 -0.12797165593E+02  0.12039297826E+02  0.18010583923E+02  0.00000000000E+00 0. -1.
</event>
<event>
 7    1  0.2942034E-011  0.5052886E+02  0.7816164E-02  0.1300439E+00
        -11   -1    0    0    0    0  0.00000000000E+00  0.00000000000E+00  0.45593999997E+02  0.45594000000E+02  0.51100000000E-03 0.  1.
         11   -1    0    0    0    0 -0.00000000000E+00 -0.00000000000E+00 -0.45593999997E+02  0.45594000000E+02  0.51100000000E-03 0. -1.
    9900012    2    1    2    0    0 -0.90973014496E+00  0.75197236558E+01  0.39947364324E+02  0.50528858724E+02  0.29999996579E+02 0.  0.
         12    1    1    2    0    0  0.90973014496E+00 -0.75197236558E+01 -0.39947364324E+02  0.40659141276E+02  0.00000000000E+00 0. -1.
         11    1    3    3    0    0 -0.94361335493E+01  0.14170628982E+02  0.16820402932E+02  0.23932682615E+02  0.51100000000E-03 0. -1.
        -11    1    3    3    0    0  0.87819391896E+00 -0.51451006000E+01  0.75622960908E+01  0.91886673228E+01  0.51100000000E-03 0.  1.
         12    1    3    3    0    0  0.76482094854E+01 -0.15058047258E+01  0.15564665302E+02  0.17407508787E+02  0.00000000000E+00 0. -1.
</event>
<event>
 7    1  0.2942034E-011  0.5052887E+02  0.7816164E-02  0.1300439E+00
        -11   -1    0    0    0    0  0.00000000000E+00  0.00000000000E+00  0.45593999997E+02  0.45594000000E+02  0.51100000000E-03 0.  1.
         11   -1    0    0    0    0 -0.00000000000E+00 -0.00000000000E+00 -0.45593999997E+02  0.45594000000E+02  0.51100000000E-03 0. -1.
    9900012    2    1    2    0    0 -0.22563905440E+02  0.33447763498E+02  0.50281508312E+01  0.50528868031E+02  0.30000024866E+02 0.  0.
         12    1    1    2    0    0  0.22563905440E+02 -0.33447763498E+02 -0.50281508312E+01  0.40659131969E+02  0.00000000000E+00 0. -1.
         11    1    3    3    0    0 -0.36875524911E+01  0.21272705319E+02  0.12712372478E+02  0.25054549472E+02  0.51100000000E-03 0. -1.
        -11    1    3    3    0    0 -0.40013540399E+01  0.23048903749E+01  0.21492295909E+01  0.50933821660E+01  0.51100000000E-03 0.  1.
         12    1    3    3    0    0 -0.14874998909E+02  0.98701678044E+01 -0.98334512372E+01  0.20380936393E+02  0.00000000000E+00 0. -1.
</event>
<event>
 7    1  0.2942034E-011  0.5052885E+02  0.7816164E-02  0.1300439E+00
        -11   -1    0    0    0    0  0.00000000000E+00  0.00000000000E+00  0.45593999997E+02  0.45594000000E+02  0.51100000000E-03 0.  1.
         11   -1    0    0    0    0 -0.00000000000E+00 -0.00000000000E+00 -0.45593999997E+02  0.45594000000E+02  0.51100000000E-03 0. -1.
    9900012    2    1    2    0    0  0.34938304840E+02  0.98268814108E+01  0.18327938619E+02  0.50528854935E+02  0.29999985062E+02 0.  0.
         12    1    1    2    0    0 -0.34938304840E+02 -0.98268814108E+01 -0.18327938619E+02  0.40659145065E+02  0.00000000000E+00 0. -1.
         11    1    3    3    0    0  0.12350290508E+02  0.18685346873E+00  0.13311352144E+02  0.18159203892E+02  0.51100000000E-03 0. -1.
        -11    1    3    3    0    0 -0.23637444299E-01  0.72788357001E+01 -0.35198266427E+01  0.80852450633E+01  0.51100000000E-03 0.  1.
        -12    1    3    3    0    0  0.22611651777E+02  0.23611922419E+01  0.85364131173E+01  0.24284405980E+02  0.00000000000E+00 0.  1.
</event>
<event>
 7    1  0.2942034E-011  0.5052887E+02  0.7816164E-02  0.1300439E+00
        -11   -1    0    0    0    0  0.00000000000E+00  0.00000000000E+00  0.45593999997E+02  0.45594000000E+02  0.51100000000E-03 0. -1.
         11   -1    0    0    0    0 -0.00000000000E+00 -0.00000000000E+00 -0.45593999997E+02  0.45594000000E+02  0.51100000000E-03 0.  1.
    9900012    2    1    2    0    0 -0.25320315758E+01 -0.36451352726E+02 -0.17834031548E+02  0.50528868422E+02  0.30000026054E+02 0.  0.
         12    1    1    2    0    0  0.25320315758E+01  0.36451352726E+02  0.17834031548E+02  0.40659131578E+02  0.00000000000E+00 0. -1.
         11    1    3    3    0    0 -0.66166951649E+01 -0.56775127602E+01 -0.10966599113E+02  0.14010035775E+02  0.51100000000E-03 0. -1.
        -11    1    3    3    0    0  0.30170329441E+01 -0.15708401280E+02  0.55866429596E+01  0.16943049855E+02  0.51100000000E-03 0.  1.
        -12    1    3    3    0    0  0.10676306450E+01 -0.15065438686E+02 -0.12454075395E+02  0.19575782792E+02  0.00000000000E+00 0.  1.
</event>
<event>
 7    1  0.2942034E-011  0.5052886E+02  0.7816164E-02  0.1300439E+00
        -11   -1    0    0    0    0  0.00000000000E+00  0.00000000000E+00  0.45593999997E+02  0.45594000000E+02  0.51100000000E-03 0.  1.
         11   -1    0    0    0    0 -0.00000000000E+00 -0.00000000000E+00 -0.45593999997E+02  0.45594000000E+02  0.51100000000E-03 0. -1.
    9900012    2    1    2    0    0  0.21334190787E+02  0.33684171773E+02  0.79620611116E+01  0.50528861523E+02  0.30000005085E+02 0.  0.
         12    1    1    2    0    0 -0.21334190787E+02 -0.33684171773E+02 -0.79620611116E+01  0.40659138477E+02  0.00000000000E+00 0. -1.
         11    1    3    3    0    0  0.16851377647E+02  0.50739120285E+01 -0.46648981259E+01  0.18206449040E+02  0.51100000000E-03 0. -1.
        -11    1    3    3    0    0  0.76507421743E+00  0.14970368511E+02  0.31927192515E+01  0.15326145256E+02  0.51100000000E-03 0.  1.
         12    1    3    3    0    0  0.37177389231E+01  0.13639891233E+02  0.94342399861E+01  0.16996267227E+02  0.00000000000E+00 0. -1.
</event>
<event>
 7    1  0.2942034E-011  0.5052886E+02  0.7816164E-02  0.1300439E+00
        -11   -1    0    0    0    0  0.00000000000E+00  0.00000000000E+00  0.45593999997E+02  0.45594000000E+02  0.51100000000E-03 0.  1.
         11   -1    0    0    0    0 -0.00000000000E+00 -0.00000000000E+00 -0.45593999997E+02  0.45594000000E+02  0.51100000000E-03 0. -1.
    9900012    2    1    2    0    0  0.63457741192E+01 -0.36265123034E+02  0.17255081107E+02  0.50528858078E+02  0.29999994613E+02 0.  0.
         12    1    1    2    0    0 -0.63457741192E+01  0.36265123034E+02 -0.17255081107E+02  0.40659141922E+02  0.00000000000E+00 0. -1.
         11    1    3    3    0    0 -0.71583994958E+01 -0.46541774039E+00  0.72530513628E+00  0.72100877121E+01  0.51100000000E-03 0. -1.
        -11    1    3    3    0    0  0.96522176180E+01 -0.23114404746E+02  0.16620348635E+02  0.30061220878E+02  0.51100000000E-03 0.  1.
         12    1    3    3    0    0  0.38519559970E+01 -0.12685300548E+02 -0.90572663982E-01  0.13257549487E+02  0.00000000000E+00 0. -1.
</event>
<event>
 7    1  0.2942034E-011  0.5052885E+02  0.7816164E-02  0.1300439E+00
        -11   -1    0    0    0    0  0.00000000000E+00  0.00000000000E+00  0.45593999997E+02  0.45594000000E+02  0.51100000000E-03 0.  1.
         11   -1    0    0    0    0 -0.00000000000E+00 -0.00000000000E+00 -0.45593999997E+02  0.45594000000E+02  0.51100000000E-03 0. -1.
    9900012    2    1    2    0    0  0.19257975552E+02 -0.31190180712E+02  0.17591740109E+02  0.50528852010E+02  0.29999976170E+02 0.  0.
         12    1    1    2    0    0 -0.19257975552E+02  0.31190180712E+02 -0.17591740109E+02  0.40659147990E+02  0.00000000000E+00 0. -1.
         11    1    3    3    0    0  0.45103188424E+00 -0.22562253357E+02  0.87347857979E+01  0.24198247654E+02  0.51100000000E-03 0. -1.
        -11    1    3    3    0    0  0.13286058924E+02 -0.89176609307E+01  0.11972561830E+02  0.19984650991E+02  0.51100000000E-03 0.  1.
         12    1    3    3    0    0  0.55208847437E+01  0.28973357603E+00 -0.31156075190E+01  0.63459533650E+01  0.00000000000E+00 0. -1.
</event>
<event>
 7    1  0.2942034E-011  0.5052886E+02  0.7816164E-02  0.1300439E+00
        -11   -1    0    0    0    0  0.00000000000E+00  0.00000000000E+00  0.45593999997E+02  0.45594000000E+02  0.51100000000E-03 0. -1.
         11   -1    0    0    0    0 -0.00000000000E+00 -0.00000000000E+00 -0.45593999997E+02  0.45594000000E+02  0.51100000000E-03 0.  1.
    9900012    2    1    2    0    0  0.96906115444E+01  0.37750739854E+02 -0.11581861971E+02  0.50528857875E+02  0.29999993996E+02 0.  0.
         12    1    1    2    0    0 -0.96906115444E+01 -0.37750739854E+02  0.11581861971E+02  0.40659142125E+02  0.00000000000E+00 0. -1.
         11    1    3    3    0    0  0.37201097405E+01  0.24421464300E+01 -0.52253258142E+00  0.44806624763E+01  0.51100000000E-03 0. -1.
        -11    1    3    3    0    0  0.76824719653E+01  0.38811904680E+02 -0.65781182212E+01  0.40108053555E+02  0.51100000000E-03 0.  1.
        -12    1    3    3    0    0 -0.17119701614E+01 -0.35033112555E+01 -0.44812111687E+01  0.59401418438E+01  0.00000000000E+00 0.  1.
</event>
<event>
 7    1  0.2942034E-011  0.5052885E+02  0.7816164E-02  0.1300439E+00
        -11   -1    0    0    0    0  0.00000000000E+00  0.00000000000E+00  0.45593999997E+02  0.45594000000E+02  0.51100000000E-03 0.  1.
         11   -1    0    0    0    0 -0.00000000000E+00 -0.00000000000E+00 -0.45593999997E+02  0.45594000000E+02  0.51100000000E-03 0. -1.
    9900012    2    1    2    0    0  0.24056900785E+02 -0.17730589693E+02  0.27569152733E+02  0.50528850124E+02  0.29999970436E+02 0.  0.
         12    1    1    2    0    0 -0.24056900785E+02  0.17730589693E+02 -0.27569152733E+02  0.40659149876E+02  0.00000000000E+00 0. -1.
         11    1    3    3    0    0  0.47026217576E+01 -0.60816015882E+01  0.56097383913E+00  0.77081269568E+01  0.51100000000E-03 0. -1.
        -11    1    3    3    0    0  0.36510936137E+01 -0.12326746756E+02  0.23392398423E+02  0.26692386076E+02  0.51100000000E-03 0.  1.
        -12    1    3    3    0    0  0.15703185414E+02  0.67775865097E+00  0.36157804706E+01  0.16128337091E+02  0.00000000000E+00 0.  1.
</event>
<event>
 7    1  0.2942034E-011  0.5052886E+02  0.7816164E-02  0.1300439E+00
        -11   -1    0    0    0    0  0.00000000000E+00  0.00000000000E+00  0.45593999997E+02  0.45594000000E+02  0.51100000000E-03 0. -1.
         11   -1    0    0    0    0 -0.00000000000E+00 -0.00000000000E+00 -0.45593999997E+02  0.45594000000E+02  0.51100000000E-03 0.  1.
    9900012    2    1    2    0    0 -0.32658873997E+02  0.23810005276E+02  0.44324895120E+01  0.50528863692E+02  0.30000011679E+02 0.  0.
         12    1    1    2    0    0  0.32658873997E+02 -0.23810005276E+02 -0.44324895120E+01  0.40659136308E+02  0.00000000000E+00 0. -1.
         11    1    3    3    0    0 -0.32119081123E+02  0.11263248847E+02  0.80953929310E+01  0.34986162032E+02  0.51100000000E-03 0. -1.
        -11    1    3    3    0    0 -0.43593590452E+01  0.52977598300E+01 -0.23023792846E+01  0.72367963308E+01  0.51100000000E-03 0.  1.
         12    1    3    3    0    0  0.38195661704E+01  0.72489965990E+01 -0.13605241343E+01  0.83059053295E+01  0.00000000000E+00 0. -1.
</event>
<event>
 7    1  0.2942034E-011  0.5052886E+02  0.7816164E-02  0.1300439E+00
        -11   -1    0    0    0    0  0.00000000000E+00  0.00000000000E+00  0.45593999997E+02  0.45594000000E+02  0.51100000000E-03 0.  1.
         11   -1    0    0    0    0 -0.00000000000E+00 -0.00000000000E+00 -0.45593999997E+02  0.45594000000E+02  0.51100000000E-03 0. -1.
    9900012    2    1    2    0    0 -0.34220745909E+02 -0.16687174258E+02  0.14270412712E+02  0.50528856942E+02  0.29999991160E+02 0.  0.
         12    1    1    2    0    0  0.34220745909E+02  0.16687174258E+02 -0.14270412712E+02  0.40659143058E+02  0.00000000000E+00 0. -1.
         11    1    3    3    0    0 -0.27813389145E+02 -0.23605464717E+01  0.46020838014E+01  0.28290209807E+02  0.51100000000E-03 0. -1.
        -11    1    3    3    0    0  0.35422338162E+01 -0.20279543420E+01  0.10097434169E+01  0.42047117916E+01  0.51100000000E-03 0.  1.
         12    1    3    3    0    0 -0.99495905801E+01 -0.12298673444E+02  0.86585854936E+01  0.18033935343E+02  0.00000000000E+00 0. -1.
</event>
<event>
 7    1  0.2942034E-011  0.5052885E+02  0.7816164E-02  0.1300439E+00
        -11   -1    0    0    0    0  0.00000000000E+00  0.00000000000E+00  0.45593999997E+02  0.45594000000E+02  0.51100000000E-03 0.  1.
         11   -1    0    0    0    0 -0.00000000000E+00 -0.00000000000E+00 -0.45593999997E+02  0.45594000000E+02  0.51100000000E-03 0. -1.
    9900012    2    1    2    0    0  0.16771773416E+02 -0.17222013705E+02  0.32791411440E+02  0.50528846003E+02  0.29999957910E+02 0.  0.
         12    1    1    2    0    0 -0.16771773416E+02  0.17222013705E+02 -0.32791411440E+02  0.40659153997E+02  0.00000000000E+00 0. -1.
         11    1    3    3    0    0  0.30066870909E+01  0.22496659557E+01 -0.25216029357E+01  0.45232339981E+01  0.51100000000E-03 0. -1.
        -11    1    3    3    0    0  0.50461690310E+01 -0.10984814496E+02  0.30697962339E+02  0.32992345528E+02  0.51100000000E-03 0.  1.
         12    1    3    3    0    0  0.87189172941E+01 -0.84868651643E+01  0.46150520365E+01  0.13013266477E+02  0.00000000000E+00 0. -1.
</event>
<event>
 7    1  0.2942034E-011  0.5052885E+02  0.7816164E-02  0.1300439E+00
        -11   -1    0    0    0    0  0.00000000000E+00  0.00000000000E+00  0.45593999997E+02  0.45594000000E+02  0.51100000000E-03 0. -1.
         11   -1    0    0    0    0 -0.00000000000E+00 -0.00000000000E+00 -0.45593999997E+02  0.45594000000E+02  0.51100000000E-03 0.  1.
    9900012    2    1    2    0    0 -0.17946162829E+02  0.95891751532E+01 -0.35201550493E+02  0.50528853458E+02  0.29999980572E+02 0.  0.
         12    1    1    2    0    0  0.17946162829E+02 -0.95891751532E+01  0.35201550493E+02  0.40659146542E+02  0.00000000000E+00 0. -1.
         11    1    3    3    0    0 -0.40103890824E+01  0.70074355758E+01 -0.31077063915E+02  0.32108741423E+02  0.51100000000E-03 0. -1.
        -11    1    3    3    0    0 -0.11887040660E+02  0.63395927929E+00  0.16239582662E+01  0.12014194968E+02  0.51100000000E-03 0.  1.
        -12    1    3    3    0    0 -0.20487330865E+01  0.19477802982E+01 -0.57484448443E+01  0.64059170676E+01  0.00000000000E+00 0.  1.
</event>
<event>
 7    1  0.2942034E-011  0.5052887E+02  0.7816164E-02  0.1300439E+00
        -11   -1    0    0    0    0  0.00000000000E+00  0.00000000000E+00  0.45593999997E+02  0.45594000000E+02  0.51100000000E-03 0. -1.
         11   -1    0    0    0    0 -0.00000000000E+00 -0.00000000000E+00 -0.45593999997E+02  0.45594000000E+02  0.51100000000E-03 0.  1.
    9900012    2    1    2    0    0  0.26193288002E+02 -0.10054822942E+02 -0.29427493208E+02  0.50528866250E+02  0.30000019454E+02 0.  0.
         12    1    1    2    0    0 -0.26193288002E+02  0.10054822942E+02  0.29427493208E+02  0.40659133750E+02  0.00000000000E+00 0. -1.
         11    1    3    3    0    0 -0.42054689122E+01 -0.29888503957E+01 -0.36287361384E+01  0.63076875067E+01  0.51100000000E-03 0. -1.
        -11    1    3    3    0    0  0.29235179121E+02 -0.63893183110E+00 -0.22545531924E+02  0.36924313699E+02  0.51100000000E-03 0.  1.
        -12    1    3    3    0    0  0.11635777939E+01 -0.64270407152E+01 -0.32532251452E+01  0.72968650448E+01  0.00000000000E+00 0.  1.
</event>
<event>
 7    1  0.2942034E-011  0.5052886E+02  0.7816164E-02  0.1300439E+00
        -11   -1    0    0    0    0  0.00000000000E+00  0.00000000000E+00  0.45593999997E+02  0.45594000000E+02  0.51100000000E-03 0.  1.
         11   -1    0    0    0    0 -0.00000000000E+00 -0.00000000000E+00 -0.45593999997E+02  0.45594000000E+02  0.51100000000E-03 0. -1.
    9900012    2    1    2    0    0 -0.13353647180E+02 -0.14764048456E+02  0.35452344780E+02  0.50528858713E+02  0.29999996543E+02 0.  0.
         12    1    1    2    0    0  0.13353647180E+02  0.14764048456E+02 -0.35452344780E+02  0.40659141287E+02  0.00000000000E+00 0. -1.
         11    1    3    3    0    0 -0.60907800434E+01  0.27801012559E+01 -0.84506966819E+00  0.67483855503E+01  0.51100000000E-03 0. -1.
        -11    1    3    3    0    0 -0.36526973032E+01 -0.54593006869E+01  0.27816901939E+02  0.28581920777E+02  0.51100000000E-03 0.  1.
        -12    1    3    3    0    0 -0.36101698337E+01 -0.12084849025E+02  0.84805125094E+01  0.15198552385E+02  0.00000000000E+00 0.  1.
</event>
<event>
 7    1  0.2942034E-011  0.5052886E+02  0.7816164E-02  0.1300439E+00
        -11   -1    0    0    0    0  0.00000000000E+00  0.00000000000E+00  0.45593999997E+02  0.45594000000E+02  0.51100000000E-03 0.  1.
         11   -1    0    0    0    0 -0.00000000000E+00 -0.00000000000E+00 -0.45593999997E+02  0.45594000000E+02  0.51100000000E-03 0. -1.
    9900012    2    1    2    0    0  0.12590483135E+02 -0.26615966925E+02  0.28039890156E+02  0.50528863255E+02  0.30000010349E+02 0.  0.
         12    1    1    2    0    0 -0.12590483135E+02  0.26615966925E+02 -0.28039890156E+02  0.40659136745E+02  0.00000000000E+00 0. -1.
         11    1    3    3    0    0  0.22918839628E+01 -0.86053504915E+01 -0.35897364228E+01  0.96016142927E+01  0.51100000000E-03 0. -1.
        -11    1    3    3    0    0  0.33743485018E+01 -0.14701009025E+02  0.29219932747E+02  0.32883283963E+02  0.51100000000E-03 0.  1.
        -12    1    3    3    0    0  0.69242506702E+01 -0.33096074081E+01  0.24096938316E+01  0.80439649988E+01  0.00000000000E+00 0.  1.
</event>
<event>
 7    1  0.2942034E-011  0.5052886E+02  0.7816164E-02  0.1300439E+00
        -11   -1    0    0    0    0  0.00000000000E+00  0.00000000000E+00  0.45593999997E+02  0.45594000000E+02  0.51100000000E-03 0. -1.
         11   -1    0    0    0    0 -0.00000000000E+00 -0.00000000000E+00 -0.45593999997E+02  0.45594000000E+02  0.51100000000E-03 0.  1.
    9900012    2    1    2    0    0 -0.10398800700E+02  0.12462956934E+02 -0.37278755187E+02  0.50528856627E+02  0.29999990204E+02 0.  0.
         12    1    1    2    0    0  0.10398800700E+02 -0.12462956934E+02  0.37278755187E+02  0.40659143373E+02  0.00000000000E+00 0. -1.
         11    1    3    3    0    0 -0.43541121959E+01  0.49017482242E+00 -0.21955838880E+01  0.49009339152E+01  0.51100000000E-03 0. -1.
        -11    1    3    3    0    0 -0.20114914544E+01  0.18424640006E+02 -0.14040439052E+02  0.23251825439E+02  0.51100000000E-03 0.  1.
        -12    1    3    3    0    0 -0.40331970497E+01 -0.64518578949E+01 -0.21042732247E+02  0.22376097273E+02  0.00000000000E+00 0.  1.
</event>
<event>
 7    1  0.2942034E-011  0.5052878E+02  0.7816164E-02  0.1300439E+00
        -11   -1    0    0    0    0  0.00000000000E+00  0.00000000000E+00  0.45593999997E+02  0.45594000000E+02  0.51100000000E-03 0.  1.
         11   -1    0    0    0    0 -0.00000000000E+00 -0.00000000000E+00 -0.45593999997E+02  0.45594000000E+02  0.51100000000E-03 0. -1.
    9900012    2    1    2    0    0  0.77357520464E+01 -0.38902099655E+02  0.89418814609E+01  0.50528776430E+02  0.29999746434E+02 0.  0.
         12    1    1    2    0    0 -0.77357520464E+01  0.38902099655E+02 -0.89418814609E+01  0.40659223570E+02  0.00000000000E+00 0. -1.
         11    1    3    3    0    0  0.48712586282E+01 -0.97154625486E+01 -0.54445774518E+01  0.12155772170E+02  0.51100000000E-03 0. -1.
        -11    1    3    3    0    0 -0.75068861219E+01 -0.44037553572E+01  0.38070710953E+01  0.94994837270E+01  0.51100000000E-03 0.  1.
        -12    1    3    3    0    0  0.10371379540E+02 -0.24782881749E+02  0.10579387817E+02  0.28873520533E+02  0.00000000000E+00 0.  1.
</event>
<event>
 7    1  0.2942034E-011  0.5052886E+02  0.7816164E-02  0.1300439E+00
        -11   -1    0    0    0    0  0.00000000000E+00  0.00000000000E+00  0.45593999997E+02  0.45594000000E+02  0.51100000000E-03 0. -1.
         11   -1    0    0    0    0 -0.00000000000E+00 -0.00000000000E+00 -0.45593999997E+02  0.45594000000E+02  0.51100000000E-03 0.  1.
    9900012    2    1    2    0    0 -0.70346797904E+01  0.20657922356E+02 -0.34306398587E+02  0.50528862530E+02  0.30000008146E+02 0.  0.
         12    1    1    2    0    0  0.70346797904E+01 -0.20657922356E+02  0.34306398587E+02  0.40659137470E+02  0.00000000000E+00 0. -1.
         11    1    3    3    0    0  0.92541371896E+01  0.36995423398E+01 -0.11923752757E+02  0.15540320097E+02  0.51100000000E-03 0. -1.
        -11    1    3    3    0    0 -0.14322661540E+02  0.19171045630E+02 -0.19778054459E+02  0.31045757562E+02  0.51100000000E-03 0.  1.
         12    1    3    3    0    0 -0.19661554396E+01 -0.22126656137E+01 -0.26045913706E+01  0.39427848709E+01  0.00000000000E+00 0. -1.
</event>
<event>
 7    1  0.2942034E-011  0.5052886E+02  0.7816164E-02  0.1300439E+00
        -11   -1    0    0    0    0  0.00000000000E+00  0.00000000000E+00  0.45593999997E+02  0.45594000000E+02  0.51100000000E-03 0.  1.
         11   -1    0    0    0    0 -0.00000000000E+00 -0.00000000000E+00 -0.45593999997E+02  0.45594000000E+02  0.51100000000E-03 0. -1.
    9900012    2    1    2    0    0  0.15588735975E+02  0.35396673932E+02 -0.12539239358E+02  0.50528859104E+02  0.29999997731E+02 0.  0.
         12    1    1    2    0    0 -0.15588735975E+02 -0.35396673932E+02  0.12539239358E+02  0.40659140896E+02  0.00000000000E+00 0. -1.
         11    1    3    3    0    0  0.53401520396E+01  0.75515708428E+01  0.74491126904E+01  0.11875720026E+02  0.51100000000E-03 0. -1.
        -11    1    3    3    0    0  0.12759183476E+02  0.22350315195E+02 -0.11387498811E+02  0.28142645252E+02  0.51100000000E-03 0.  1.
         12    1    3    3    0    0 -0.25105995413E+01  0.54947878941E+01 -0.86008532371E+01  0.10510493826E+02  0.00000000000E+00 0. -1.
</event>
<event>
 7    1  0.2942034E-011  0.5052886E+02  0.7816164E-02  0.1300439E+00
        -11   -1    0    0    0    0  0.00000000000E+00  0.00000000000E+00  0.45593999997E+02  0.45594000000E+02  0.51100000000E-03 0.  1.
         11   -1    0    0    0    0 -0.00000000000E+00 -0.00000000000E+00 -0.45593999997E+02  0.45594000000E+02  0.51100000000E-03 0. -1.
    9900012    2    1    2    0    0  0.38388722805E+02 -0.83433345868E+01 -0.10481437544E+02  0.50528858302E+02  0.29999995294E+02 0.  0.
         12    1    1    2    0    0 -0.38388722805E+02  0.83433345868E+01  0.10481437544E+02  0.40659141698E+02  0.00000000000E+00 0. -1.
         11    1    3    3    0    0  0.16966666404E+02 -0.15481155716E+02 -0.54075927083E+00  0.22974472181E+02  0.51100000000E-03 0. -1.
        -11    1    3    3    0    0  0.21179777503E+02  0.42704905102E+01 -0.55545508589E+01  0.22308588027E+02  0.51100000000E-03 0.  1.
         12    1    3    3    0    0  0.24227889867E+00  0.28673306189E+01 -0.43861274140E+01  0.52457980932E+01  0.00000000000E+00 0. -1.
</event>
<event>
 7    1  0.2942034E-011  0.5052887E+02  0.7816164E-02  0.1300439E+00
        -11   -1    0    0    0    0  0.00000000000E+00  0.00000000000E+00  0.45593999997E+02  0.45594000000E+02  0.51100000000E-03 0.  1.
         11   -1    0    0    0    0 -0.00000000000E+00 -0.00000000000E+00 -0.45593999997E+02  0.45594000000E+02  0.51100000000E-03 0. -1.
    9900012    2    1    2    0    0  0.34704405988E+02 -0.18110724703E+02  0.10989570118E+02  0.50528870698E+02  0.30000032973E+02 0.  0.
         12    1    1    2    0    0 -0.34704405988E+02  0.18110724703E+02 -0.10989570118E+02  0.40659129302E+02  0.00000000000E+00 0. -1.
         11    1    3    3    0    0  0.12114240344E+01  0.13701677164E+01  0.25538299444E+01  0.31411710250E+01  0.51100000000E-03 0. -1.
        -11    1    3    3    0    0  0.14386125173E+02 -0.12778638317E+02 -0.84566494495E+01  0.21018304282E+02  0.51100000000E-03 0.  1.
        -12    1    3    3    0    0  0.19106856781E+02 -0.67022541018E+01  0.16892389623E+02  0.26369395390E+02  0.00000000000E+00 0.  1.
</event>
<event>
 7    1  0.2942034E-011  0.5052884E+02  0.7816164E-02  0.1300439E+00
        -11   -1    0    0    0    0  0.00000000000E+00  0.00000000000E+00  0.45593999997E+02  0.45594000000E+02  0.51100000000E-03 0.  1.
         11   -1    0    0    0    0 -0.00000000000E+00 -0.00000000000E+00 -0.45593999997E+02  0.45594000000E+02  0.51100000000E-03 0. -1.
    9900012    2    1    2    0    0 -0.27121056921E+02  0.11924243394E+02  0.27846509820E+02  0.50528838447E+02  0.29999934944E+02 0.  0.
         12    1    1    2    0    0  0.27121056921E+02 -0.11924243394E+02 -0.27846509820E+02  0.40659161553E+02  0.00000000000E+00 0. -1.
         11    1    3    3    0    0 -0.10563050802E+02 -0.72579147129E+01  0.98068183083E+01  0.16137814406E+02  0.51100000000E-03 0. -1.
        -11    1    3    3    0    0 -0.13013581499E+02  0.74131882292E+01  0.35528084227E+01  0.15392566748E+02  0.51100000000E-03 0.  1.
         12    1    3    3    0    0 -0.35444246208E+01  0.11768969878E+02  0.14486883089E+02  0.18998457293E+02  0.00000000000E+00 0. -1.
</event>
<event>
 7    1  0.2942034E-011  0.5052887E+02  0.7816164E-02  0.1300439E+00
        -11   -1    0    0    0    0  0.00000000000E+00  0.00000000000E+00  0.45593999997E+02  0.45594000000E+02  0.51100000000E-03 0.  1.
         11   -1    0    0    0    0 -0.00000000000E+00 -0.00000000000E+00 -0.45593999997E+02  0.45594000000E+02  0.51100000000E-03 0. -1.
    9900012    2    1    2    0    0  0.32283232135E+02  0.25491766647E+01  0.24585765538E+02  0.50528865161E+02  0.30000016144E+02 0.  0.
         12    1    1    2    0    0 -0.32283232135E+02 -0.25491766647E+01 -0.24585765538E+02  0.40659134839E+02  0.00000000000E+00 0. -1.
         11    1    3    3    0    0  0.60469833149E+01 -0.37848109350E+01  0.66883063175E+01  0.97787648853E+01  0.51100000000E-03 0. -1.
        -11    1    3    3    0    0 -0.13679465666E+01  0.87827922572E+01  0.39794990491E+01  0.97388464710E+01  0.51100000000E-03 0.  1.
        -12    1    3    3    0    0  0.27604195387E+02 -0.24488046574E+01  0.13917960171E+02  0.31011253805E+02  0.00000000000E+00 0.  1.
</event>
<event>
 7    1  0.2942034E-011  0.5052885E+02  0.7816164E-02  0.1300439E+00
        -11   -1    0    0    0    0  0.00000000000E+00  0.00000000000E+00  0.45593999997E+02  0.45594000000E+02  0.51100000000E-03 0. -1.
         11   -1    0    0    0    0 -0.00000000000E+00 -0.00000000000E+00 -0.45593999997E+02  0.45594000000E+02  0.51100000000E-03 0.  1.
    9900012    2    1    2    0    0  0.27162214918E+02 -0.29238569069E+01 -0.30113644539E+02  0.50528850404E+02  0.29999971288E+02 0.  0.
         12    1    1    2    0    0 -0.27162214918E+02  0.29238569069E+01  0.30113644539E+02  0.40659149596E+02  0.00000000000E+00 0. -1.
         11    1    3    3    0    0  0.26229114597E+02 -0.56020900805E+01 -0.19732528676E+02  0.33297485701E+02  0.51100000000E-03 0. -1.
        -11    1    3    3    0    0 -0.24435516694E+01  0.54485136960E+01 -0.27123813550E-02  0.59713695141E+01  0.51100000000E-03 0.  1.
        -12    1    3    3    0    0  0.33766519907E+01 -0.27702805223E+01 -0.10378403481E+02  0.11259995189E+02  0.00000000000E+00 0.  1.
</event>
<event>
 7    1  0.2942034E-011  0.5052886E+02  0.7816164E-02  0.1300439E+00
        -11   -1    0    0    0    0  0.00000000000E+00  0.00000000000E+00  0.45593999997E+02  0.45594000000E+02  0.51100000000E-03 0.  1.
         11   -1    0    0    0    0 -0.00000000000E+00 -0.00000000000E+00 -0.45593999997E+02  0.45594000000E+02  0.51100000000E-03 0. -1.
    9900012    2    1    2    0    0  0.34062646803E+02 -0.11302889754E+00  0.22201094967E+02  0.50528864489E+02  0.30000014101E+02 0.  0.
         12    1    1    2    0    0 -0.34062646803E+02  0.11302889754E+00 -0.22201094967E+02  0.40659135511E+02  0.00000000000E+00 0. -1.
         11    1    3    3    0    0  0.61716718851E+01  0.11601060560E+02  0.90131768810E+01  0.15934600645E+02  0.51100000000E-03 0. -1.
        -11    1    3    3    0    0  0.24039420307E+02 -0.10372314501E+02  0.14952245080E+02  0.30150427360E+02  0.51100000000E-03 0.  1.
        -12    1    3    3    0    0  0.38515546107E+01 -0.13417749557E+01 -0.17643269939E+01  0.44438364835E+01  0.00000000000E+00 0.  1.
</event>
<event>
 7    1  0.2942034E-011  0.5052886E+02  0.7816164E-02  0.1300439E+00
        -11   -1    0    0    0    0  0.00000000000E+00  0.00000000000E+00  0.45593999997E+02  0.45594000000E+02  0.51100000000E-03 0.  1.
         11   -1    0    0    0    0 -0.00000000000E+00 -0.00000000000E+00 -0.45593999997E+02  0.45594000000E+02  0.51100000000E-03 0. -1.
    9900012    2    1    2    0    0 -0.27475855501E+02 -0.92807915912E+01  0.28497545421E+02  0.50528858062E+02  0.29999994567E+02 0.  0.
         12    1    1    2    0    0  0.27475855501E+02  0.92807915912E+01 -0.28497545421E+02  0.40659141938E+02  0.00000000000E+00 0. -1.
         11    1    3    3    0    0  0.60300210276E+00 -0.10607844655E+02  0.11746508976E+01  0.10689704615E+02  0.51100000000E-03 0. -1.
        -11    1    3    3    0    0 -0.21101319649E+02  0.33136811346E+00  0.24258622877E+02  0.32153635563E+02  0.51100000000E-03 0.  1.
         12    1    3    3    0    0 -0.69775379545E+01  0.99568495059E+00  0.30642716465E+01  0.76855178844E+01  0.00000000000E+00 0. -1.
</event>
<event>
 7    1  0.2942034E-011  0.5052886E+02  0.7816164E-02  0.1300439E+00
        -11   -1    0    0    0    0  0.00000000000E+00  0.00000000000E+00  0.45593999997E+02  0.45594000000E+02  0.51100000000E-03 0.  1.
         11   -1    0    0    0    0 -0.00000000000E+00 -0.00000000000E+00 -0.45593999997E+02  0.45594000000E+02  0.51100000000E-03 0. -1.
    9900012    2    1    2    0    0  0.60664021009E+01 -0.12204756884E+02  0.38306769316E+02  0.50528857111E+02  0.29999991674E+02 0.  0.
         12    1    1    2    0    0 -0.60664021009E+01  0.12204756884E+02 -0.38306769316E+02  0.40659142889E+02  0.00000000000E+00 0. -1.
         11    1    3    3    0    0 -0.81781735013E+00  0.38205923483E+01  0.26646406529E+01  0.47292770251E+01  0.51100000000E-03 0. -1.
        -11    1    3    3    0    0  0.84529877916E+01 -0.13457683352E+02  0.38499156081E+02  0.41650297274E+02  0.51100000000E-03 0.  1.
        -12    1    3    3    0    0 -0.15687683405E+01 -0.25676658808E+01 -0.28570274182E+01  0.41492828115E+01  0.00000000000E+00 0.  1.
</event>
<event>
 7    1  0.2942034E-011  0.5052887E+02  0.7816164E-02  0.1300439E+00
        -11   -1    0    0    0    0  0.00000000000E+00  0.00000000000E+00  0.45593999997E+02  0.45594000000E+02  0.51100000000E-03 0. -1.
         11   -1    0    0    0    0 -0.00000000000E+00 -0.00000000000E+00 -0.45593999997E+02  0.45594000000E+02  0.51100000000E-03 0.  1.
    9900012    2    1    2    0    0  0.62839705926E+00 -0.34431285846E+02 -0.21616114172E+02  0.50528871630E+02  0.30000035808E+02 0.  0.
         12    1    1    2    0    0 -0.62839705926E+00  0.34431285846E+02  0.21616114172E+02  0.40659128370E+02  0.00000000000E+00 0. -1.
         11    1    3    3    0    0  0.19438558656E+01  0.41259223963E-02 -0.78178099248E+01  0.80558515956E+01  0.51100000000E-03 0. -1.
        -11    1    3    3    0    0 -0.57907526903E+01 -0.29693676180E+02 -0.37359072171E+01  0.30482851323E+02  0.51100000000E-03 0.  1.
        -12    1    3    3    0    0  0.44752938839E+01 -0.47417355889E+01 -0.10062397030E+02  0.11990168712E+02  0.00000000000E+00 0.  1.
</event>
<event>
 7    1  0.2942034E-011  0.5052885E+02  0.7816164E-02  0.1300439E+00
        -11   -1    0    0    0    0  0.00000000000E+00  0.00000000000E+00  0.45593999997E+02  0.45594000000E+02  0.51100000000E-03 0.  1.
         11   -1    0    0    0    0 -0.00000000000E+00 -0.00000000000E+00 -0.45593999997E+02  0.45594000000E+02  0.51100000000E-03 0. -1.
    9900012    2    1    2    0    0  0.60266524700E+01 -0.39248318362E+02 -0.87415905189E+01  0.50528850488E+02  0.29999971542E+02 0.  0.
         12    1    1    2    0    0 -0.60266524700E+01  0.39248318362E+02  0.87415905189E+01  0.40659149512E+02  0.00000000000E+00 0. -1.
         11    1    3    3    0    0  0.11721359048E+02 -0.54518989005E+01 -0.33283541007E+01  0.13348835186E+02  0.51100000000E-03 0. -1.
        -11    1    3    3    0    0 -0.45307203913E+01 -0.34759722507E+02 -0.43283676552E+01  0.35319973143E+02  0.51100000000E-03 0.  1.
         12    1    3    3    0    0 -0.11639861865E+01  0.96330304468E+00 -0.10848687630E+01  0.18600421584E+01  0.00000000000E+00 0. -1.
</event>
<event>
 7    1  0.2942034E-011  0.5052886E+02  0.7816164E-02  0.1300439E+00
        -11   -1    0    0    0    0  0.00000000000E+00  0.00000000000E+00  0.45593999997E+02  0.45594000000E+02  0.51100000000E-03 0.  1.
         11   -1    0    0    0    0 -0.00000000000E+00 -0.00000000000E+00 -0.45593999997E+02  0.45594000000E+02  0.51100000000E-03 0. -1.
    9900012    2    1    2    0    0  0.21056972324E+02  0.33711367142E+02  0.85623330383E+01  0.50528857054E+02  0.29999991502E+02 0.  0.
         12    1    1    2    0    0 -0.21056972324E+02 -0.33711367142E+02 -0.85623330383E+01  0.40659142946E+02  0.00000000000E+00 0. -1.
         11    1    3    3    0    0 -0.57574031652E+01  0.33349668932E+01 -0.26964493101E+01  0.71791736661E+01  0.51100000000E-03 0. -1.
        -11    1    3    3    0    0  0.61611450291E+01  0.14638096671E+02  0.48158651678E+01  0.16595967577E+02  0.51100000000E-03 0.  1.
         12    1    3    3    0    0  0.20653230460E+02  0.15738303577E+02  0.64429171806E+01  0.26753715812E+02  0.00000000000E+00 0. -1.
</event>
<event>
 7    1  0.2942034E-011  0.5052886E+02  0.7816164E-02  0.1300439E+00
        -11   -1    0    0    0    0  0.00000000000E+00  0.00000000000E+00  0.45593999997E+02  0.45594000000E+02  0.51100000000E-03 0.  1.
         11   -1    0    0    0    0 -0.00000000000E+00 -0.00000000000E+00 -0.45593999997E+02  0.45594000000E+02  0.51100000000E-03 0. -1.
    9900012    2    1    2    0    0  0.36126303404E+02 -0.49805728414E+01 -0.17979137724E+02  0.50528864535E+02  0.30000014242E+02 0.  0.
         12    1    1    2    0    0 -0.36126303404E+02  0.49805728414E+01  0.17979137724E+02  0.40659135465E+02  0.00000000000E+00 0. -1.
         11    1    3    3    0    0 -0.25559570845E+01 -0.29897582823E+01 -0.41596727196E+01  0.57248972567E+01  0.51100000000E-03 0. -1.
        -11    1    3    3    0    0  0.27204419326E+02  0.59750609638E+01 -0.50455789691E+01  0.28306176919E+02  0.51100000000E-03 0.  1.
        -12    1    3    3    0    0  0.11477841163E+02 -0.79658755229E+01 -0.87738860353E+01  0.16497790360E+02  0.00000000000E+00 0.  1.
</event>
<event>
 7    1  0.2942034E-011  0.5052899E+02  0.7816164E-02  0.1300438E+00
        -11   -1    0    0    0    0  0.00000000000E+00  0.00000000000E+00  0.45593999997E+02  0.45594000000E+02  0.51100000000E-03 0.  1.
         11   -1    0    0    0    0 -0.00000000000E+00 -0.00000000000E+00 -0.45593999997E+02  0.45594000000E+02  0.51100000000E-03 0. -1.
    9900012    2    1    2    0    0  0.19120231355E+02  0.21467269876E+02  0.28752880322E+02  0.50528990546E+02  0.30000397262E+02 0.  0.
         12    1    1    2    0    0 -0.19120231355E+02 -0.21467269876E+02 -0.28752880322E+02  0.40659009454E+02  0.00000000000E+00 0. -1.
         11    1    3    3    0    0  0.47099891702E+01  0.30055384577E+01 -0.10597836807E+01  0.56868621502E+01  0.51100000000E-03 0. -1.
        -11    1    3    3    0    0  0.79204387282E+01  0.31550320136E+00  0.23120282614E+02  0.24441365762E+02  0.51100000000E-03 0.  1.
        -12    1    3    3    0    0  0.64898034567E+01  0.18146228216E+02  0.66923813884E+01  0.20400762634E+02  0.00000000000E+00 0.  1.
</event>
<event>
 7    1  0.2942034E-011  0.5052887E+02  0.7816164E-02  0.1300439E+00
        -11   -1    0    0    0    0  0.00000000000E+00  0.00000000000E+00  0.45593999997E+02  0.45594000000E+02  0.51100000000E-03 0. -1.
         11   -1    0    0    0    0 -0.00000000000E+00 -0.00000000000E+00 -0.45593999997E+02  0.45594000000E+02  0.51100000000E-03 0.  1.
    9900012    2    1    2    0    0  0.10305745446E+02  0.38489659126E+02 -0.80933572037E+01  0.50528872124E+02  0.30000037307E+02 0.  0.
         12    1    1    2    0    0 -0.10305745446E+02 -0.38489659126E+02  0.80933572037E+01  0.40659127876E+02  0.00000000000E+00 0. -1.
         11    1    3    3    0    0 -0.53018839212E+01  0.24224434129E+01  0.85069222217E+00  0.58908303931E+01  0.51100000000E-03 0. -1.
        -11    1    3    3    0    0  0.12371399844E+02  0.37339998773E+02 -0.54560380659E+01  0.39712660376E+02  0.51100000000E-03 0.  1.
        -12    1    3    3    0    0  0.32362295227E+01 -0.12727830602E+01 -0.34880113601E+01  0.49253813547E+01  0.00000000000E+00 0.  1.
</event>
<event>
 7    1  0.2942034E-011  0.5052882E+02  0.7816164E-02  0.1300439E+00
        -11   -1    0    0    0    0  0.00000000000E+00  0.00000000000E+00  0.45593999997E+02  0.45594000000E+02  0.51100000000E-03 0.  1.
         11   -1    0    0    0    0 -0.00000000000E+00 -0.00000000000E+00 -0.45593999997E+02  0.45594000000E+02  0.51100000000E-03 0. -1.
    9900012    2    1    2    0    0 -0.39850824267E+02  0.20828253950E+00  0.80645678464E+01  0.50528821074E+02  0.29999882137E+02 0.  0.
         12    1    1    2    0    0  0.39850824267E+02 -0.20828253950E+00 -0.80645678464E+01  0.40659178926E+02  0.00000000000E+00 0. -1.
         11    1    3    3    0    0 -0.28419312283E+01 -0.13047990291E+00 -0.54238546247E+01  0.61246875318E+01  0.51100000000E-03 0. -1.
        -11    1    3    3    0    0 -0.24688724342E+02 -0.95719156659E+01  0.78733846829E+01  0.27625076756E+02  0.51100000000E-03 0.  1.
        -12    1    3    3    0    0 -0.12320168696E+02  0.99106781083E+01  0.56150377882E+01  0.16779056786E+02  0.00000000000E+00 0.  1.
</event>
<event>
 7    1  0.2942034E-011  0.5052894E+02  0.7816164E-02  0.1300439E+00
        -11   -1    0    0    0    0  0.00000000000E+00  0.00000000000E+00  0.45593999997E+02  0.45594000000E+02  0.51100000000E-03 0. -1.
         11   -1    0    0    0    0 -0.00000000000E+00 -0.00000000000E+00 -0.45593999997E+02  0.45594000000E+02  0.51100000000E-03 0.  1.
    9900012    2    1    2    0    0 -0.18029940676E+02 -0.30193155142E+02  0.20407195966E+02  0.50528941656E+02  0.30000248657E+02 0.  0.
         12    1    1    2    0    0  0.18029940676E+02  0.30193155142E+02 -0.20407195966E+02  0.40659058344E+02  0.00000000000E+00 0. -1.
         11    1    3    3    0    0 -0.76574952718E+01 -0.28382512511E+02  0.66642199947E+01  0.30143259257E+02  0.51100000000E-03 0. -1.
        -11    1    3    3    0    0 -0.94636632694E+01 -0.17281810029E+01  0.37091491168E+01  0.10310447104E+02  0.51100000000E-03 0.  1.
         12    1    3    3    0    0 -0.90878213447E+00 -0.82461628683E-01  0.10033826855E+02  0.10075235294E+02  0.00000000000E+00 0. -1.
</event>
<event>
 7    1  0.2942034E-011  0.5052877E+02  0.7816164E-02  0.1300439E+00
        -11   -1    0    0    0    0  0.00000000000E+00  0.00000000000E+00  0.45593999997E+02  0.45594000000E+02  0.51100000000E-03 0. -1.
         11   -1    0    0    0    0 -0.00000000000E+00 -0.00000000000E+00 -0.45593999997E+02  0.45594000000E+02  0.51100000000E-03 0.  1.
    9900012    2    1    2    0    0 -0.13157563661E+02 -0.32088778491E+02 -0.21221738310E+02  0.50528765337E+02  0.29999712717E+02 0.  0.
         12    1    1    2    0    0  0.13157563661E+02  0.32088778491E+02  0.21221738310E+02  0.40659234663E+02  0.00000000000E+00 0. -1.
         11    1    3    3    0    0  0.68044548799E+01 -0.61669512100E+01  0.72181455541E+00  0.92115639254E+01  0.51100000000E-03 0. -1.
        -11    1    3    3    0    0 -0.97029919870E+01 -0.88757509708E+01 -0.22834899625E+01  0.13346959784E+02  0.51100000000E-03 0.  1.
         12    1    3    3    0    0 -0.10259026554E+02 -0.17046076310E+02 -0.19660062902E+02  0.27970241628E+02  0.00000000000E+00 0. -1.
</event>
<event>
 7    1  0.2942034E-011  0.5052886E+02  0.7816164E-02  0.1300439E+00
        -11   -1    0    0    0    0  0.00000000000E+00  0.00000000000E+00  0.45593999997E+02  0.45594000000E+02  0.51100000000E-03 0.  1.
         11   -1    0    0    0    0 -0.00000000000E+00 -0.00000000000E+00 -0.45593999997E+02  0.45594000000E+02  0.51100000000E-03 0. -1.
    9900012    2    1    2    0    0 -0.25194244990E+02 -0.21510815772E+02  0.23573299500E+02  0.50528860497E+02  0.30000001968E+02 0.  0.
         12    1    1    2    0    0  0.25194244990E+02  0.21510815772E+02 -0.23573299500E+02  0.40659139503E+02  0.00000000000E+00 0. -1.
         11    1    3    3    0    0 -0.28749509708E+01 -0.32598635849E+00  0.15793318905E+02  0.16056168051E+02  0.51100000000E-03 0.  1.
        -11    1    3    3    0    0 -0.17520801853E+02 -0.12211259151E+02 -0.48697527517E+00  0.21361893474E+02  0.51100000000E-03 0. -1.
         12    1    3    3    0    0 -0.47984921656E+01 -0.89735702626E+01  0.82669558708E+01  0.13110798972E+02  0.00000000000E+00 0. -1.
</event>
<event>
 7    1  0.2942034E-011  0.5052886E+02  0.7816164E-02  0.1300439E+00
        -11   -1    0    0    0    0  0.00000000000E+00  0.00000000000E+00  0.45593999997E+02  0.45594000000E+02  0.51100000000E-03 0.  1.
         11   -1    0    0    0    0 -0.00000000000E+00 -0.00000000000E+00 -0.45593999997E+02  0.45594000000E+02  0.51100000000E-03 0. -1.
    9900012    2    1    2    0    0 -0.22439587290E+02 -0.21774181503E+02  0.25990683909E+02  0.50528859479E+02  0.29999998873E+02 0.  0.
         12    1    1    2    0    0  0.22439587290E+02  0.21774181503E+02 -0.25990683909E+02  0.40659140521E+02  0.00000000000E+00 0. -1.
         11    1    3    3    0    0 -0.15421507947E+02 -0.32989326610E+01  0.20228123680E+02  0.25649227121E+02  0.51100000000E-03 0.  1.
        -11    1    3    3    0    0 -0.10989290599E+02 -0.15619243106E+02  0.32219932604E+01  0.19367666455E+02  0.51100000000E-03 0. -1.
         12    1    3    3    0    0  0.39712112552E+01 -0.28560057352E+01  0.25405669683E+01  0.55119659028E+01  0.00000000000E+00 0. -1.
</event>
<event>
 7    1  0.2942034E-011  0.5052885E+02  0.7816164E-02  0.1300439E+00
        -11   -1    0    0    0    0  0.00000000000E+00  0.00000000000E+00  0.45593999997E+02  0.45594000000E+02  0.51100000000E-03 0. -1.
         11   -1    0    0    0    0 -0.00000000000E+00 -0.00000000000E+00 -0.45593999997E+02  0.45594000000E+02  0.51100000000E-03 0.  1.
    9900012    2    1    2    0    0  0.26407536089E+02  0.15350401011E+02 -0.26836053959E+02  0.50528848932E+02  0.29999966813E+02 0.  0.
         12    1    1    2    0    0 -0.26407536089E+02 -0.15350401011E+02  0.26836053959E+02  0.40659151068E+02  0.00000000000E+00 0. -1.
         11    1    3    3    0    0  0.12121337687E+02  0.20488416533E+01 -0.19928324970E+01  0.12453752890E+02  0.51100000000E-03 0. -1.
        -11    1    3    3    0    0  0.12217933345E+02  0.14851422662E+02 -0.28016887467E+02  0.33982181123E+02  0.51100000000E-03 0.  1.
        -12    1    3    3    0    0  0.20682650582E+01 -0.15498633039E+01  0.31736660055E+01  0.40929149180E+01  0.00000000000E+00 0.  1.
</event>
<event>
 7    1  0.2942034E-011  0.5052886E+02  0.7816164E-02  0.1300439E+00
        -11   -1    0    0    0    0  0.00000000000E+00  0.00000000000E+00  0.45593999997E+02  0.45594000000E+02  0.51100000000E-03 0.  1.
         11   -1    0    0    0    0 -0.00000000000E+00 -0.00000000000E+00 -0.45593999997E+02  0.45594000000E+02  0.51100000000E-03 0. -1.
    9900012    2    1    2    0    0  0.14100348407E+02  0.30337365499E+02  0.23108227226E+02  0.50528859131E+02  0.29999997816E+02 0.  0.
         12    1    1    2    0    0 -0.14100348407E+02 -0.30337365499E+02 -0.23108227226E+02  0.40659140869E+02  0.00000000000E+00 0. -1.
         11    1    3    3    0    0 -0.35202163471E+00  0.18348810748E+01  0.15824628170E+02  0.15934539992E+02  0.51100000000E-03 0. -1.
        -11    1    3    3    0    0  0.14826498535E+02  0.28757456293E+02  0.55807608954E+01  0.32832320108E+02  0.51100000000E-03 0.  1.
        -12    1    3    3    0    0 -0.37412849348E+00 -0.25497186823E+00  0.17028381612E+01  0.17619990313E+01  0.00000000000E+00 0.  1.
</event>
<event>
 7    1  0.2942034E-011  0.5052886E+02  0.7816164E-02  0.1300439E+00
        -11   -1    0    0    0    0  0.00000000000E+00  0.00000000000E+00  0.45593999997E+02  0.45594000000E+02  0.51100000000E-03 0.  1.
         11   -1    0    0    0    0 -0.00000000000E+00 -0.00000000000E+00 -0.45593999997E+02  0.45594000000E+02  0.51100000000E-03 0. -1.
    9900012    2    1    2    0    0  0.19600493116E+01  0.40607669095E+02  0.58389325925E+00  0.50528861864E+02  0.30000006122E+02 0.  0.
         12    1    1    2    0    0 -0.19600493116E+01 -0.40607669095E+02 -0.58389325925E+00  0.40659138136E+02  0.00000000000E+00 0. -1.
         11    1    3    3    0    0  0.10163582237E+02  0.10911794411E+02 -0.21476299475E-01  0.14911945636E+02  0.51100000000E-03 0. -1.
        -11    1    3    3    0    0 -0.42369683485E+01  0.29861742410E+02 -0.29274938040E+01  0.30302570531E+02  0.51100000000E-03 0.  1.
         12    1    3    3    0    0 -0.39665645768E+01 -0.16586772662E+00  0.35328633627E+01  0.53143456967E+01  0.00000000000E+00 0. -1.
</event>
<event>
 7    1  0.2942034E-011  0.5052889E+02  0.7816164E-02  0.1300439E+00
        -11   -1    0    0    0    0  0.00000000000E+00  0.00000000000E+00  0.45593999997E+02  0.45594000000E+02  0.51100000000E-03 0.  1.
         11   -1    0    0    0    0 -0.00000000000E+00 -0.00000000000E+00 -0.45593999997E+02  0.45594000000E+02  0.51100000000E-03 0. -1.
    9900012    2    1    2    0    0  0.54475189748E+00 -0.38719582835E+02  0.12395989383E+02  0.50528887832E+02  0.30000085053E+02 0.  0.
         12    1    1    2    0    0 -0.54475189748E+00  0.38719582835E+02 -0.12395989383E+02  0.40659112168E+02  0.00000000000E+00 0. -1.
         11    1    3    3    0    0  0.63357243802E+01  0.27528365283E+00 -0.24789983772E+01  0.68090100401E+01  0.51100000000E-03 0. -1.
        -11    1    3    3    0    0 -0.59616708866E+01 -0.37234050126E+02  0.10717714607E+02  0.39201854742E+02  0.51100000000E-03 0.  1.
         12    1    3    3    0    0  0.17069840385E+00 -0.17608163612E+01  0.41572731536E+01  0.45180230495E+01  0.00000000000E+00 0. -1.
</event>
<event>
 7    1  0.2942034E-011  0.5052885E+02  0.7816164E-02  0.1300439E+00
        -11   -1    0    0    0    0  0.00000000000E+00  0.00000000000E+00  0.45593999997E+02  0.45594000000E+02  0.51100000000E-03 0. -1.
         11   -1    0    0    0    0 -0.00000000000E+00 -0.00000000000E+00 -0.45593999997E+02  0.45594000000E+02  0.51100000000E-03 0.  1.
    9900012    2    1    2    0    0 -0.30278882885E+02 -0.25262310316E+02 -0.99081297473E+01  0.50528854579E+02  0.29999983979E+02 0.  0.
         12    1    1    2    0    0  0.30278882885E+02  0.25262310316E+02  0.99081297473E+01  0.40659145421E+02  0.00000000000E+00 0. -1.
         11    1    3    3    0    0  0.21570851297E+01  0.48586568499E+00  0.22647127398E+01  0.31651233428E+01  0.51100000000E-03 0. -1.
        -11    1    3    3    0    0 -0.29490727096E+02 -0.12446598061E+02 -0.10214518860E+02  0.33599958091E+02  0.51100000000E-03 0.  1.
        -12    1    3    3    0    0 -0.29452409187E+01 -0.13301577940E+02 -0.19583236275E+01  0.13763773145E+02  0.00000000000E+00 0.  1.
</event>
<event>
 7    1  0.2942034E-011  0.5052886E+02  0.7816164E-02  0.1300439E+00
        -11   -1    0    0    0    0  0.00000000000E+00  0.00000000000E+00  0.45593999997E+02  0.45594000000E+02  0.51100000000E-03 0.  1.
         11   -1    0    0    0    0 -0.00000000000E+00 -0.00000000000E+00 -0.45593999997E+02  0.45594000000E+02  0.51100000000E-03 0. -1.
    9900012    2    1    2    0    0  0.28170851136E+02  0.85117392348E+01  0.28055643174E+02  0.50528859915E+02  0.30000000198E+02 0.  0.
         12    1    1    2    0    0 -0.28170851136E+02 -0.85117392348E+01 -0.28055643174E+02  0.40659140085E+02  0.00000000000E+00 0. -1.
         11    1    3    3    0    0  0.21777545598E+01 -0.12897974373E+01  0.14970570205E+02  0.15183022258E+02  0.51100000000E-03 0. -1.
        -11    1    3    3    0    0  0.14922571194E+02 -0.19589871339E+01  0.83379887494E+00  0.15073685099E+02  0.51100000000E-03 0.  1.
         12    1    3    3    0    0  0.11070525382E+02  0.11760523806E+02  0.12251274094E+02  0.20272152558E+02  0.00000000000E+00 0. -1.
</event>
<event>
 7    1  0.2942034E-011  0.5052886E+02  0.7816164E-02  0.1300439E+00
        -11   -1    0    0    0    0  0.00000000000E+00  0.00000000000E+00  0.45593999997E+02  0.45594000000E+02  0.51100000000E-03 0.  1.
         11   -1    0    0    0    0 -0.00000000000E+00 -0.00000000000E+00 -0.45593999997E+02  0.45594000000E+02  0.51100000000E-03 0. -1.
    9900012    2    1    2    0    0 -0.21289890726E+02  0.39274754924E+01  0.34416295203E+02  0.50528857284E+02  0.29999992201E+02 0.  0.
         12    1    1    2    0    0  0.21289890726E+02 -0.39274754924E+01 -0.34416295203E+02  0.40659142716E+02  0.00000000000E+00 0. -1.
         11    1    3    3    0    0 -0.64576599639E+01 -0.97131212755E+01  0.12327041999E+02  0.16970623495E+02  0.51100000000E-03 0. -1.
        -11    1    3    3    0    0 -0.17754883334E+02  0.94446201807E+01  0.16842208416E+02  0.26231597686E+02  0.51100000000E-03 0.  1.
         12    1    3    3    0    0  0.29226525715E+01  0.41959765872E+01  0.52470447888E+01  0.73266361033E+01  0.00000000000E+00 0. -1.
</event>
<event>
 7    1  0.2942034E-011  0.5052886E+02  0.7816164E-02  0.1300439E+00
        -11   -1    0    0    0    0  0.00000000000E+00  0.00000000000E+00  0.45593999997E+02  0.45594000000E+02  0.51100000000E-03 0.  1.
         11   -1    0    0    0    0 -0.00000000000E+00 -0.00000000000E+00 -0.45593999997E+02  0.45594000000E+02  0.51100000000E-03 0. -1.
    9900012    2    1    2    0    0  0.36316408085E+02 -0.52780337452E+01  0.17505035431E+02  0.50528863243E+02  0.30000010313E+02 0.  0.
         12    1    1    2    0    0 -0.36316408085E+02  0.52780337452E+01 -0.17505035431E+02  0.40659136757E+02  0.00000000000E+00 0. -1.
         11    1    3    3    0    0  0.10854968732E+02  0.21037895714E+01 -0.41953903435E+01  0.11826139570E+02  0.51100000000E-03 0. -1.
        -11    1    3    3    0    0  0.24226147933E+02 -0.19583403677E+00  0.19460599872E+02  0.31075063029E+02  0.51100000000E-03 0.  1.
         12    1    3    3    0    0  0.12352914199E+01 -0.71859892799E+01  0.22398259028E+01  0.76276606438E+01  0.00000000000E+00 0. -1.
</event>
<event>
 7    1  0.2942034E-011  0.5052885E+02  0.7816164E-02  0.1300439E+00
        -11   -1    0    0    0    0  0.00000000000E+00  0.00000000000E+00  0.45593999997E+02  0.45594000000E+02  0.51100000000E-03 0.  1.
         11   -1    0    0    0    0 -0.00000000000E+00 -0.00000000000E+00 -0.45593999997E+02  0.45594000000E+02  0.51100000000E-03 0. -1.
    9900012    2    1    2    0    0  0.15048936460E+02  0.26341374398E+02  0.27070790186E+02  0.50528853735E+02  0.29999981411E+02 0.  0.
         12    1    1    2    0    0 -0.15048936460E+02 -0.26341374398E+02 -0.27070790186E+02  0.40659146265E+02  0.00000000000E+00 0. -1.
         11    1    3    3    0    0  0.17172152606E+02  0.71029957180E+01  0.13854668699E+02  0.23179456817E+02  0.51100000000E-03 0. -1.
        -11    1    3    3    0    0 -0.17564770047E+01  0.16596142243E+02  0.16261187832E+02  0.23301145440E+02  0.51100000000E-03 0.  1.
         12    1    3    3    0    0 -0.36673914173E+00  0.26422364366E+01 -0.30450663449E+01  0.40482514781E+01  0.00000000000E+00 0. -1.
</event>
<event>
 7    1  0.2942034E-011  0.5052886E+02  0.7816164E-02  0.1300439E+00
        -11   -1    0    0    0    0  0.00000000000E+00  0.00000000000E+00  0.45593999997E+02  0.45594000000E+02  0.51100000000E-03 0. -1.
         11   -1    0    0    0    0 -0.00000000000E+00 -0.00000000000E+00 -0.45593999997E+02  0.45594000000E+02  0.51100000000E-03 0.  1.
    9900012    2    1    2    0    0 -0.20122319993E+02  0.35239990807E+02 -0.25300267014E+01  0.50528858973E+02  0.29999997334E+02 0.  0.
         12    1    1    2    0    0  0.20122319993E+02 -0.35239990807E+02  0.25300267014E+01  0.40659141027E+02  0.00000000000E+00 0. -1.
         11    1    3    3    0    0 -0.47683648721E+01  0.23993800301E+02  0.76277651096E+01  0.25624647457E+02  0.51100000000E-03 0. -1.
        -11    1    3    3    0    0 -0.36174012150E+01  0.94783664929E+01 -0.78150840459E+01  0.12806270411E+02  0.51100000000E-03 0.  1.
         12    1    3    3    0    0 -0.11736553906E+02  0.17678240128E+01 -0.23427077651E+01  0.12097941106E+02  0.00000000000E+00 0. -1.
</event>
<event>
 7    1  0.2942034E-011  0.5052886E+02  0.7816164E-02  0.1300439E+00
        -11   -1    0    0    0    0  0.00000000000E+00  0.00000000000E+00  0.45593999997E+02  0.45594000000E+02  0.51100000000E-03 0. -1.
         11   -1    0    0    0    0 -0.00000000000E+00 -0.00000000000E+00 -0.45593999997E+02  0.45594000000E+02  0.51100000000E-03 0.  1.
    9900012    2    1    2    0    0 -0.24816287861E+02 -0.26173719117E+02 -0.18768437405E+02  0.50528856401E+02  0.29999989517E+02 0.  0.
         12    1    1    2    0    0  0.24816287861E+02  0.26173719117E+02  0.18768437405E+02  0.40659143599E+02  0.00000000000E+00 0. -1.
         11    1    3    3    0    0 -0.15509221241E+02 -0.14329156784E+02  0.53227235105E+01  0.21775951494E+02  0.51100000000E-03 0. -1.
        -11    1    3    3    0    0 -0.67859251378E+01 -0.90938340032E+01 -0.14168937072E+02  0.18152282910E+02  0.51100000000E-03 0.  1.
         12    1    3    3    0    0 -0.25211414815E+01 -0.27507283294E+01 -0.99222238436E+01  0.10600621997E+02  0.00000000000E+00 0. -1.
</event>
<event>
 7    1  0.2942034E-011  0.5052884E+02  0.7816164E-02  0.1300439E+00
        -11   -1    0    0    0    0  0.00000000000E+00  0.00000000000E+00  0.45593999997E+02  0.45594000000E+02  0.51100000000E-03 0.  1.
         11   -1    0    0    0    0 -0.00000000000E+00 -0.00000000000E+00 -0.45593999997E+02  0.45594000000E+02  0.51100000000E-03 0. -1.
    9900012    2    1    2    0    0  0.22845485415E+02 -0.22636963102E+02  0.24876077685E+02  0.50528836908E+02  0.29999930266E+02 0.  0.
         12    1    1    2    0    0 -0.22845485415E+02  0.22636963102E+02 -0.24876077685E+02  0.40659163092E+02  0.00000000000E+00 0. -1.
         11    1    3    3    0    0  0.36755167466E+01 -0.12888342353E+02  0.18022858969E+00  0.13403405334E+02  0.51100000000E-03 0. -1.
        -11    1    3    3    0    0  0.10992246232E+02  0.73890869917E+00  0.20338634667E+02  0.23130834911E+02  0.51100000000E-03 0.  1.
        -12    1    3    3    0    0  0.81777224363E+01 -0.10487529449E+02  0.43572144280E+01  0.13994596663E+02  0.00000000000E+00 0.  1.
</event>
<event>
 7    1  0.2942034E-011  0.5052888E+02  0.7816164E-02  0.1300439E+00
        -11   -1    0    0    0    0  0.00000000000E+00  0.00000000000E+00  0.45593999997E+02  0.45594000000E+02  0.51100000000E-03 0. -1.
         11   -1    0    0    0    0 -0.00000000000E+00 -0.00000000000E+00 -0.45593999997E+02  0.45594000000E+02  0.51100000000E-03 0.  1.
    9900012    2    1    2    0    0 -0.18546924219E+02 -0.33647030036E+02 -0.13306137521E+02  0.50528876498E+02  0.30000050603E+02 0.  0.
         12    1    1    2    0    0  0.18546924219E+02  0.33647030036E+02  0.13306137521E+02  0.40659123502E+02  0.00000000000E+00 0. -1.
         11    1    3    3    0    0 -0.21713259383E+02 -0.33517719124E+02 -0.16736467296E+02  0.43301414136E+02  0.51100000000E-03 0.  1.
        -11    1    3    3    0    0  0.66308371900E+00 -0.11610691092E+00  0.44674173807E+01  0.45178511648E+01  0.51100000000E-03 0. -1.
        -12    1    3    3    0    0  0.25032514448E+01 -0.13204001142E-01 -0.10370876050E+01  0.27096111975E+01  0.00000000000E+00 0.  1.
</event>
<event>
 7    1  0.2942034E-011  0.5052891E+02  0.7816164E-02  0.1300439E+00
        -11   -1    0    0    0    0  0.00000000000E+00  0.00000000000E+00  0.45593999997E+02  0.45594000000E+02  0.51100000000E-03 0.  1.
         11   -1    0    0    0    0 -0.00000000000E+00 -0.00000000000E+00 -0.45593999997E+02  0.45594000000E+02  0.51100000000E-03 0. -1.
    9900012    2    1    2    0    0 -0.16704753718E+02 -0.36954674731E+02  0.29093950608E+01  0.50528912936E+02  0.30000161361E+02 0.  0.
         12    1    1    2    0    0  0.16704753718E+02  0.36954674731E+02 -0.29093950608E+01  0.40659087064E+02  0.00000000000E+00 0. -1.
         11    1    3    3    0    0  0.76148749982E+00 -0.55947429620E+01 -0.42438275880E+01  0.70633621513E+01  0.51100000000E-03 0. -1.
        -11    1    3    3    0    0 -0.17866353489E+02 -0.31987655348E+02  0.12006053024E+02  0.38555959216E+02  0.51100000000E-03 0.  1.
        -12    1    3    3    0    0  0.40011227136E+00  0.62772357863E+00 -0.48528303751E+01  0.49095915686E+01  0.00000000000E+00 0.  1.
</event>
<event>
 7    1  0.2942034E-011  0.5052884E+02  0.7816164E-02  0.1300439E+00
        -11   -1    0    0    0    0  0.00000000000E+00  0.00000000000E+00  0.45593999997E+02  0.45594000000E+02  0.51100000000E-03 0.  1.
         11   -1    0    0    0    0 -0.00000000000E+00 -0.00000000000E+00 -0.45593999997E+02  0.45594000000E+02  0.51100000000E-03 0. -1.
    9900012    2    1    2    0    0  0.37755746667E+02 -0.89770105020E+01  0.12127819188E+02  0.50528842087E+02  0.29999946008E+02 0.  0.
         12    1    1    2    0    0 -0.37755746667E+02  0.89770105020E+01 -0.12127819188E+02  0.40659157913E+02  0.00000000000E+00 0. -1.
         11    1    3    3    0    0  0.11893532351E+02  0.37280559563E+01 -0.68264810662E+01  0.14211099782E+02  0.51100000000E-03 0. -1.
        -11    1    3    3    0    0  0.16187595810E+02 -0.16602953509E+01  0.92509496081E+01  0.18718304081E+02  0.51100000000E-03 0.  1.
         12    1    3    3    0    0  0.96746185065E+01 -0.11044771107E+02  0.97033506460E+01  0.17599438225E+02  0.00000000000E+00 0. -1.
</event>
<event>
 7    1  0.2942034E-011  0.5052886E+02  0.7816164E-02  0.1300439E+00
        -11   -1    0    0    0    0  0.00000000000E+00  0.00000000000E+00  0.45593999997E+02  0.45594000000E+02  0.51100000000E-03 0.  1.
         11   -1    0    0    0    0 -0.00000000000E+00 -0.00000000000E+00 -0.45593999997E+02  0.45594000000E+02  0.51100000000E-03 0. -1.
    9900012    2    1    2    0    0 -0.47184734926E+01  0.39805855801E+02  0.68114075744E+01  0.50528863003E+02  0.30000009585E+02 0.  0.
         12    1    1    2    0    0  0.47184734926E+01 -0.39805855801E+02 -0.68114075744E+01  0.40659136997E+02  0.00000000000E+00 0. -1.
         11    1    3    3    0    0 -0.48545576576E+01  0.98314816737E-01  0.31914883397E+01  0.58105072015E+01  0.51100000000E-03 0. -1.
        -11    1    3    3    0    0  0.24130775865E+01  0.41157346542E+02  0.14475780835E+01  0.41253431377E+02  0.51100000000E-03 0.  1.
        -12    1    3    3    0    0 -0.22769934215E+01 -0.14498055571E+01  0.21723411512E+01  0.34649244251E+01  0.00000000000E+00 0.  1.
</event>
<event>
 7    1  0.2942034E-011  0.5052886E+02  0.7816164E-02  0.1300439E+00
        -11   -1    0    0    0    0  0.00000000000E+00  0.00000000000E+00  0.45593999997E+02  0.45594000000E+02  0.51100000000E-03 0.  1.
         11   -1    0    0    0    0 -0.00000000000E+00 -0.00000000000E+00 -0.45593999997E+02  0.45594000000E+02  0.51100000000E-03 0. -1.
    9900012    2    1    2    0    0 -0.57527912557E+01 -0.34878629514E+02  0.20088604603E+02  0.50528862787E+02  0.30000008928E+02 0.  0.
         12    1    1    2    0    0  0.57527912557E+01  0.34878629514E+02 -0.20088604603E+02  0.40659137213E+02  0.00000000000E+00 0. -1.
         11    1    3    3    0    0  0.77574303428E+01 -0.24226649271E+02  0.16067499436E+02  0.30087751641E+02  0.51100000000E-03 0. -1.
        -11    1    3    3    0    0 -0.72319169127E+01 -0.82089645752E+01  0.70915216745E+01  0.13037538171E+02  0.51100000000E-03 0.  1.
         12    1    3    3    0    0 -0.62783046858E+01 -0.24430156673E+01 -0.30704165070E+01  0.74035729756E+01  0.00000000000E+00 0. -1.
</event>
<event>
 7    1  0.2942034E-011  0.5052886E+02  0.7816164E-02  0.1300439E+00
        -11   -1    0    0    0    0  0.00000000000E+00  0.00000000000E+00  0.45593999997E+02  0.45594000000E+02  0.51100000000E-03 0.  1.
         11   -1    0    0    0    0 -0.00000000000E+00 -0.00000000000E+00 -0.45593999997E+02  0.45594000000E+02  0.51100000000E-03 0. -1.
    9900012    2    1    2    0    0  0.27027710175E+02  0.12183752795E+02 -0.27824889849E+02  0.50528862717E+02  0.30000008716E+02 0.  0.
         12    1    1    2    0    0 -0.27027710175E+02 -0.12183752795E+02  0.27824889849E+02  0.40659137283E+02  0.00000000000E+00 0. -1.
         11    1    3    3    0    0  0.97697203152E+01  0.15719516183E+02 -0.37791559419E+01  0.18890014398E+02  0.51100000000E-03 0. -1.
        -11    1    3    3    0    0  0.14303841266E+02 -0.21518425522E+01 -0.10947579888E+02  0.18140556965E+02  0.51100000000E-03 0.  1.
        -12    1    3    3    0    0  0.29541485937E+01 -0.13839208359E+01 -0.13098154018E+02  0.13498291354E+02  0.00000000000E+00 0.  1.
</event>
<event>
 7    1  0.2942034E-011  0.5052885E+02  0.7816164E-02  0.1300439E+00
        -11   -1    0    0    0    0  0.00000000000E+00  0.00000000000E+00  0.45593999997E+02  0.45594000000E+02  0.51100000000E-03 0.  1.
         11   -1    0    0    0    0 -0.00000000000E+00 -0.00000000000E+00 -0.45593999997E+02  0.45594000000E+02  0.51100000000E-03 0. -1.
    9900012    2    1    2    0    0  0.29531553438E+02  0.14482885190E+02  0.23901871859E+02  0.50528854777E+02  0.29999984581E+02 0.  0.
         12    1    1    2    0    0 -0.29531553438E+02 -0.14482885190E+02 -0.23901871859E+02  0.40659145223E+02  0.00000000000E+00 0. -1.
         11    1    3    3    0    0 -0.31865124324E+00  0.88962658637E+01 -0.28773843599E+01  0.93554489977E+01  0.51100000000E-03 0. -1.
        -11    1    3    3    0    0  0.20735544795E+02  0.25180991931E+01  0.13861873471E+02  0.25069008315E+02  0.51100000000E-03 0.  1.
        -12    1    3    3    0    0  0.91146598858E+01  0.30685201336E+01  0.12917382747E+02  0.16104397464E+02  0.00000000000E+00 0.  1.
</event>
<event>
 7    1  0.2942034E-011  0.5052886E+02  0.7816164E-02  0.1300439E+00
        -11   -1    0    0    0    0  0.00000000000E+00  0.00000000000E+00  0.45593999997E+02  0.45594000000E+02  0.51100000000E-03 0. -1.
         11   -1    0    0    0    0 -0.00000000000E+00 -0.00000000000E+00 -0.45593999997E+02  0.45594000000E+02  0.51100000000E-03 0.  1.
    9900012    2    1    2    0    0 -0.50320416635E+01 -0.37987448626E+02 -0.13594055554E+02  0.50528855361E+02  0.29999986354E+02 0.  0.
         12    1    1    2    0    0  0.50320416635E+01  0.37987448626E+02  0.13594055554E+02  0.40659144639E+02  0.00000000000E+00 0. -1.
         11    1    3    3    0    0  0.35409317384E+01 -0.10435518114E+02  0.74424164977E+01  0.13297661429E+02  0.51100000000E-03 0. -1.
        -11    1    3    3    0    0 -0.83599787669E+00 -0.19588907048E+02 -0.13863981803E+02  0.24013208105E+02  0.51100000000E-03 0.  1.
         12    1    3    3    0    0 -0.77369755252E+01 -0.79630234633E+01 -0.71724902489E+01  0.13217985827E+02  0.00000000000E+00 0. -1.
</event>
<event>
 7    1  0.2942034E-011  0.5052886E+02  0.7816164E-02  0.1300439E+00
        -11   -1    0    0    0    0  0.00000000000E+00  0.00000000000E+00  0.45593999997E+02  0.45594000000E+02  0.51100000000E-03 0.  1.
         11   -1    0    0    0    0 -0.00000000000E+00 -0.00000000000E+00 -0.45593999997E+02  0.45594000000E+02  0.51100000000E-03 0. -1.
    9900012    2    1    2    0    0  0.16518612195E+02  0.10473039866E+02  0.35645705433E+02  0.50528862913E+02  0.30000009310E+02 0.  0.
         12    1    1    2    0    0 -0.16518612195E+02 -0.10473039866E+02 -0.35645705433E+02  0.40659137087E+02  0.00000000000E+00 0. -1.
         11    1    3    3    0    0 -0.37472363337E+01  0.38715004932E+01  0.11736888496E+02  0.12914520821E+02  0.51100000000E-03 0. -1.
        -11    1    3    3    0    0  0.22781323775E+02  0.76393400238E+01  0.25007009384E+02  0.34679947341E+02  0.51100000000E-03 0.  1.
        -12    1    3    3    0    0 -0.25154752458E+01 -0.10378006513E+01 -0.10981924477E+01  0.29343947513E+01  0.00000000000E+00 0.  1.
</event>
<event>
 7    1  0.2942034E-011  0.5052886E+02  0.7816164E-02  0.1300439E+00
        -11   -1    0    0    0    0  0.00000000000E+00  0.00000000000E+00  0.45593999997E+02  0.45594000000E+02  0.51100000000E-03 0.  1.
         11   -1    0    0    0    0 -0.00000000000E+00 -0.00000000000E+00 -0.45593999997E+02  0.45594000000E+02  0.51100000000E-03 0. -1.
    9900012    2    1    2    0    0 -0.28736394282E+02 -0.28764006670E+02 -0.13012438255E+00  0.50528863654E+02  0.30000011562E+02 0.  0.
         12    1    1    2    0    0  0.28736394282E+02  0.28764006670E+02  0.13012438255E+00  0.40659136346E+02  0.00000000000E+00 0. -1.
         11    1    3    3    0    0 -0.14588078019E+01 -0.76285732814E+01 -0.64341469247E+01  0.10085707582E+02  0.51100000000E-03 0. -1.
        -11    1    3    3    0    0 -0.28704034140E+02 -0.15199196246E+02  0.12273320865E+01  0.32502976583E+02  0.51100000000E-03 0.  1.
        -12    1    3    3    0    0  0.14264476598E+01 -0.59362371422E+01  0.50766904556E+01  0.79401794890E+01  0.00000000000E+00 0.  1.
</event>
<event>
 7    1  0.2942034E-011  0.5052887E+02  0.7816164E-02  0.1300439E+00
        -11   -1    0    0    0    0  0.00000000000E+00  0.00000000000E+00  0.45593999997E+02  0.45594000000E+02  0.51100000000E-03 0. -1.
         11   -1    0    0    0    0 -0.00000000000E+00 -0.00000000000E+00 -0.45593999997E+02  0.45594000000E+02  0.51100000000E-03 0.  1.
    9900012    2    1    2    0    0 -0.29455912243E+02  0.27821001235E+02  0.33921046645E+01  0.50528865112E+02  0.30000015994E+02 0.  0.
         12    1    1    2    0    0  0.29455912243E+02 -0.27821001235E+02 -0.33921046645E+01  0.40659134888E+02  0.00000000000E+00 0. -1.
         11    1    3    3    0    0 -0.11001437837E+02  0.17997856048E+02  0.57045386051E+01  0.21851686840E+02  0.51100000000E-03 0. -1.
        -11    1    3    3    0    0 -0.18783574883E+02  0.58725632447E+01 -0.84119625986E+01  0.21402588616E+02  0.51100000000E-03 0.  1.
        -12    1    3    3    0    0  0.32910047724E+00  0.39505819427E+01  0.60995286580E+01  0.72745896558E+01  0.00000000000E+00 0.  1.
</event>
<event>
 7    1  0.2942034E-011  0.5052886E+02  0.7816164E-02  0.1300439E+00
        -11   -1    0    0    0    0  0.00000000000E+00  0.00000000000E+00  0.45593999997E+02  0.45594000000E+02  0.51100000000E-03 0.  1.
         11   -1    0    0    0    0 -0.00000000000E+00 -0.00000000000E+00 -0.45593999997E+02  0.45594000000E+02  0.51100000000E-03 0. -1.
    9900012    2    1    2    0    0  0.19725231581E+02 -0.17425971226E+02  0.30990584496E+02  0.50528861280E+02  0.30000004346E+02 0.  0.
         12    1    1    2    0    0 -0.19725231581E+02  0.17425971226E+02 -0.30990584496E+02  0.40659138720E+02  0.00000000000E+00 0. -1.
         11    1    3    3    0    0  0.57437181382E+01  0.51003782067E+01  0.34012865836E+01  0.84007682142E+01  0.51100000000E-03 0.  1.
        -11    1    3    3    0    0  0.13200445039E+02 -0.25150698523E+02  0.27262201247E+02  0.39370509299E+02  0.51100000000E-03 0. -1.
         12    1    3    3    0    0  0.78106840407E+00  0.26243490903E+01  0.32709666518E+00  0.27575837663E+01  0.00000000000E+00 0. -1.
</event>
<event>
 7    1  0.2942034E-011  0.5052887E+02  0.7816164E-02  0.1300439E+00
        -11   -1    0    0    0    0  0.00000000000E+00  0.00000000000E+00  0.45593999997E+02  0.45594000000E+02  0.51100000000E-03 0.  1.
         11   -1    0    0    0    0 -0.00000000000E+00 -0.00000000000E+00 -0.45593999997E+02  0.45594000000E+02  0.51100000000E-03 0. -1.
    9900012    2    1    2    0    0  0.20371734884E+02 -0.29365904323E+02  0.19385594599E+02  0.50528865764E+02  0.30000017976E+02 0.  0.
         12    1    1    2    0    0 -0.20371734884E+02  0.29365904323E+02 -0.19385594599E+02  0.40659134236E+02  0.00000000000E+00 0. -1.
         11    1    3    3    0    0  0.86562983897E+00  0.74461911286E+00 -0.54494677146E+01  0.55678066844E+01  0.51100000000E-03 0. -1.
        -11    1    3    3    0    0  0.78625144729E+01 -0.10568915085E+02  0.31732356101E+01  0.13549558089E+02  0.51100000000E-03 0.  1.
         12    1    3    3    0    0  0.11643590572E+02 -0.19541608351E+02  0.21661826703E+02  0.31411500990E+02  0.00000000000E+00 0. -1.
</event>
<event>
 7    1  0.2942034E-011  0.5052886E+02  0.7816164E-02  0.1300439E+00
        -11   -1    0    0    0    0  0.00000000000E+00  0.00000000000E+00  0.45593999997E+02  0.45594000000E+02  0.51100000000E-03 0.  1.
         11   -1    0    0    0    0 -0.00000000000E+00 -0.00000000000E+00 -0.45593999997E+02  0.45594000000E+02  0.51100000000E-03 0. -1.
    9900012    2    1    2    0    0  0.23820280504E+02 -0.90152613621E+01  0.31693607535E+02  0.50528862536E+02  0.30000008166E+02 0.  0.
         12    1    1    2    0    0 -0.23820280504E+02  0.90152613621E+01 -0.31693607535E+02  0.40659137464E+02  0.00000000000E+00 0. -1.
         11    1    3    3    0    0 -0.14355197327E+01 -0.79201632417E+01 -0.13699478991E+01  0.81649531649E+01  0.51100000000E-03 0. -1.
        -11    1    3    3    0    0  0.13245396900E+02 -0.45120000348E+01  0.17924684637E+02  0.22739679042E+02  0.51100000000E-03 0.  1.
         12    1    3    3    0    0  0.12010403337E+02  0.34169019145E+01  0.15138870797E+02  0.19624230329E+02  0.00000000000E+00 0. -1.
</event>
<event>
 7    1  0.2942034E-011  0.5052886E+02  0.7816164E-02  0.1300439E+00
        -11   -1    0    0    0    0  0.00000000000E+00  0.00000000000E+00  0.45593999997E+02  0.45594000000E+02  0.51100000000E-03 0. -1.
         11   -1    0    0    0    0 -0.00000000000E+00 -0.00000000000E+00 -0.45593999997E+02  0.45594000000E+02  0.51100000000E-03 0.  1.
    9900012    2    1    2    0    0 -0.16974675779E+02 -0.35962543251E+02 -0.84688491278E+01  0.50528861539E+02  0.30000005132E+02 0.  0.
         12    1    1    2    0    0  0.16974675779E+02  0.35962543251E+02  0.84688491278E+01  0.40659138461E+02  0.00000000000E+00 0. -1.
         11    1    3    3    0    0  0.18969074284E+01 -0.88473596563E+01  0.74089782062E+01  0.11694741938E+02  0.51100000000E-03 0. -1.
        -11    1    3    3    0    0 -0.11925396766E+02 -0.24133831995E+02 -0.83956718554E+01  0.28198302093E+02  0.51100000000E-03 0.  1.
        -12    1    3    3    0    0 -0.69461864410E+01 -0.29813515999E+01 -0.74821554785E+01  0.10635817507E+02  0.00000000000E+00 0.  1.
</event>
<event>
 7    1  0.2942034E-011  0.5052886E+02  0.7816164E-02  0.1300439E+00
        -11   -1    0    0    0    0  0.00000000000E+00  0.00000000000E+00  0.45593999997E+02  0.45594000000E+02  0.51100000000E-03 0.  1.
         11   -1    0    0    0    0 -0.00000000000E+00 -0.00000000000E+00 -0.45593999997E+02  0.45594000000E+02  0.51100000000E-03 0. -1.
    9900012    2    1    2    0    0  0.34689641054E+02 -0.79777542364E+01  0.19650700928E+02  0.50528858272E+02  0.29999995202E+02 0.  0.
         12    1    1    2    0    0 -0.34689641054E+02  0.79777542364E+01 -0.19650700928E+02  0.40659141728E+02  0.00000000000E+00 0. -1.
         11    1    3    3    0    0 -0.90015752588E+00 -0.13059665718E+01  0.28996631785E+01  0.33051292060E+01  0.51100000000E-03 0. -1.
        -11    1    3    3    0    0  0.36216915563E+02  0.12110958226E+01  0.14093293733E+02  0.38881263540E+02  0.51100000000E-03 0.  1.
        -12    1    3    3    0    0 -0.62711698292E+00 -0.78828834872E+01  0.26577440167E+01  0.83424655253E+01  0.00000000000E+00 0.  1.
</event>
<event>
 7    1  0.2942034E-011  0.5052886E+02  0.7816164E-02  0.1300439E+00
        -11   -1    0    0    0    0  0.00000000000E+00  0.00000000000E+00  0.45593999997E+02  0.45594000000E+02  0.51100000000E-03 0.  1.
         11   -1    0    0    0    0 -0.00000000000E+00 -0.00000000000E+00 -0.45593999997E+02  0.45594000000E+02  0.51100000000E-03 0. -1.
    9900012    2    1    2    0    0 -0.12825762393E+02 -0.69915300389E+01  0.37944485968E+02  0.50528859717E+02  0.29999999594E+02 0.  0.
         12    1    1    2    0    0  0.12825762393E+02  0.69915300389E+01 -0.37944485968E+02  0.40659140283E+02  0.00000000000E+00 0. -1.
         11    1    3    3    0    0 -0.77898834611E+01 -0.19311662993E+01  0.23430959174E+01  0.83607288171E+01  0.51100000000E-03 0. -1.
        -11    1    3    3    0    0  0.22998602421E+01  0.67464072526E+01  0.20205173408E+02  0.21425508178E+02  0.51100000000E-03 0.  1.
        -12    1    3    3    0    0 -0.73357391742E+01 -0.11806770992E+02  0.15396216642E+02  0.20742622722E+02  0.00000000000E+00 0.  1.
</event>
<event>
 7    1  0.2942034E-011  0.5052887E+02  0.7816164E-02  0.1300439E+00
        -11   -1    0    0    0    0  0.00000000000E+00  0.00000000000E+00  0.45593999997E+02  0.45594000000E+02  0.51100000000E-03 0.  1.
         11   -1    0    0    0    0 -0.00000000000E+00 -0.00000000000E+00 -0.45593999997E+02  0.45594000000E+02  0.51100000000E-03 0. -1.
    9900012    2    1    2    0    0  0.36421767606E+02 -0.17268191416E+02  0.53319391886E+01  0.50528866145E+02  0.30000019134E+02 0.  0.
         12    1    1    2    0    0 -0.36421767606E+02  0.17268191416E+02 -0.53319391886E+01  0.40659133855E+02  0.00000000000E+00 0. -1.
         11    1    3    3    0    0  0.19803662019E+01 -0.66520280159E+01  0.89824734089E+01  0.11351482538E+02  0.51100000000E-03 0. -1.
        -11    1    3    3    0    0  0.24151249912E+02 -0.19191950867E+01 -0.71440287757E+01  0.25258727788E+02  0.51100000000E-03 0.  1.
        -12    1    3    3    0    0  0.10290151492E+02 -0.86969683130E+01  0.34934945554E+01  0.13918655818E+02  0.00000000000E+00 0.  1.
</event>
<event>
 7    1  0.2942034E-011  0.5052886E+02  0.7816164E-02  0.1300439E+00
        -11   -1    0    0    0    0  0.00000000000E+00  0.00000000000E+00  0.45593999997E+02  0.45594000000E+02  0.51100000000E-03 0. -1.
         11   -1    0    0    0    0 -0.00000000000E+00 -0.00000000000E+00 -0.45593999997E+02  0.45594000000E+02  0.51100000000E-03 0.  1.
    9900012    2    1    2    0    0  0.15039346285E+02 -0.10484358124E+02 -0.36291349739E+02  0.50528858742E+02  0.29999996633E+02 0.  0.
         12    1    1    2    0    0 -0.15039346285E+02  0.10484358124E+02  0.36291349739E+02  0.40659141258E+02  0.00000000000E+00 0. -1.
         11    1    3    3    0    0  0.16370852407E+02 -0.15153699825E+02 -0.26103480430E+02  0.34337022552E+02  0.51100000000E-03 0. -1.
        -11    1    3    3    0    0 -0.19479231912E+01 -0.11761974609E+01 -0.10058277034E+02  0.10312457630E+02  0.51100000000E-03 0.  1.
         12    1    3    3    0    0  0.61641706948E+00  0.58455391616E+01 -0.12959227520E+00  0.58793785600E+01  0.00000000000E+00 0. -1.
</event>
<event>
 7    1  0.2942034E-011  0.5052886E+02  0.7816164E-02  0.1300439E+00
        -11   -1    0    0    0    0  0.00000000000E+00  0.00000000000E+00  0.45593999997E+02  0.45594000000E+02  0.51100000000E-03 0.  1.
         11   -1    0    0    0    0 -0.00000000000E+00 -0.00000000000E+00 -0.45593999997E+02  0.45594000000E+02  0.51100000000E-03 0. -1.
    9900012    2    1    2    0    0  0.49156536903E+00 -0.14447154832E+02  0.38002677150E+02  0.50528863390E+02  0.30000010762E+02 0.  0.
         12    1    1    2    0    0 -0.49156536903E+00  0.14447154832E+02 -0.38002677150E+02  0.40659136610E+02  0.00000000000E+00 0. -1.
         11    1    3    3    0    0 -0.53813040966E+01 -0.14878062486E+02  0.15669818350E+02  0.22267877863E+02  0.51100000000E-03 0. -1.
        -11    1    3    3    0    0  0.95420400428E+01 -0.48828531475E+01  0.15642507322E+02  0.18962616344E+02  0.51100000000E-03 0.  1.
        -12    1    3    3    0    0 -0.36691705772E+01  0.53137608012E+01  0.66903514778E+01  0.92983691835E+01  0.00000000000E+00 0.  1.
</event>
<event>
 7    1  0.2942034E-011  0.5052886E+02  0.7816164E-02  0.1300439E+00
        -11   -1    0    0    0    0  0.00000000000E+00  0.00000000000E+00  0.45593999997E+02  0.45594000000E+02  0.51100000000E-03 0. -1.
         11   -1    0    0    0    0 -0.00000000000E+00 -0.00000000000E+00 -0.45593999997E+02  0.45594000000E+02  0.51100000000E-03 0.  1.
    9900012    2    1    2    0    0 -0.12939926376E+02  0.15396360235E+02 -0.35336613791E+02  0.50528857395E+02  0.29999992538E+02 0.  0.
         12    1    1    2    0    0  0.12939926376E+02 -0.15396360235E+02  0.35336613791E+02  0.40659142605E+02  0.00000000000E+00 0. -1.
         11    1    3    3    0    0 -0.23798046056E+01  0.17715122538E+02 -0.74791077553E+01  0.19375915193E+02  0.51100000000E-03 0. -1.
        -11    1    3    3    0    0 -0.41772868272E+01  0.32873209061E+01 -0.12882468903E+02  0.13936075821E+02  0.51100000000E-03 0.  1.
         12    1    3    3    0    0 -0.63828349433E+01 -0.56060832088E+01 -0.14975037133E+02  0.17216866381E+02  0.00000000000E+00 0. -1.
</event>
<event>
 7    1  0.2942034E-011  0.5052886E+02  0.7816164E-02  0.1300439E+00
        -11   -1    0    0    0    0  0.00000000000E+00  0.00000000000E+00  0.45593999997E+02  0.45594000000E+02  0.51100000000E-03 0.  1.
         11   -1    0    0    0    0 -0.00000000000E+00 -0.00000000000E+00 -0.45593999997E+02  0.45594000000E+02  0.51100000000E-03 0. -1.
    9900012    2    1    2    0    0 -0.15315451463E+02 -0.28449384986E+02  0.24682690350E+02  0.50528858807E+02  0.29999996831E+02 0.  0.
         12    1    1    2    0    0  0.15315451463E+02  0.28449384986E+02 -0.24682690350E+02  0.40659141193E+02  0.00000000000E+00 0. -1.
         11    1    3    3    0    0 -0.55130997619E+01  0.48153026240E+01  0.15917669430E+01  0.74910033111E+01  0.51100000000E-03 0. -1.
        -11    1    3    3    0    0 -0.46717271373E+01 -0.22189589342E+02  0.20481157116E+02  0.30556189335E+02  0.51100000000E-03 0.  1.
        -12    1    3    3    0    0 -0.51306245641E+01 -0.11075098269E+02  0.26097662907E+01  0.12481666161E+02  0.00000000000E+00 0.  1.
</event>
<event>
 7    1  0.2942034E-011  0.5052886E+02  0.7816164E-02  0.1300439E+00
        -11   -1    0    0    0    0  0.00000000000E+00  0.00000000000E+00  0.45593999997E+02  0.45594000000E+02  0.51100000000E-03 0.  1.
         11   -1    0    0    0    0 -0.00000000000E+00 -0.00000000000E+00 -0.45593999997E+02  0.45594000000E+02  0.51100000000E-03 0. -1.
    9900012    2    1    2    0    0 -0.31836620751E+02  0.87573146031E+00  0.25275055116E+02  0.50528859115E+02  0.29999997765E+02 0.  0.
         12    1    1    2    0    0  0.31836620751E+02 -0.87573146031E+00 -0.25275055116E+02  0.40659140885E+02  0.00000000000E+00 0. -1.
         11    1    3    3    0    0  0.27692296034E+01 -0.32230321383E+01 -0.24517356103E+01  0.49058716376E+01  0.51100000000E-03 0. -1.
        -11    1    3    3    0    0 -0.13296141796E+02 -0.24330904173E+01  0.13929493919E+02  0.19409742830E+02  0.51100000000E-03 0.  1.
         12    1    3    3    0    0 -0.21309708559E+02  0.65318540159E+01  0.13797296807E+02  0.26213244647E+02  0.00000000000E+00 0. -1.
</event>
<event>
 7    1  0.2942034E-011  0.5052887E+02  0.7816164E-02  0.1300439E+00
        -11   -1    0    0    0    0  0.00000000000E+00  0.00000000000E+00  0.45593999997E+02  0.45594000000E+02  0.51100000000E-03 0. -1.
         11   -1    0    0    0    0 -0.00000000000E+00 -0.00000000000E+00 -0.45593999997E+02  0.45594000000E+02  0.51100000000E-03 0.  1.
    9900012    2    1    2    0    0 -0.31653804567E+02 -0.14076823211E+02 -0.21284844331E+02  0.50528869494E+02  0.30000029314E+02 0.  0.
         12    1    1    2    0    0  0.31653804567E+02  0.14076823211E+02  0.21284844331E+02  0.40659130506E+02  0.00000000000E+00 0. -1.
         11    1    3    3    0    0 -0.87098702640E+01 -0.18630110782E+01 -0.14500980216E+02  0.17017963385E+02  0.51100000000E-03 0. -1.
        -11    1    3    3    0    0 -0.20821364182E+02 -0.14224520349E+02 -0.11694193782E+02  0.27796049252E+02  0.51100000000E-03 0.  1.
         12    1    3    3    0    0 -0.21225701214E+01  0.20107082163E+01  0.49103296673E+01  0.57148568567E+01  0.00000000000E+00 0. -1.
</event>
<event>
 7    1  0.2942034E-011  0.5052889E+02  0.7816164E-02  0.1300439E+00
        -11   -1    0    0    0    0  0.00000000000E+00  0.00000000000E+00  0.45593999997E+02  0.45594000000E+02  0.51100000000E-03 0. -1.
         11   -1    0    0    0    0 -0.00000000000E+00 -0.00000000000E+00 -0.45593999997E+02  0.45594000000E+02  0.51100000000E-03 0.  1.
    9900012    2    1    2    0    0 -0.20051087073E+02 -0.31084537078E+02 -0.16878052688E+02  0.50528890311E+02  0.30000092590E+02 0.  0.
         12    1    1    2    0    0  0.20051087073E+02  0.31084537078E+02  0.16878052688E+02  0.40659109689E+02  0.00000000000E+00 0. -1.
         11    1    3    3    0    0  0.15599764702E+01  0.39301118577E+01  0.33326720677E+00  0.42415059936E+01  0.51100000000E-03 0. -1.
        -11    1    3    3    0    0 -0.17456625703E+02 -0.17888853506E+02 -0.12978971522E+02  0.28163781045E+02  0.51100000000E-03 0.  1.
         12    1    3    3    0    0 -0.41544378406E+01 -0.17125795429E+02 -0.42323483724E+01  0.18123603273E+02  0.00000000000E+00 0. -1.
</event>
<event>
 7    1  0.2942034E-011  0.5052890E+02  0.7816164E-02  0.1300439E+00
        -11   -1    0    0    0    0  0.00000000000E+00  0.00000000000E+00  0.45593999997E+02  0.45594000000E+02  0.51100000000E-03 0. -1.
         11   -1    0    0    0    0 -0.00000000000E+00 -0.00000000000E+00 -0.45593999997E+02  0.45594000000E+02  0.51100000000E-03 0.  1.
    9900012    2    1    2    0    0  0.67535897294E+01  0.34277884285E+02 -0.20798505592E+02  0.50528903107E+02  0.30000131483E+02 0.  0.
         12    1    1    2    0    0 -0.67535897294E+01 -0.34277884285E+02  0.20798505592E+02  0.40659096893E+02  0.00000000000E+00 0. -1.
         11    1    3    3    0    0  0.54354131776E+01  0.95097139080E+01  0.24254348346E+01  0.11218783776E+02  0.51100000000E-03 0. -1.
        -11    1    3    3    0    0  0.23530121743E+01  0.63602441169E+00 -0.12753026989E+02  0.12983870416E+02  0.51100000000E-03 0.  1.
        -12    1    3    3    0    0 -0.10348356225E+01  0.24132145966E+02 -0.10470913438E+02  0.26326248914E+02  0.00000000000E+00 0.  1.
</event>
<event>
 7    1  0.2942034E-011  0.5052885E+02  0.7816164E-02  0.1300439E+00
        -11   -1    0    0    0    0  0.00000000000E+00  0.00000000000E+00  0.45593999997E+02  0.45594000000E+02  0.51100000000E-03 0.  1.
         11   -1    0    0    0    0 -0.00000000000E+00 -0.00000000000E+00 -0.45593999997E+02  0.45594000000E+02  0.51100000000E-03 0. -1.
    9900012    2    1    2    0    0  0.26077374155E+02 -0.22582824377E+02  0.21520988021E+02  0.50528851889E+02  0.29999975802E+02 0.  0.
         12    1    1    2    0    0 -0.26077374155E+02  0.22582824377E+02 -0.21520988021E+02  0.40659148111E+02  0.00000000000E+00 0. -1.
         11    1    3    3    0    0  0.57098616820E+01  0.35677605970E+01  0.51705989323E+01  0.84892007684E+01  0.51100000000E-03 0. -1.
        -11    1    3    3    0    0  0.23313289236E+02 -0.23845435894E+02  0.18062626864E+02  0.37925885059E+02  0.51100000000E-03 0.  1.
        -12    1    3    3    0    0 -0.29457767630E+01 -0.23051490800E+01 -0.17122377745E+01  0.41137660623E+01  0.00000000000E+00 0.  1.
</event>
<event>
 7    1  0.2942034E-011  0.5052887E+02  0.7816164E-02  0.1300439E+00
        -11   -1    0    0    0    0  0.00000000000E+00  0.00000000000E+00  0.45593999997E+02  0.45594000000E+02  0.51100000000E-03 0. -1.
         11   -1    0    0    0    0 -0.00000000000E+00 -0.00000000000E+00 -0.45593999997E+02  0.45594000000E+02  0.51100000000E-03 0.  1.
    9900012    2    1    2    0    0  0.28455165523E+01 -0.36569158506E+02  0.17543230225E+02  0.50528865171E+02  0.30000016175E+02 0.  0.
         12    1    1    2    0    0 -0.28455165523E+01  0.36569158506E+02 -0.17543230225E+02  0.40659134829E+02  0.00000000000E+00 0. -1.
         11    1    3    3    0    0  0.95968201541E+01 -0.16891137655E+02  0.10610428833E+02  0.22135733298E+02  0.51100000000E-03 0. -1.
        -11    1    3    3    0    0 -0.69183801169E+01  0.42816513572E+00 -0.51613803342E+00  0.69508062522E+01  0.51100000000E-03 0.  1.
        -12    1    3    3    0    0  0.16707651511E+00 -0.20106185987E+02  0.74489394255E+01  0.21442325621E+02  0.00000000000E+00 0.  1.
</event>
<event>
 7    1  0.2942034E-011  0.5052886E+02  0.7816164E-02  0.1300439E+00
        -11   -1    0    0    0    0  0.00000000000E+00  0.00000000000E+00  0.45593999997E+02  0.45594000000E+02  0.51100000000E-03 0. -1.
         11   -1    0    0    0    0 -0.00000000000E+00 -0.00000000000E+00 -0.45593999997E+02  0.45594000000E+02  0.51100000000E-03 0.  1.
    9900012    2    1    2    0    0 -0.13991219995E+02  0.22257850131E+02 -0.31016112280E+02  0.50528863875E+02  0.30000012236E+02 0.  0.
         12    1    1    2    0    0  0.13991219995E+02 -0.22257850131E+02  0.31016112280E+02  0.40659136125E+02  0.00000000000E+00 0. -1.
         11    1    3    3    0    0  0.34868948816E+01  0.12314334139E+02 -0.26219781994E+02  0.29176672690E+02  0.51100000000E-03 0. -1.
        -11    1    3    3    0    0 -0.55962062181E+01  0.37251343679E+01  0.89840947925E+00  0.67824250787E+01  0.51100000000E-03 0.  1.
         12    1    3    3    0    0 -0.11881908659E+02  0.62183816239E+01 -0.56947397655E+01  0.14569766106E+02  0.00000000000E+00 0. -1.
</event>
<event>
 7    1  0.2942034E-011  0.5052886E+02  0.7816164E-02  0.1300439E+00
        -11   -1    0    0    0    0  0.00000000000E+00  0.00000000000E+00  0.45593999997E+02  0.45594000000E+02  0.51100000000E-03 0.  1.
         11   -1    0    0    0    0 -0.00000000000E+00 -0.00000000000E+00 -0.45593999997E+02  0.45594000000E+02  0.51100000000E-03 0. -1.
    9900012    2    1    2    0    0 -0.17164861164E+02  0.30415612683E+02  0.20818826737E+02  0.50528862031E+02  0.30000006630E+02 0.  0.
         12    1    1    2    0    0  0.17164861164E+02 -0.30415612683E+02 -0.20818826737E+02  0.40659137969E+02  0.00000000000E+00 0. -1.
         11    1    3    3    0    0 -0.18377278237E+02  0.30701083520E+02  0.16006899591E+02  0.39198236177E+02  0.51100000000E-03 0. -1.
        -11    1    3    3    0    0 -0.24820084005E+01 -0.39533497624E+01  0.75061477901E+00  0.47278708582E+01  0.51100000000E-03 0.  1.
         12    1    3    3    0    0  0.36944254727E+01  0.36678789257E+01  0.40613123673E+01  0.66027549956E+01  0.00000000000E+00 0. -1.
</event>
<event>
 7    1  0.2942034E-011  0.5052886E+02  0.7816164E-02  0.1300439E+00
        -11   -1    0    0    0    0  0.00000000000E+00  0.00000000000E+00  0.45593999997E+02  0.45594000000E+02  0.51100000000E-03 0.  1.
         11   -1    0    0    0    0 -0.00000000000E+00 -0.00000000000E+00 -0.45593999997E+02  0.45594000000E+02  0.51100000000E-03 0. -1.
    9900012    2    1    2    0    0 -0.31272879731E+02  0.48763653300E+01  0.25522417581E+02  0.50528859027E+02  0.29999997499E+02 0.  0.
         12    1    1    2    0    0  0.31272879731E+02 -0.48763653300E+01 -0.25522417581E+02  0.40659140973E+02  0.00000000000E+00 0. -1.
         11    1    3    3    0    0 -0.57915059884E+01  0.61837669192E+01 -0.41291891362E+01  0.94250049394E+01  0.51100000000E-03 0. -1.
        -11    1    3    3    0    0 -0.96046775131E+01  0.39887322168E+01  0.17730645564E+02  0.20555670926E+02  0.51100000000E-03 0.  1.
         12    1    3    3    0    0 -0.15876696229E+02 -0.52961338060E+01  0.11920961153E+02  0.20548183162E+02  0.00000000000E+00 0. -1.
</event>
<event>
 7    1  0.2942034E-011  0.5052886E+02  0.7816164E-02  0.1300439E+00
        -11   -1    0    0    0    0  0.00000000000E+00  0.00000000000E+00  0.45593999997E+02  0.45594000000E+02  0.51100000000E-03 0.  1.
         11   -1    0    0    0    0 -0.00000000000E+00 -0.00000000000E+00 -0.45593999997E+02  0.45594000000E+02  0.51100000000E-03 0. -1.
    9900012    2    1    2    0    0 -0.11769458227E+02  0.24154864189E+02  0.30515376692E+02  0.50528858032E+02  0.29999994473E+02 0.  0.
         12    1    1    2    0    0  0.11769458227E+02 -0.24154864189E+02 -0.30515376692E+02  0.40659141968E+02  0.00000000000E+00 0. -1.
         11    1    3    3    0    0 -0.18084436828E+02  0.11052373419E+02  0.11596341830E+02  0.24159407230E+02  0.51100000000E-03 0. -1.
        -11    1    3    3    0    0  0.33724245309E+00  0.11182047574E+02  0.79280602628E+01  0.13711530192E+02  0.51100000000E-03 0.  1.
         12    1    3    3    0    0  0.59777361484E+01  0.19204431964E+01  0.10990974599E+02  0.12657920610E+02  0.00000000000E+00 0. -1.
</event>
<event>
 7    1  0.2942034E-011  0.5052886E+02  0.7816164E-02  0.1300439E+00
        -11   -1    0    0    0    0  0.00000000000E+00  0.00000000000E+00  0.45593999997E+02  0.45594000000E+02  0.51100000000E-03 0. -1.
         11   -1    0    0    0    0 -0.00000000000E+00 -0.00000000000E+00 -0.45593999997E+02  0.45594000000E+02  0.51100000000E-03 0.  1.
    9900012    2    1    2    0    0  0.28255125694E+02  0.28978341776E+02 -0.38819018056E+01  0.50528861031E+02  0.30000003589E+02 0.  0.
         12    1    1    2    0    0 -0.28255125694E+02 -0.28978341776E+02  0.38819018056E+01  0.40659138969E+02  0.00000000000E+00 0. -1.
         11    1    3    3    0    0  0.29894561835E+01 -0.40793635292E+01  0.44461067200E+01  0.67339379492E+01  0.51100000000E-03 0. -1.
        -11    1    3    3    0    0  0.21345147527E+02  0.19608349674E+02 -0.58197948846E+01  0.29563029490E+02  0.51100000000E-03 0.  1.
         12    1    3    3    0    0  0.39205219834E+01  0.13449355632E+02 -0.25082136410E+01  0.14231893591E+02  0.00000000000E+00 0. -1.
</event>
<event>
 7    1  0.2942034E-011  0.5052885E+02  0.7816164E-02  0.1300439E+00
        -11   -1    0    0    0    0  0.00000000000E+00  0.00000000000E+00  0.45593999997E+02  0.45594000000E+02  0.51100000000E-03 0.  1.
         11   -1    0    0    0    0 -0.00000000000E+00 -0.00000000000E+00 -0.45593999997E+02  0.45594000000E+02  0.51100000000E-03 0. -1.
    9900012    2    1    2    0    0  0.69400338345E+01 -0.97948989413E-02  0.40062478472E+02  0.50528851621E+02  0.29999974987E+02 0.  0.
         12    1    1    2    0    0 -0.69400338345E+01  0.97948989413E-02 -0.40062478472E+02  0.40659148379E+02  0.00000000000E+00 0. -1.
         11    1    3    3    0    0  0.70355197558E+01  0.15136606215E+01  0.27407241961E+02  0.28336312726E+02  0.51100000000E-03 0.  1.
        -11    1    3    3    0    0 -0.68861950728E+01 -0.12231574669E+01 -0.87728868168E+00  0.70487894324E+01  0.51100000000E-03 0. -1.
         12    1    3    3    0    0  0.67907091516E+01 -0.30029805354E+00  0.13532525193E+02  0.15143749463E+02  0.00000000000E+00 0. -1.
</event>
<event>
 7    1  0.2942034E-011  0.5052886E+02  0.7816164E-02  0.1300439E+00
        -11   -1    0    0    0    0  0.00000000000E+00  0.00000000000E+00  0.45593999997E+02  0.45594000000E+02  0.51100000000E-03 0. -1.
         11   -1    0    0    0    0 -0.00000000000E+00 -0.00000000000E+00 -0.45593999997E+02  0.45594000000E+02  0.51100000000E-03 0.  1.
    9900012    2    1    2    0    0 -0.16987008385E+02  0.31064615801E+02 -0.19989913884E+02  0.50528862456E+02  0.30000007921E+02 0.  0.
         12    1    1    2    0    0  0.16987008385E+02 -0.31064615801E+02  0.19989913884E+02  0.40659137544E+02  0.00000000000E+00 0. -1.
         11    1    3    3    0    0  0.13125141746E+01  0.70687849925E+01 -0.45750673718E+01  0.85218341011E+01  0.51100000000E-03 0. -1.
        -11    1    3    3    0    0 -0.20292326764E+02  0.21664216330E+02 -0.20495793220E+02  0.36072071394E+02  0.51100000000E-03 0.  1.
        -12    1    3    3    0    0  0.19928042045E+01  0.23316144791E+01  0.50809467079E+01  0.59349569607E+01  0.00000000000E+00 0.  1.
</event>
<event>
 7    1  0.2942034E-011  0.5052886E+02  0.7816164E-02  0.1300439E+00
        -11   -1    0    0    0    0  0.00000000000E+00  0.00000000000E+00  0.45593999997E+02  0.45594000000E+02  0.51100000000E-03 0.  1.
         11   -1    0    0    0    0 -0.00000000000E+00 -0.00000000000E+00 -0.45593999997E+02  0.45594000000E+02  0.51100000000E-03 0. -1.
    9900012    2    1    2    0    0  0.82602482601E+01 -0.36661288494E+02  0.15520426289E+02  0.50528863172E+02  0.30000010099E+02 0.  0.
         12    1    1    2    0    0 -0.82602482601E+01  0.36661288494E+02 -0.15520426289E+02  0.40659136828E+02  0.00000000000E+00 0. -1.
         11    1    3    3    0    0 -0.90059387777E+00 -0.48513040082E+01 -0.46358484227E+01  0.67703257508E+01  0.51100000000E-03 0. -1.
        -11    1    3    3    0    0  0.14294595562E+02 -0.29601171953E+02  0.14917932233E+02  0.36098608639E+02  0.51100000000E-03 0.  1.
        -12    1    3    3    0    0 -0.51337534246E+01 -0.22088125327E+01  0.52383424790E+01  0.76599287827E+01  0.00000000000E+00 0.  1.
</event>
<event>
 7    1  0.2942034E-011  0.5052886E+02  0.7816164E-02  0.1300439E+00
        -11   -1    0    0    0    0  0.00000000000E+00  0.00000000000E+00  0.45593999997E+02  0.45594000000E+02  0.51100000000E-03 0.  1.
         11   -1    0    0    0    0 -0.00000000000E+00 -0.00000000000E+00 -0.45593999997E+02  0.45594000000E+02  0.51100000000E-03 0. -1.
    9900012    2    1    2    0    0 -0.33561103970E+02 -0.86383702237E+01  0.21264904938E+02  0.50528864227E+02  0.30000013304E+02 0.  0.
         12    1    1    2    0    0  0.33561103970E+02  0.86383702237E+01 -0.21264904938E+02  0.40659135773E+02  0.00000000000E+00 0. -1.
         11    1    3    3    0    0 -0.15337956817E+02 -0.28747007941E+01 -0.11877945771E+01  0.15650165500E+02  0.51100000000E-03 0. -1.
        -11    1    3    3    0    0 -0.11192000836E+02 -0.12453755987E+02  0.16418196283E+02  0.23450247128E+02  0.51100000000E-03 0.  1.
        -12    1    3    3    0    0 -0.70311463170E+01  0.66900865579E+01  0.60345032323E+01  0.11428451599E+02  0.00000000000E+00 0.  1.
</event>
<event>
 7    1  0.2942034E-011  0.5052886E+02  0.7816164E-02  0.1300439E+00
        -11   -1    0    0    0    0  0.00000000000E+00  0.00000000000E+00  0.45593999997E+02  0.45594000000E+02  0.51100000000E-03 0.  1.
         11   -1    0    0    0    0 -0.00000000000E+00 -0.00000000000E+00 -0.45593999997E+02  0.45594000000E+02  0.51100000000E-03 0. -1.
    9900012    2    1    2    0    0 -0.73728396208E+01  0.30155826182E+02  0.26257055601E+02  0.50528860983E+02  0.30000003443E+02 0.  0.
         12    1    1    2    0    0  0.73728396208E+01 -0.30155826182E+02 -0.26257055601E+02  0.40659139017E+02  0.00000000000E+00 0. -1.
         11    1    3    3    0    0  0.32987489296E+01 -0.51839940353E+00  0.23752459165E+01  0.40978379503E+01  0.51100000000E-03 0. -1.
        -11    1    3    3    0    0 -0.84065929776E+01  0.93031230879E+01 -0.20995844259E+01  0.12713267074E+02  0.51100000000E-03 0.  1.
        -12    1    3    3    0    0 -0.22649955727E+01  0.21371102498E+02  0.25981394110E+02  0.33717755958E+02  0.00000000000E+00 0.  1.
</event>
<event>
 7    1  0.2942034E-011  0.5052888E+02  0.7816164E-02  0.1300439E+00
        -11   -1    0    0    0    0  0.00000000000E+00  0.00000000000E+00  0.45593999997E+02  0.45594000000E+02  0.51100000000E-03 0.  1.
         11   -1    0    0    0    0 -0.00000000000E+00 -0.00000000000E+00 -0.45593999997E+02  0.45594000000E+02  0.51100000000E-03 0. -1.
    9900012    2    1    2    0    0 -0.93665077756E+01 -0.29679826758E+01  0.39454071800E+02  0.50528878382E+02  0.30000056331E+02 0.  0.
         12    1    1    2    0    0  0.93665077756E+01  0.29679826758E+01 -0.39454071800E+02  0.40659121618E+02  0.00000000000E+00 0. -1.
         11    1    3    3    0    0 -0.84874791296E+01  0.62517655886E+01  0.25201957185E+02  0.27317769330E+02  0.51100000000E-03 0. -1.
        -11    1    3    3    0    0 -0.27780288296E+01 -0.73018635260E+01 -0.86019342807E+00  0.78596811720E+01  0.51100000000E-03 0.  1.
        -12    1    3    3    0    0  0.18990001836E+01 -0.19178847385E+01  0.15112308044E+02  0.15351427881E+02  0.00000000000E+00 0.  1.
</event>
<event>
 7    1  0.2942034E-011  0.5052886E+02  0.7816164E-02  0.1300439E+00
        -11   -1    0    0    0    0  0.00000000000E+00  0.00000000000E+00  0.45593999997E+02  0.45594000000E+02  0.51100000000E-03 0.  1.
         11   -1    0    0    0    0 -0.00000000000E+00 -0.00000000000E+00 -0.45593999997E+02  0.45594000000E+02  0.51100000000E-03 0. -1.
    9900012    2    1    2    0    0  0.17304980683E+02 -0.25801441784E+02  0.26229545961E+02  0.50528857905E+02  0.29999994089E+02 0.  0.
         12    1    1    2    0    0 -0.17304980683E+02  0.25801441784E+02 -0.26229545961E+02  0.40659142095E+02  0.00000000000E+00 0. -1.
         11    1    3    3    0    0 -0.87490713848E+00 -0.80130534529E+01  0.20653487495E+02  0.22170724709E+02  0.51100000000E-03 0. -1.
        -11    1    3    3    0    0  0.12939642411E+02 -0.51944650660E+01  0.46003384987E+01  0.14682640349E+02  0.51100000000E-03 0.  1.
         12    1    3    3    0    0  0.52402454103E+01 -0.12593923265E+02  0.97571996690E+00  0.13675492847E+02  0.00000000000E+00 0. -1.
</event>
<event>
 7    1  0.2942034E-011  0.5052886E+02  0.7816164E-02  0.1300439E+00
        -11   -1    0    0    0    0  0.00000000000E+00  0.00000000000E+00  0.45593999997E+02  0.45594000000E+02  0.51100000000E-03 0. -1.
         11   -1    0    0    0    0 -0.00000000000E+00 -0.00000000000E+00 -0.45593999997E+02  0.45594000000E+02  0.51100000000E-03 0.  1.
    9900012    2    1    2    0    0  0.12456247734E+02 -0.23719394575E+02 -0.30584276083E+02  0.50528859206E+02  0.29999998041E+02 0.  0.
         12    1    1    2    0    0 -0.12456247734E+02  0.23719394575E+02  0.30584276083E+02  0.40659140794E+02  0.00000000000E+00 0. -1.
         11    1    3    3    0    0  0.13764239982E+02 -0.76981585275E+01 -0.14929529105E+01  0.15841239082E+02  0.51100000000E-03 0. -1.
        -11    1    3    3    0    0  0.14203467528E+01 -0.65068759531E+00  0.11973262245E+00  0.15668807890E+01  0.51100000000E-03 0.  1.
         12    1    3    3    0    0 -0.27283390005E+01 -0.15370548452E+02 -0.29211055795E+02  0.33120739335E+02  0.00000000000E+00 0. -1.
</event>
<event>
 7    1  0.2942034E-011  0.5052885E+02  0.7816164E-02  0.1300439E+00
        -11   -1    0    0    0    0  0.00000000000E+00  0.00000000000E+00  0.45593999997E+02  0.45594000000E+02  0.51100000000E-03 0. -1.
         11   -1    0    0    0    0 -0.00000000000E+00 -0.00000000000E+00 -0.45593999997E+02  0.45594000000E+02  0.51100000000E-03 0.  1.
    9900012    2    1    2    0    0  0.47493221262E+01  0.31767609806E+01 -0.40255665002E+02  0.50528850528E+02  0.29999971666E+02 0.  0.
         12    1    1    2    0    0 -0.47493221262E+01 -0.31767609806E+01  0.40255665002E+02  0.40659149472E+02  0.00000000000E+00 0. -1.
         11    1    3    3    0    0  0.12671397666E+01 -0.11016656553E+02 -0.18448753986E+02  0.21525075812E+02  0.51100000000E-03 0. -1.
        -11    1    3    3    0    0  0.34520498774E+01  0.66139773945E+01 -0.18942524974E+01  0.76973721565E+01  0.51100000000E-03 0.  1.
        -12    1    3    3    0    0  0.30132482242E-01  0.75794401390E+01 -0.19912658518E+02  0.21306402560E+02  0.00000000000E+00 0.  1.
</event>
<event>
 7    1  0.2942034E-011  0.5052885E+02  0.7816164E-02  0.1300439E+00
        -11   -1    0    0    0    0  0.00000000000E+00  0.00000000000E+00  0.45593999997E+02  0.45594000000E+02  0.51100000000E-03 0.  1.
         11   -1    0    0    0    0 -0.00000000000E+00 -0.00000000000E+00 -0.45593999997E+02  0.45594000000E+02  0.51100000000E-03 0. -1.
    9900012    2    1    2    0    0  0.26219826923E+02  0.21833676901E+02  0.22112838656E+02  0.50528850915E+02  0.29999972840E+02 0.  0.
         12    1    1    2    0    0 -0.26219826923E+02 -0.21833676901E+02 -0.22112838656E+02  0.40659149085E+02  0.00000000000E+00 0. -1.
         11    1    3    3    0    0  0.37518451886E+00  0.21731387617E+00  0.74399509052E+01  0.74525739498E+01  0.51100000000E-03 0. -1.
        -11    1    3    3    0    0  0.26183261826E+02  0.21908194894E+02  0.63304229182E+01  0.34721844103E+02  0.51100000000E-03 0.  1.
        -12    1    3    3    0    0 -0.33861942128E+00 -0.29183186942E+00  0.83424648328E+01  0.83544328616E+01  0.00000000000E+00 0.  1.
</event>
<event>
 7    1  0.2942034E-011  0.5052887E+02  0.7816164E-02  0.1300439E+00
        -11   -1    0    0    0    0  0.00000000000E+00  0.00000000000E+00  0.45593999997E+02  0.45594000000E+02  0.51100000000E-03 0.  1.
         11   -1    0    0    0    0 -0.00000000000E+00 -0.00000000000E+00 -0.45593999997E+02  0.45594000000E+02  0.51100000000E-03 0. -1.
    9900012    2    1    2    0    0  0.59525670377E+01 -0.16021570211E+02  0.36892294412E+02  0.50528866299E+02  0.30000019602E+02 0.  0.
         12    1    1    2    0    0 -0.59525670377E+01  0.16021570211E+02 -0.36892294412E+02  0.40659133701E+02  0.00000000000E+00 0. -1.
         11    1    3    3    0    0 -0.14795892498E+01 -0.78520735897E+01 -0.22368951284E+01  0.82974661242E+01  0.51100000000E-03 0. -1.
        -11    1    3    3    0    0  0.79475031553E+01 -0.10495181991E+02  0.35750734657E+02  0.38097594152E+02  0.51100000000E-03 0.  1.
        -12    1    3    3    0    0 -0.51534686777E+00  0.23256853698E+01  0.33784548834E+01  0.41338060226E+01  0.00000000000E+00 0.  1.
</event>
<event>
 7    1  0.2942034E-011  0.5052886E+02  0.7816164E-02  0.1300439E+00
        -11   -1    0    0    0    0  0.00000000000E+00  0.00000000000E+00  0.45593999997E+02  0.45594000000E+02  0.51100000000E-03 0. -1.
         11   -1    0    0    0    0 -0.00000000000E+00 -0.00000000000E+00 -0.45593999997E+02  0.45594000000E+02  0.51100000000E-03 0.  1.
    9900012    2    1    2    0    0  0.21081669213E+02  0.27909401729E+02 -0.20731481937E+02  0.50528858039E+02  0.29999994496E+02 0.  0.
         12    1    1    2    0    0 -0.21081669213E+02 -0.27909401729E+02  0.20731481937E+02  0.40659141961E+02  0.00000000000E+00 0. -1.
         11    1    3    3    0    0  0.31782478865E+01  0.12206569535E+02 -0.21592658922E+02  0.25006889431E+02  0.51100000000E-03 0. -1.
        -11    1    3    3    0    0  0.17281144683E+02  0.13386002837E+02  0.32932452866E+01  0.22105847604E+02  0.51100000000E-03 0.  1.
        -12    1    3    3    0    0  0.62227664370E+00  0.23168293569E+01 -0.24320683020E+01  0.34161210043E+01  0.00000000000E+00 0.  1.
</event>
<event>
 7    1  0.2942034E-011  0.5052886E+02  0.7816164E-02  0.1300439E+00
        -11   -1    0    0    0    0  0.00000000000E+00  0.00000000000E+00  0.45593999997E+02  0.45594000000E+02  0.51100000000E-03 0. -1.
         11   -1    0    0    0    0 -0.00000000000E+00 -0.00000000000E+00 -0.45593999997E+02  0.45594000000E+02  0.51100000000E-03 0.  1.
    9900012    2    1    2    0    0 -0.10640196772E+02 -0.37021396007E+02  0.13014155430E+02  0.50528858454E+02  0.29999995758E+02 0.  0.
         12    1    1    2    0    0  0.10640196772E+02  0.37021396007E+02 -0.13014155430E+02  0.40659141546E+02  0.00000000000E+00 0. -1.
         11    1    3    3    0    0  0.33599152720E+01 -0.13571996762E+02  0.13004084626E+02  0.19094353719E+02  0.51100000000E-03 0. -1.
        -11    1    3    3    0    0 -0.79075726515E+01 -0.24018533327E+02  0.54021113601E+00  0.25292518197E+02  0.51100000000E-03 0.  1.
        -12    1    3    3    0    0 -0.60925393929E+01  0.56913408221E+00 -0.53014033187E+00  0.61419865377E+01  0.00000000000E+00 0.  1.
</event>
<event>
 7    1  0.2942034E-011  0.5052886E+02  0.7816164E-02  0.1300439E+00
        -11   -1    0    0    0    0  0.00000000000E+00  0.00000000000E+00  0.45593999997E+02  0.45594000000E+02  0.51100000000E-03 0. -1.
         11   -1    0    0    0    0 -0.00000000000E+00 -0.00000000000E+00 -0.45593999997E+02  0.45594000000E+02  0.51100000000E-03 0.  1.
    9900012    2    1    2    0    0  0.31015115737E+02  0.12210217693E+02 -0.23283869113E+02  0.50528863497E+02  0.30000011086E+02 0.  0.
         12    1    1    2    0    0 -0.31015115737E+02 -0.12210217693E+02  0.23283869113E+02  0.40659136503E+02  0.00000000000E+00 0. -1.
         11    1    3    3    0    0  0.22742262011E+02  0.13035130038E+01 -0.13828527451E+02  0.26648410820E+02  0.51100000000E-03 0. -1.
        -11    1    3    3    0    0 -0.19195377114E+01 -0.24431968684E+01  0.18667557518E+01  0.36247225082E+01  0.51100000000E-03 0.  1.
        -12    1    3    3    0    0  0.10192391438E+02  0.13349901558E+02 -0.11322097414E+02  0.20255730169E+02  0.00000000000E+00 0.  1.
</event>
<event>
 7    1  0.2942034E-011  0.5052887E+02  0.7816164E-02  0.1300439E+00
        -11   -1    0    0    0    0  0.00000000000E+00  0.00000000000E+00  0.45593999997E+02  0.45594000000E+02  0.51100000000E-03 0.  1.
         11   -1    0    0    0    0 -0.00000000000E+00 -0.00000000000E+00 -0.45593999997E+02  0.45594000000E+02  0.51100000000E-03 0. -1.
    9900012    2    1    2    0    0 -0.31825304393E+02  0.17696560228E+02  0.18087199578E+02  0.50528867788E+02  0.30000024130E+02 0.  0.
         12    1    1    2    0    0  0.31825304393E+02 -0.17696560228E+02 -0.18087199578E+02  0.40659132212E+02  0.00000000000E+00 0. -1.
         11    1    3    3    0    0 -0.84754951080E+01 -0.25714884589E+01 -0.33772997351E+01  0.94790676747E+01  0.51100000000E-03 0. -1.
        -11    1    3    3    0    0 -0.21716120687E+02  0.18742662775E+02  0.11612049497E+02  0.30947003076E+02  0.51100000000E-03 0.  1.
         12    1    3    3    0    0 -0.16336885987E+01  0.15253859119E+01  0.98524498159E+01  0.10102797038E+02  0.00000000000E+00 0. -1.
</event>
<event>
 7    1  0.2942034E-011  0.5052885E+02  0.7816164E-02  0.1300439E+00
        -11   -1    0    0    0    0  0.00000000000E+00  0.00000000000E+00  0.45593999997E+02  0.45594000000E+02  0.51100000000E-03 0.  1.
         11   -1    0    0    0    0 -0.00000000000E+00 -0.00000000000E+00 -0.45593999997E+02  0.45594000000E+02  0.51100000000E-03 0. -1.
    9900012    2    1    2    0    0 -0.20631778466E+02  0.24694857544E+02  0.24852762767E+02  0.50528854793E+02  0.29999984629E+02 0.  0.
         12    1    1    2    0    0  0.20631778466E+02 -0.24694857544E+02 -0.24852762767E+02  0.40659145207E+02  0.00000000000E+00 0. -1.
         11    1    3    3    0    0 -0.24016753561E+02  0.28643992103E+02  0.19839307025E+02  0.42318800062E+02  0.51100000000E-03 0. -1.
        -11    1    3    3    0    0  0.29352712285E+01 -0.32753974053E+01  0.15659206654E+01  0.46686350403E+01  0.51100000000E-03 0.  1.
         12    1    3    3    0    0  0.44970386660E+00 -0.67373715334E+00  0.34475350769E+01  0.35414196907E+01  0.00000000000E+00 0. -1.
</event>
<event>
 7    1  0.2942034E-011  0.5052886E+02  0.7816164E-02  0.1300439E+00
        -11   -1    0    0    0    0  0.00000000000E+00  0.00000000000E+00  0.45593999997E+02  0.45594000000E+02  0.51100000000E-03 0.  1.
         11   -1    0    0    0    0 -0.00000000000E+00 -0.00000000000E+00 -0.45593999997E+02  0.45594000000E+02  0.51100000000E-03 0. -1.
    9900012    2    1    2    0    0  0.36279046397E+01 -0.18861160484E+02  0.35836577738E+02  0.50528863624E+02  0.30000011470E+02 0.  0.
         12    1    1    2    0    0 -0.36279046397E+01  0.18861160484E+02 -0.35836577738E+02  0.40659136376E+02  0.00000000000E+00 0. -1.
         11    1    3    3    0    0 -0.81554957444E+00  0.25088081402E+01  0.61121919178E+01  0.66571863196E+01  0.51100000000E-03 0. -1.
        -11    1    3    3    0    0 -0.15307900246E+00 -0.92275930922E+01 -0.21313478717E+01  0.94717765740E+01  0.51100000000E-03 0.  1.
        -12    1    3    3    0    0  0.45965332166E+01 -0.12142375532E+02  0.31855733692E+02  0.34399900730E+02  0.00000000000E+00 0.  1.
</event>
<event>
 7    1  0.2942034E-011  0.5052886E+02  0.7816164E-02  0.1300439E+00
        -11   -1    0    0    0    0  0.00000000000E+00  0.00000000000E+00  0.45593999997E+02  0.45594000000E+02  0.51100000000E-03 0.  1.
         11   -1    0    0    0    0 -0.00000000000E+00 -0.00000000000E+00 -0.45593999997E+02  0.45594000000E+02  0.51100000000E-03 0. -1.
    9900012    2    1    2    0    0  0.29040760142E+01  0.13988635297E+02  0.38066388779E+02  0.50528861671E+02  0.30000005534E+02 0.  0.
         12    1    1    2    0    0 -0.29040760142E+01 -0.13988635297E+02 -0.38066388779E+02  0.40659138329E+02  0.00000000000E+00 0. -1.
         11    1    3    3    0    0 -0.37692472501E-02  0.65066144081E+01  0.43487689831E+01  0.78260997433E+01  0.51100000000E-03 0. -1.
        -11    1    3    3    0    0  0.61559846159E+01 -0.61410753429E+01  0.24344056245E+02  0.25850377708E+02  0.51100000000E-03 0.  1.
        -12    1    3    3    0    0 -0.32481393545E+01  0.13623096232E+02  0.93735635515E+01  0.16852384219E+02  0.00000000000E+00 0.  1.
</event>
<event>
 7    1  0.2942034E-011  0.5052887E+02  0.7816164E-02  0.1300439E+00
        -11   -1    0    0    0    0  0.00000000000E+00  0.00000000000E+00  0.45593999997E+02  0.45594000000E+02  0.51100000000E-03 0. -1.
         11   -1    0    0    0    0 -0.00000000000E+00 -0.00000000000E+00 -0.45593999997E+02  0.45594000000E+02  0.51100000000E-03 0.  1.
    9900012    2    1    2    0    0  0.87777199057E+00 -0.37668863794E+02 -0.15279117500E+02  0.50528865544E+02  0.30000017306E+02 0.  0.
         12    1    1    2    0    0 -0.87777199057E+00  0.37668863794E+02  0.15279117500E+02  0.40659134456E+02  0.00000000000E+00 0. -1.
         11    1    3    3    0    0  0.10522528207E+01 -0.13411753915E+00  0.22473375925E+01  0.24851056374E+01  0.51100000000E-03 0. -1.
        -11    1    3    3    0    0 -0.77220470592E+01 -0.16285140683E+02 -0.18022424361E+02  0.25488106990E+02  0.51100000000E-03 0.  1.
        -12    1    3    3    0    0  0.75475662290E+01 -0.21249605572E+02  0.49596926891E+00  0.22555652916E+02  0.00000000000E+00 0.  1.
</event>
<event>
 7    1  0.2942034E-011  0.5052888E+02  0.7816164E-02  0.1300439E+00
        -11   -1    0    0    0    0  0.00000000000E+00  0.00000000000E+00  0.45593999997E+02  0.45594000000E+02  0.51100000000E-03 0.  1.
         11   -1    0    0    0    0 -0.00000000000E+00 -0.00000000000E+00 -0.45593999997E+02  0.45594000000E+02  0.51100000000E-03 0. -1.
    9900012    2    1    2    0    0  0.96498043946E+01  0.15606395015E+02  0.36283403338E+02  0.50528884811E+02  0.30000075870E+02 0.  0.
         12    1    1    2    0    0 -0.96498043946E+01 -0.15606395015E+02 -0.36283403338E+02  0.40659115189E+02  0.00000000000E+00 0. -1.
         11    1    3    3    0    0 -0.11541423724E+01  0.12354124701E+01 -0.16787893449E+01  0.23825663711E+01  0.51100000000E-03 0. -1.
        -11    1    3    3    0    0  0.11008849841E+02  0.19975377907E+02  0.24045168367E+02  0.33141825831E+02  0.51100000000E-03 0.  1.
        -12    1    3    3    0    0 -0.20490307411E+00 -0.56043953619E+01  0.13917024315E+02  0.15004492608E+02  0.00000000000E+00 0.  1.
</event>
<event>
 7    1  0.2942034E-011  0.5052886E+02  0.7816164E-02  0.1300439E+00
        -11   -1    0    0    0    0  0.00000000000E+00  0.00000000000E+00  0.45593999997E+02  0.45594000000E+02  0.51100000000E-03 0.  1.
         11   -1    0    0    0    0 -0.00000000000E+00 -0.00000000000E+00 -0.45593999997E+02  0.45594000000E+02  0.51100000000E-03 0. -1.
    9900012    2    1    2    0    0 -0.23974582782E+02 -0.18542510135E+02  0.27102776005E+02  0.50528858730E+02  0.29999996595E+02 0.  0.
         12    1    1    2    0    0  0.23974582782E+02  0.18542510135E+02 -0.27102776005E+02  0.40659141270E+02  0.00000000000E+00 0. -1.
         11    1    3    3    0    0 -0.20365512901E+02 -0.24612655338E+02  0.16686039608E+02  0.36041099270E+02  0.51100000000E-03 0. -1.
        -11    1    3    3    0    0 -0.28746552862E+00  0.51774872801E+01  0.96633727208E+01  0.10966758116E+02  0.51100000000E-03 0.  1.
         12    1    3    3    0    0 -0.33216043519E+01  0.89265792246E+00  0.75336367572E+00  0.35210013441E+01  0.00000000000E+00 0. -1.
</event>
<event>
 7    1  0.2942034E-011  0.5052888E+02  0.7816164E-02  0.1300439E+00
        -11   -1    0    0    0    0  0.00000000000E+00  0.00000000000E+00  0.45593999997E+02  0.45594000000E+02  0.51100000000E-03 0.  1.
         11   -1    0    0    0    0 -0.00000000000E+00 -0.00000000000E+00 -0.45593999997E+02  0.45594000000E+02  0.51100000000E-03 0. -1.
    9900012    2    1    2    0    0 -0.36330414542E+02 -0.11165550441E+02  0.14442833334E+02  0.50528880824E+02  0.30000063754E+02 0.  0.
         12    1    1    2    0    0  0.36330414542E+02  0.11165550441E+02 -0.14442833334E+02  0.40659119176E+02  0.00000000000E+00 0. -1.
         11    1    3    3    0    0 -0.80490880530E+01 -0.61515236174E+01 -0.35621906980E+01  0.10738634184E+02  0.51100000000E-03 0. -1.
        -11    1    3    3    0    0 -0.25516648998E+02 -0.12872964834E+01  0.21962677083E+02  0.33691478050E+02  0.51100000000E-03 0.  1.
        -12    1    3    3    0    0 -0.27646774908E+01 -0.37267303398E+01 -0.39576530504E+01  0.60987685905E+01  0.00000000000E+00 0.  1.
</event>
<event>
 7    1  0.2942034E-011  0.5052886E+02  0.7816164E-02  0.1300439E+00
        -11   -1    0    0    0    0  0.00000000000E+00  0.00000000000E+00  0.45593999997E+02  0.45594000000E+02  0.51100000000E-03 0.  1.
         11   -1    0    0    0    0 -0.00000000000E+00 -0.00000000000E+00 -0.45593999997E+02  0.45594000000E+02  0.51100000000E-03 0. -1.
    9900012    2    1    2    0    0 -0.13301776062E+02  0.20623254282E+02 -0.32417743753E+02  0.50528856211E+02  0.29999988940E+02 0.  0.
         12    1    1    2    0    0  0.13301776062E+02 -0.20623254282E+02  0.32417743753E+02  0.40659143789E+02  0.00000000000E+00 0. -1.
         11    1    3    3    0    0 -0.11518163817E+02  0.58783810223E+01 -0.30123148849E+02  0.32781512442E+02  0.51100000000E-03 0. -1.
        -11    1    3    3    0    0 -0.23397618744E+01  0.14888177723E+02 -0.42910783364E+01  0.15669897099E+02  0.51100000000E-03 0.  1.
         12    1    3    3    0    0  0.55614962894E+00 -0.14330446336E+00  0.19964834315E+01  0.20774466711E+01  0.00000000000E+00 0. -1.
</event>
<event>
 7    1  0.2942034E-011  0.5052882E+02  0.7816164E-02  0.1300439E+00
        -11   -1    0    0    0    0  0.00000000000E+00  0.00000000000E+00  0.45593999997E+02  0.45594000000E+02  0.51100000000E-03 0. -1.
         11   -1    0    0    0    0 -0.00000000000E+00 -0.00000000000E+00 -0.45593999997E+02  0.45594000000E+02  0.51100000000E-03 0.  1.
    9900012    2    1    2    0    0 -0.18176280355E+02 -0.19172053845E+02 -0.30906698461E+02  0.50528821136E+02  0.29999882324E+02 0.  0.
         12    1    1    2    0    0  0.18176280355E+02  0.19172053845E+02  0.30906698461E+02  0.40659178864E+02  0.00000000000E+00 0. -1.
         11    1    3    3    0    0 -0.34568103608E+01 -0.15437844443E+02 -0.98212828404E+01  0.18620799548E+02  0.51100000000E-03 0. -1.
        -11    1    3    3    0    0 -0.76177559618E+01  0.61688329263E+01 -0.32894365509E+01  0.10339492185E+02  0.51100000000E-03 0.  1.
        -12    1    3    3    0    0 -0.71017140322E+01 -0.99030423282E+01 -0.17795979069E+02  0.21568529402E+02  0.00000000000E+00 0.  1.
</event>
<event>
 7    1  0.2942034E-011  0.5052886E+02  0.7816164E-02  0.1300439E+00
        -11   -1    0    0    0    0  0.00000000000E+00  0.00000000000E+00  0.45593999997E+02  0.45594000000E+02  0.51100000000E-03 0. -1.
         11   -1    0    0    0    0 -0.00000000000E+00 -0.00000000000E+00 -0.45593999997E+02  0.45594000000E+02  0.51100000000E-03 0.  1.
    9900012    2    1    2    0    0 -0.33798815491E+02 -0.12570596072E+02  0.18782594656E+02  0.50528859869E+02  0.30000000058E+02 0.  0.
         12    1    1    2    0    0  0.33798815491E+02  0.12570596072E+02 -0.18782594656E+02  0.40659140131E+02  0.00000000000E+00 0. -1.
         11    1    3    3    0    0 -0.21653101651E+01 -0.35478268721E+01 -0.60438749986E+01  0.73351256898E+01  0.51100000000E-03 0. -1.
        -11    1    3    3    0    0 -0.23502638789E+02 -0.54799046561E+01  0.10443053328E+02  0.26295641239E+02  0.51100000000E-03 0.  1.
         12    1    3    3    0    0 -0.81308665364E+01 -0.35428645442E+01  0.14383416326E+02  0.16898092940E+02  0.00000000000E+00 0. -1.
</event>
<event>
 7    1  0.2942034E-011  0.5052889E+02  0.7816164E-02  0.1300439E+00
        -11   -1    0    0    0    0  0.00000000000E+00  0.00000000000E+00  0.45593999997E+02  0.45594000000E+02  0.51100000000E-03 0.  1.
         11   -1    0    0    0    0 -0.00000000000E+00 -0.00000000000E+00 -0.45593999997E+02  0.45594000000E+02  0.51100000000E-03 0. -1.
    9900012    2    1    2    0    0 -0.12893220765E+02  0.33954592070E+02  0.18276051266E+02  0.50528886456E+02  0.30000080870E+02 0.  0.
         12    1    1    2    0    0  0.12893220765E+02 -0.33954592070E+02 -0.18276051266E+02  0.40659113544E+02  0.00000000000E+00 0. -1.
         11    1    3    3    0    0  0.61562275593E+01  0.18498504795E+00 -0.17961262479E+01  0.64155613152E+01  0.51100000000E-03 0. -1.
        -11    1    3    3    0    0 -0.11810046610E+02  0.15684286606E+02  0.12114466572E+02  0.23070204764E+02  0.51100000000E-03 0.  1.
         12    1    3    3    0    0 -0.72394017140E+01  0.18085320416E+02  0.79577109413E+01  0.21043120376E+02  0.00000000000E+00 0. -1.
</event>
<event>
 7    1  0.2942034E-011  0.5052886E+02  0.7816164E-02  0.1300439E+00
        -11   -1    0    0    0    0  0.00000000000E+00  0.00000000000E+00  0.45593999997E+02  0.45594000000E+02  0.51100000000E-03 0.  1.
         11   -1    0    0    0    0 -0.00000000000E+00 -0.00000000000E+00 -0.45593999997E+02  0.45594000000E+02  0.51100000000E-03 0. -1.
    9900012    2    1    2    0    0 -0.20794572128E+01  0.26436963823E+02  0.30820907585E+02  0.50528861509E+02  0.30000005042E+02 0.  0.
         12    1    1    2    0    0  0.20794572128E+01 -0.26436963823E+02 -0.30820907585E+02  0.40659138491E+02  0.00000000000E+00 0. -1.
         11    1    3    3    0    0  0.53868053974E+00  0.16547065587E+02  0.71499164365E+01  0.18033770032E+02  0.51100000000E-03 0. -1.
        -11    1    3    3    0    0  0.77830575872E+01 -0.10247281438E+00  0.72214667844E+01  0.10617724279E+02  0.51100000000E-03 0.  1.
        -12    1    3    3    0    0 -0.10401195340E+02  0.99923710502E+01  0.16449524364E+02  0.21877367198E+02  0.00000000000E+00 0.  1.
</event>
<event>
 7    1  0.2942034E-011  0.5052887E+02  0.7816164E-02  0.1300439E+00
        -11   -1    0    0    0    0  0.00000000000E+00  0.00000000000E+00  0.45593999997E+02  0.45594000000E+02  0.51100000000E-03 0. -1.
         11   -1    0    0    0    0 -0.00000000000E+00 -0.00000000000E+00 -0.45593999997E+02  0.45594000000E+02  0.51100000000E-03 0.  1.
    9900012    2    1    2    0    0 -0.21634471666E+02  0.25741510443E+01 -0.34329116368E+02  0.50528870048E+02  0.30000030998E+02 0.  0.
         12    1    1    2    0    0  0.21634471666E+02 -0.25741510443E+01  0.34329116368E+02  0.40659129952E+02  0.00000000000E+00 0. -1.
         11    1    3    3    0    0 -0.39768718439E+01  0.47380447405E+01 -0.47741322310E+01  0.78138925284E+01  0.51100000000E-03 0. -1.
        -11    1    3    3    0    0 -0.15716650816E+02 -0.45286097216E+01 -0.33760818853E+02  0.37514188100E+02  0.51100000000E-03 0.  1.
        -12    1    3    3    0    0 -0.19409490055E+01  0.23647160254E+01  0.42058347164E+01  0.52007894194E+01  0.00000000000E+00 0.  1.
</event>
<event>
 7    1  0.2942034E-011  0.5052887E+02  0.7816164E-02  0.1300439E+00
        -11   -1    0    0    0    0  0.00000000000E+00  0.00000000000E+00  0.45593999997E+02  0.45594000000E+02  0.51100000000E-03 0.  1.
         11   -1    0    0    0    0 -0.00000000000E+00 -0.00000000000E+00 -0.45593999997E+02  0.45594000000E+02  0.51100000000E-03 0. -1.
    9900012    2    1    2    0    0 -0.52008670971E+01 -0.28697232202E+02  0.28329923970E+02  0.50528871299E+02  0.30000034800E+02 0.  0.
         12    1    1    2    0    0  0.52008670971E+01  0.28697232202E+02 -0.28329923970E+02  0.40659128701E+02  0.00000000000E+00 0. -1.
         11    1    3    3    0    0  0.69935187029E+01 -0.15849653235E+02  0.10088986418E+02  0.20047654693E+02  0.51100000000E-03 0. -1.
        -11    1    3    3    0    0 -0.12360203597E+02 -0.51031535003E+01  0.18384867612E+02  0.22733679112E+02  0.51100000000E-03 0.  1.
         12    1    3    3    0    0  0.16581779710E+00 -0.77444254667E+01 -0.14393005907E+00  0.77475374935E+01  0.00000000000E+00 0. -1.
</event>
<event>
 7    1  0.2942034E-011  0.5052886E+02  0.7816164E-02  0.1300439E+00
        -11   -1    0    0    0    0  0.00000000000E+00  0.00000000000E+00  0.45593999997E+02  0.45594000000E+02  0.51100000000E-03 0.  1.
         11   -1    0    0    0    0 -0.00000000000E+00 -0.00000000000E+00 -0.45593999997E+02  0.45594000000E+02  0.51100000000E-03 0. -1.
    9900012    2    1    2    0    0  0.39751403134E+02  0.30561095917E+01  0.79782009414E+01  0.50528861455E+02  0.30000004878E+02 0.  0.
         12    1    1    2    0    0 -0.39751403134E+02 -0.30561095917E+01 -0.79782009414E+01  0.40659138545E+02  0.00000000000E+00 0. -1.
         11    1    3    3    0    0  0.16863099622E+02  0.11063403741E+02  0.60433263579E+01  0.21054330313E+02  0.51100000000E-03 0. -1.
        -11    1    3    3    0    0  0.23915585217E+02 -0.43096184636E+01  0.46913270285E+01  0.24749476300E+02  0.51100000000E-03 0.  1.
        -12    1    3    3    0    0 -0.10272817048E+01 -0.36976756857E+01 -0.27564524451E+01  0.47250548420E+01  0.00000000000E+00 0.  1.
</event>
<event>
 7    1  0.2942034E-011  0.5052885E+02  0.7816164E-02  0.1300439E+00
        -11   -1    0    0    0    0  0.00000000000E+00  0.00000000000E+00  0.45593999997E+02  0.45594000000E+02  0.51100000000E-03 0. -1.
         11   -1    0    0    0    0 -0.00000000000E+00 -0.00000000000E+00 -0.45593999997E+02  0.45594000000E+02  0.51100000000E-03 0.  1.
    9900012    2    1    2    0    0 -0.18200174882E+02  0.24340118581E+02 -0.27008868351E+02  0.50528847182E+02  0.29999961496E+02 0.  0.
         12    1    1    2    0    0  0.18200174882E+02 -0.24340118581E+02  0.27008868351E+02  0.40659152818E+02  0.00000000000E+00 0. -1.
         11    1    3    3    0    0 -0.53543989446E+01  0.10368123568E+01 -0.14764396558E+02  0.15739503610E+02  0.51100000000E-03 0. -1.
        -11    1    3    3    0    0  0.34087150202E+01  0.62625018682E+01  0.18207816705E+01  0.73589071125E+01  0.51100000000E-03 0.  1.
        -12    1    3    3    0    0 -0.16254490958E+02  0.17040804356E+02 -0.14065253463E+02  0.27430436460E+02  0.00000000000E+00 0.  1.
</event>
<event>
 7    1  0.2942034E-011  0.5052882E+02  0.7816164E-02  0.1300439E+00
        -11   -1    0    0    0    0  0.00000000000E+00  0.00000000000E+00  0.45593999997E+02  0.45594000000E+02  0.51100000000E-03 0.  1.
         11   -1    0    0    0    0 -0.00000000000E+00 -0.00000000000E+00 -0.45593999997E+02  0.45594000000E+02  0.51100000000E-03 0. -1.
    9900012    2    1    2    0    0 -0.32647618619E+02 -0.90204537358E+01  0.22492967675E+02  0.50528816758E+02  0.29999869016E+02 0.  0.
         12    1    1    2    0    0  0.32647618619E+02  0.90204537358E+01 -0.22492967675E+02  0.40659183242E+02  0.00000000000E+00 0. -1.
         11    1    3    3    0    0 -0.10525076880E+02  0.78182856220E+01  0.71358957652E+01  0.14927285152E+02  0.51100000000E-03 0. -1.
        -11    1    3    3    0    0 -0.41395967772E+01 -0.87937112210E+01 -0.12962114208E+01  0.98053955976E+01  0.51100000000E-03 0.  1.
         12    1    3    3    0    0 -0.17982944962E+02 -0.80450281368E+01  0.16653283331E+02  0.25796136008E+02  0.00000000000E+00 0. -1.
</event>
<event>
 7    1  0.2942034E-011  0.5052886E+02  0.7816164E-02  0.1300439E+00
        -11   -1    0    0    0    0  0.00000000000E+00  0.00000000000E+00  0.45593999997E+02  0.45594000000E+02  0.51100000000E-03 0.  1.
         11   -1    0    0    0    0 -0.00000000000E+00 -0.00000000000E+00 -0.45593999997E+02  0.45594000000E+02  0.51100000000E-03 0. -1.
    9900012    2    1    2    0    0 -0.25579797698E+02 -0.38142179725E+01  0.31373418670E+02  0.50528859477E+02  0.29999998867E+02 0.  0.
         12    1    1    2    0    0  0.25579797698E+02  0.38142179725E+01 -0.31373418670E+02  0.40659140523E+02  0.00000000000E+00 0. -1.
         11    1    3    3    0    0 -0.51735344012E+01  0.36603580025E+01 -0.47163321778E+01  0.78998397692E+01  0.51100000000E-03 0. -1.
        -11    1    3    3    0    0 -0.46488643455E+01 -0.48021541189E+01  0.97962417573E+01  0.11859130521E+02  0.51100000000E-03 0.  1.
         12    1    3    3    0    0 -0.15757398952E+02 -0.26724218561E+01  0.26293509090E+02  0.30769889187E+02  0.00000000000E+00 0. -1.
</event>
<event>
 7    1  0.2942034E-011  0.5052886E+02  0.7816164E-02  0.1300439E+00
        -11   -1    0    0    0    0  0.00000000000E+00  0.00000000000E+00  0.45593999997E+02  0.45594000000E+02  0.51100000000E-03 0.  1.
         11   -1    0    0    0    0 -0.00000000000E+00 -0.00000000000E+00 -0.45593999997E+02  0.45594000000E+02  0.51100000000E-03 0. -1.
    9900012    2    1    2    0    0  0.21547560684E+02  0.28523779447E+02  0.19371690793E+02  0.50528858722E+02  0.29999996570E+02 0.  0.
         12    1    1    2    0    0 -0.21547560684E+02 -0.28523779447E+02 -0.19371690793E+02  0.40659141278E+02  0.00000000000E+00 0. -1.
         11    1    3    3    0    0  0.19945172214E+02  0.47189961880E+01  0.84235276141E+01  0.22159301375E+02  0.51100000000E-03 0. -1.
        -11    1    3    3    0    0  0.58715796457E+01  0.10143530781E+02  0.34830411803E+01  0.12226947304E+02  0.51100000000E-03 0.  1.
         12    1    3    3    0    0 -0.42691911765E+01  0.13661252477E+02  0.74651219982E+01  0.16142610043E+02  0.00000000000E+00 0. -1.
</event>
<event>
 7    1  0.2942034E-011  0.5052885E+02  0.7816164E-02  0.1300439E+00
        -11   -1    0    0    0    0  0.00000000000E+00  0.00000000000E+00  0.45593999997E+02  0.45594000000E+02  0.51100000000E-03 0. -1.
         11   -1    0    0    0    0 -0.00000000000E+00 -0.00000000000E+00 -0.45593999997E+02  0.45594000000E+02  0.51100000000E-03 0.  1.
    9900012    2    1    2    0    0  0.28127049312E+02  0.28998416247E+02 -0.45964832142E+01  0.50528847208E+02  0.29999961574E+02 0.  0.
         12    1    1    2    0    0 -0.28127049312E+02 -0.28998416247E+02  0.45964832142E+01  0.40659152792E+02  0.00000000000E+00 0. -1.
         11    1    3    3    0    0  0.11179707055E+02  0.19290717056E+02 -0.12834347242E+02  0.25726213941E+02  0.51100000000E-03 0.  1.
        -11    1    3    3    0    0  0.40562354491E+01  0.13355093521E+01  0.84081661265E+01  0.94304766115E+01  0.51100000000E-03 0. -1.
         12    1    3    3    0    0  0.12891106808E+02  0.83721898390E+01 -0.17030209906E+00  0.15372156656E+02  0.00000000000E+00 0. -1.
</event>
<event>
 7    1  0.2942034E-011  0.5052887E+02  0.7816164E-02  0.1300439E+00
        -11   -1    0    0    0    0  0.00000000000E+00  0.00000000000E+00  0.45593999997E+02  0.45594000000E+02  0.51100000000E-03 0. -1.
         11   -1    0    0    0    0 -0.00000000000E+00 -0.00000000000E+00 -0.45593999997E+02  0.45594000000E+02  0.51100000000E-03 0.  1.
    9900012    2    1    2    0    0 -0.33600886070E+02 -0.14042053053E+02 -0.18082192639E+02  0.50528874465E+02  0.30000044424E+02 0.  0.
         12    1    1    2    0    0  0.33600886070E+02  0.14042053053E+02  0.18082192639E+02  0.40659125535E+02  0.00000000000E+00 0. -1.
         11    1    3    3    0    0 -0.70423025334E+01 -0.66249415834E+01  0.59267650865E+01  0.11340653447E+02  0.51100000000E-03 0. -1.
        -11    1    3    3    0    0 -0.13641073829E+02  0.24768945996E+01 -0.65860363683E+01  0.15348934079E+02  0.51100000000E-03 0.  1.
         12    1    3    3    0    0 -0.12917509708E+02 -0.98940060687E+01 -0.17422921357E+02  0.23839286939E+02  0.00000000000E+00 0. -1.
</event>
<event>
 7    1  0.2942034E-011  0.5052887E+02  0.7816164E-02  0.1300439E+00
        -11   -1    0    0    0    0  0.00000000000E+00  0.00000000000E+00  0.45593999997E+02  0.45594000000E+02  0.51100000000E-03 0.  1.
         11   -1    0    0    0    0 -0.00000000000E+00 -0.00000000000E+00 -0.45593999997E+02  0.45594000000E+02  0.51100000000E-03 0. -1.
    9900012    2    1    2    0    0 -0.30107117715E+02  0.18083655607E+02  0.20486764622E+02  0.50528872343E+02  0.30000037973E+02 0.  0.
         12    1    1    2    0    0  0.30107117715E+02 -0.18083655607E+02 -0.20486764622E+02  0.40659127657E+02  0.00000000000E+00 0. -1.
         11    1    3    3    0    0 -0.17353760251E+02  0.15045005377E+02 -0.32832067551E+01  0.23200961801E+02  0.51100000000E-03 0. -1.
        -11    1    3    3    0    0 -0.11331533073E+02  0.15850227783E+01  0.19831452419E+02  0.22895467768E+02  0.51100000000E-03 0.  1.
         12    1    3    3    0    0 -0.14218243913E+01  0.14536274522E+01  0.39385189575E+01  0.44324427744E+01  0.00000000000E+00 0. -1.
</event>
<event>
 7    1  0.2942034E-011  0.5052885E+02  0.7816164E-02  0.1300439E+00
        -11   -1    0    0    0    0  0.00000000000E+00  0.00000000000E+00  0.45593999997E+02  0.45594000000E+02  0.51100000000E-03 0.  1.
         11   -1    0    0    0    0 -0.00000000000E+00 -0.00000000000E+00 -0.45593999997E+02  0.45594000000E+02  0.51100000000E-03 0. -1.
    9900012    2    1    2    0    0  0.10258921259E+02 -0.78976902593E+01  0.38542798271E+02  0.50528852501E+02  0.29999977662E+02 0.  0.
         12    1    1    2    0    0 -0.10258921259E+02  0.78976902593E+01 -0.38542798271E+02  0.40659147499E+02  0.00000000000E+00 0. -1.
         11    1    3    3    0    0  0.74751900315E+01 -0.62597595734E+01  0.49608531041E+00  0.97626408732E+01  0.51100000000E-03 0. -1.
        -11    1    3    3    0    0 -0.47019020256E+01 -0.38489756782E+01  0.23322900311E+02  0.24101455881E+02  0.51100000000E-03 0.  1.
         12    1    3    3    0    0  0.74856332528E+01  0.22110449922E+01  0.14723812649E+02  0.16664755746E+02  0.00000000000E+00 0. -1.
</event>
<event>
 7    1  0.2942034E-011  0.5052886E+02  0.7816164E-02  0.1300439E+00
        -11   -1    0    0    0    0  0.00000000000E+00  0.00000000000E+00  0.45593999997E+02  0.45594000000E+02  0.51100000000E-03 0.  1.
         11   -1    0    0    0    0 -0.00000000000E+00 -0.00000000000E+00 -0.45593999997E+02  0.45594000000E+02  0.51100000000E-03 0. -1.
    9900012    2    1    2    0    0  0.27465224855E+01 -0.10746419769E+02  0.39116963568E+02  0.50528858808E+02  0.29999996834E+02 0.  0.
         12    1    1    2    0    0 -0.27465224855E+01  0.10746419769E+02 -0.39116963568E+02  0.40659141192E+02  0.00000000000E+00 0. -1.
         11    1    3    3    0    0 -0.53115643154E+01 -0.36813113821E+01  0.24592239869E+01  0.69146620920E+01  0.51100000000E-03 0. -1.
        -11    1    3    3    0    0  0.46266985039E+01  0.42230847912E+01  0.28717795732E+02  0.29393070207E+02  0.51100000000E-03 0.  1.
        -12    1    3    3    0    0  0.34313882970E+01 -0.11288193178E+02  0.79399438495E+01  0.14221126510E+02  0.00000000000E+00 0.  1.
</event>
<event>
 7    1  0.2942034E-011  0.5052886E+02  0.7816164E-02  0.1300439E+00
        -11   -1    0    0    0    0  0.00000000000E+00  0.00000000000E+00  0.45593999997E+02  0.45594000000E+02  0.51100000000E-03 0.  1.
         11   -1    0    0    0    0 -0.00000000000E+00 -0.00000000000E+00 -0.45593999997E+02  0.45594000000E+02  0.51100000000E-03 0. -1.
    9900012    2    1    2    0    0  0.19460792189E+02 -0.71762860962E+01  0.34970612685E+02  0.50528864909E+02  0.30000015377E+02 0.  0.
         12    1    1    2    0    0 -0.19460792189E+02  0.71762860962E+01 -0.34970612685E+02  0.40659135091E+02  0.00000000000E+00 0. -1.
         11    1    3    3    0    0  0.45099584396E+01 -0.59212702521E+00 -0.12952696581E+01  0.47294886921E+01  0.51100000000E-03 0. -1.
        -11    1    3    3    0    0  0.11909667916E+02 -0.94400412708E+01  0.38265625364E+02  0.41172960226E+02  0.51100000000E-03 0.  1.
        -12    1    3    3    0    0  0.30411658339E+01  0.28558821998E+01 -0.19997430204E+01  0.46264159904E+01  0.00000000000E+00 0.  1.
</event>
<event>
 7    1  0.2942034E-011  0.5052886E+02  0.7816164E-02  0.1300439E+00
        -11   -1    0    0    0    0  0.00000000000E+00  0.00000000000E+00  0.45593999997E+02  0.45594000000E+02  0.51100000000E-03 0.  1.
         11   -1    0    0    0    0 -0.00000000000E+00 -0.00000000000E+00 -0.45593999997E+02  0.45594000000E+02  0.51100000000E-03 0. -1.
    9900012    2    1    2    0    0 -0.17561252016E+02  0.36302048310E+02 -0.51893659136E+01  0.50528858316E+02  0.29999995337E+02 0.  0.
         12    1    1    2    0    0  0.17561252016E+02 -0.36302048310E+02  0.51893659136E+01  0.40659141684E+02  0.00000000000E+00 0. -1.
         11    1    3    3    0    0  0.20380704018E+01  0.20711833243E+02 -0.86504608517E+01  0.22538062038E+02  0.51100000000E-03 0.  1.
        -11    1    3    3    0    0 -0.15221226794E+02  0.12623615483E+02  0.76920194559E+01  0.21218119062E+02  0.51100000000E-03 0. -1.
        -12    1    3    3    0    0 -0.43780956239E+01  0.29665995848E+01 -0.42309245178E+01  0.67726772154E+01  0.00000000000E+00 0.  1.
</event>
<event>
 7    1  0.2942034E-011  0.5052888E+02  0.7816164E-02  0.1300439E+00
        -11   -1    0    0    0    0  0.00000000000E+00  0.00000000000E+00  0.45593999997E+02  0.45594000000E+02  0.51100000000E-03 0.  1.
         11   -1    0    0    0    0 -0.00000000000E+00 -0.00000000000E+00 -0.45593999997E+02  0.45594000000E+02  0.51100000000E-03 0. -1.
    9900012    2    1    2    0    0 -0.30653641578E+02 -0.23692236211E+02  0.12336787188E+02  0.50528879046E+02  0.30000058349E+02 0.  0.
         12    1    1    2    0    0  0.30653641578E+02  0.23692236211E+02 -0.12336787188E+02  0.40659120954E+02  0.00000000000E+00 0. -1.
         11    1    3    3    0    0 -0.92958829720E+01 -0.76760733512E+00 -0.34467460370E+01  0.99439790705E+01  0.51100000000E-03 0. -1.
        -11    1    3    3    0    0 -0.11549001311E+02 -0.20994857947E+02  0.18446328674E+02  0.30239552465E+02  0.51100000000E-03 0.  1.
        -12    1    3    3    0    0 -0.98087572946E+01 -0.19297709284E+01 -0.26627954493E+01  0.10345347510E+02  0.00000000000E+00 0.  1.
</event>
<event>
 7    1  0.2942034E-011  0.5052886E+02  0.7816164E-02  0.1300439E+00
        -11   -1    0    0    0    0  0.00000000000E+00  0.00000000000E+00  0.45593999997E+02  0.45594000000E+02  0.51100000000E-03 0.  1.
         11   -1    0    0    0    0 -0.00000000000E+00 -0.00000000000E+00 -0.45593999997E+02  0.45594000000E+02  0.51100000000E-03 0. -1.
    9900012    2    1    2    0    0  0.38892568302E+00  0.15030297623E+02  0.37777035988E+02  0.50528861324E+02  0.30000004479E+02 0.  0.
         12    1    1    2    0    0 -0.38892568302E+00 -0.15030297623E+02 -0.37777035988E+02  0.40659138676E+02  0.00000000000E+00 0. -1.
         11    1    3    3    0    0  0.27399398406E+01  0.11323456500E+02  0.68504032551E+01  0.13515027283E+02  0.51100000000E-03 0. -1.
        -11    1    3    3    0    0  0.31225340840E+01  0.56427363150E+01  0.30519862433E+02  0.31193792578E+02  0.51100000000E-03 0.  1.
        -12    1    3    3    0    0 -0.54735482416E+01 -0.19358951918E+01  0.40677030027E+00  0.58200414624E+01  0.00000000000E+00 0.  1.
</event>
<event>
 7    1  0.2942034E-011  0.5052886E+02  0.7816164E-02  0.1300439E+00
        -11   -1    0    0    0    0  0.00000000000E+00  0.00000000000E+00  0.45593999997E+02  0.45594000000E+02  0.51100000000E-03 0. -1.
         11   -1    0    0    0    0 -0.00000000000E+00 -0.00000000000E+00 -0.45593999997E+02  0.45594000000E+02  0.51100000000E-03 0.  1.
    9900012    2    1    2    0    0  0.11853508220E+02 -0.34090568887E+02 -0.18721466003E+02  0.50528857934E+02  0.29999994178E+02 0.  0.
         12    1    1    2    0    0 -0.11853508220E+02  0.34090568887E+02  0.18721466003E+02  0.40659142066E+02  0.00000000000E+00 0. -1.
         11    1    3    3    0    0  0.15788105006E+02 -0.30579786565E+02 -0.56611658845E+01  0.34877448380E+02  0.51100000000E-03 0. -1.
        -11    1    3    3    0    0  0.19418777485E+00 -0.22966365531E-01 -0.87130669606E+01  0.87152608949E+01  0.51100000000E-03 0.  1.
         12    1    3    3    0    0 -0.41287845610E+01 -0.34878159568E+01 -0.43472331580E+01  0.69361486597E+01  0.00000000000E+00 0. -1.
</event>
<event>
 7    1  0.2942034E-011  0.5052885E+02  0.7816164E-02  0.1300439E+00
        -11   -1    0    0    0    0  0.00000000000E+00  0.00000000000E+00  0.45593999997E+02  0.45594000000E+02  0.51100000000E-03 0.  1.
         11   -1    0    0    0    0 -0.00000000000E+00 -0.00000000000E+00 -0.45593999997E+02  0.45594000000E+02  0.51100000000E-03 0. -1.
    9900012    2    1    2    0    0  0.13882246840E+02 -0.10052672212E+02  0.36869948813E+02  0.50528854394E+02  0.29999983417E+02 0.  0.
         12    1    1    2    0    0 -0.13882246840E+02  0.10052672212E+02 -0.36869948813E+02  0.40659145606E+02  0.00000000000E+00 0. -1.
         11    1    3    3    0    0  0.11069367532E+02  0.60927882569E+01  0.56106695549E+01  0.13825070684E+02  0.51100000000E-03 0. -1.
        -11    1    3    3    0    0  0.19528245714E+01 -0.17290552916E+02  0.26247404836E+02  0.31491316340E+02  0.51100000000E-03 0.  1.
        -12    1    3    3    0    0  0.86005473643E+00  0.11450924474E+01  0.50118744223E+01  0.52124673704E+01  0.00000000000E+00 0.  1.
</event>
<event>
 7    1  0.2942034E-011  0.5052886E+02  0.7816164E-02  0.1300439E+00
        -11   -1    0    0    0    0  0.00000000000E+00  0.00000000000E+00  0.45593999997E+02  0.45594000000E+02  0.51100000000E-03 0.  1.
         11   -1    0    0    0    0 -0.00000000000E+00 -0.00000000000E+00 -0.45593999997E+02  0.45594000000E+02  0.51100000000E-03 0. -1.
    9900012    2    1    2    0    0  0.21612405387E+02  0.34036156179E+02 -0.52545153409E+01  0.50528856803E+02  0.29999990738E+02 0.  0.
         12    1    1    2    0    0 -0.21612405387E+02 -0.34036156179E+02  0.52545153409E+01  0.40659143197E+02  0.00000000000E+00 0. -1.
         11    1    3    3    0    0 -0.46828628409E+01  0.35034155894E+01 -0.11214519655E+01  0.59548954610E+01  0.51100000000E-03 0. -1.
        -11    1    3    3    0    0  0.28413292807E+02  0.31033447773E+02 -0.31738036753E+01  0.42195534347E+02  0.51100000000E-03 0.  1.
        -12    1    3    3    0    0 -0.21180245788E+01 -0.50070718305E+00 -0.95925970001E+00  0.23784269952E+01  0.00000000000E+00 0.  1.
</event>
<event>
 7    1  0.2942034E-011  0.5052887E+02  0.7816164E-02  0.1300439E+00
        -11   -1    0    0    0    0  0.00000000000E+00  0.00000000000E+00  0.45593999997E+02  0.45594000000E+02  0.51100000000E-03 0. -1.
         11   -1    0    0    0    0 -0.00000000000E+00 -0.00000000000E+00 -0.45593999997E+02  0.45594000000E+02  0.51100000000E-03 0.  1.
    9900012    2    1    2    0    0 -0.39862194437E+02  0.56715671265E+00 -0.79905528695E+01  0.50528866373E+02  0.30000019829E+02 0.  0.
         12    1    1    2    0    0  0.39862194437E+02 -0.56715671265E+00  0.79905528695E+01  0.40659133627E+02  0.00000000000E+00 0. -1.
         11    1    3    3    0    0  0.22665276214E+01  0.62010277627E+01 -0.11375889452E+01  0.66995523464E+01  0.51100000000E-03 0. -1.
        -11    1    3    3    0    0 -0.18986527189E+02 -0.57315379376E+01 -0.57979031113E+01  0.20662875467E+02  0.51100000000E-03 0.  1.
         12    1    3    3    0    0 -0.23142194870E+02  0.97666887548E-01 -0.10550608130E+01  0.23166438560E+02  0.00000000000E+00 0. -1.
</event>
<event>
 7    1  0.2942034E-011  0.5052885E+02  0.7816164E-02  0.1300439E+00
        -11   -1    0    0    0    0  0.00000000000E+00  0.00000000000E+00  0.45593999997E+02  0.45594000000E+02  0.51100000000E-03 0.  1.
         11   -1    0    0    0    0 -0.00000000000E+00 -0.00000000000E+00 -0.45593999997E+02  0.45594000000E+02  0.51100000000E-03 0. -1.
    9900012    2    1    2    0    0 -0.36212734476E+01 -0.18519702186E+02  0.36014901145E+02  0.50528854720E+02  0.29999984406E+02 0.  0.
         12    1    1    2    0    0  0.36212734476E+01  0.18519702186E+02 -0.36014901145E+02  0.40659145280E+02  0.00000000000E+00 0. -1.
         11    1    3    3    0    0 -0.45925202871E+01 -0.42112096375E+01 -0.39392322552E+01  0.73717759203E+01  0.51100000000E-03 0. -1.
        -11    1    3    3    0    0  0.38301541526E+01 -0.57827946408E+01  0.22155206275E+02  0.23215597344E+02  0.51100000000E-03 0.  1.
         12    1    3    3    0    0 -0.28589073130E+01 -0.85256979076E+01  0.17798927125E+02  0.19941481456E+02  0.00000000000E+00 0. -1.
</event>
<event>
 7    1  0.2942034E-011  0.5052881E+02  0.7816164E-02  0.1300439E+00
        -11   -1    0    0    0    0  0.00000000000E+00  0.00000000000E+00  0.45593999997E+02  0.45594000000E+02  0.51100000000E-03 0.  1.
         11   -1    0    0    0    0 -0.00000000000E+00 -0.00000000000E+00 -0.45593999997E+02  0.45594000000E+02  0.51100000000E-03 0. -1.
    9900012    2    1    2    0    0 -0.16688751047E+02  0.32269557880E+02  0.18257344952E+02  0.50528813806E+02  0.29999860045E+02 0.  0.
         12    1    1    2    0    0  0.16688751047E+02 -0.32269557880E+02 -0.18257344952E+02  0.40659186194E+02  0.00000000000E+00 0. -1.
         11    1    3    3    0    0 -0.16211084916E+02  0.11624437402E+02  0.68195721234E+01  0.21081588728E+02  0.51100000000E-03 0. -1.
        -11    1    3    3    0    0 -0.13797109643E+01  0.13222924089E+02  0.15911154041E+02  0.20734371150E+02  0.51100000000E-03 0.  1.
         12    1    3    3    0    0  0.90204483376E+00  0.74221963887E+01 -0.44733812122E+01  0.87128539287E+01  0.00000000000E+00 0. -1.
</event>
<event>
 7    1  0.2942034E-011  0.5052888E+02  0.7816164E-02  0.1300439E+00
        -11   -1    0    0    0    0  0.00000000000E+00  0.00000000000E+00  0.45593999997E+02  0.45594000000E+02  0.51100000000E-03 0.  1.
         11   -1    0    0    0    0 -0.00000000000E+00 -0.00000000000E+00 -0.45593999997E+02  0.45594000000E+02  0.51100000000E-03 0. -1.
    9900012    2    1    2    0    0 -0.34184496752E+02 -0.21378096893E+02 -0.52498417602E+01  0.50528884374E+02  0.30000074544E+02 0.  0.
         12    1    1    2    0    0  0.34184496752E+02  0.21378096893E+02  0.52498417602E+01  0.40659115626E+02  0.00000000000E+00 0. -1.
         11    1    3    3    0    0 -0.27939773023E+02 -0.83570217985E+01 -0.14021171264E+02  0.32358367909E+02  0.51100000000E-03 0. -1.
        -11    1    3    3    0    0 -0.34059518645E+01 -0.34310327600E+01  0.61661136219E+01  0.78353973328E+01  0.51100000000E-03 0.  1.
         12    1    3    3    0    0 -0.28387718650E+01 -0.95900423346E+01  0.26052158815E+01  0.10335119132E+02  0.00000000000E+00 0. -1.
</event>
<event>
 7    1  0.2942034E-011  0.5052887E+02  0.7816164E-02  0.1300439E+00
        -11   -1    0    0    0    0  0.00000000000E+00  0.00000000000E+00  0.45593999997E+02  0.45594000000E+02  0.51100000000E-03 0.  1.
         11   -1    0    0    0    0 -0.00000000000E+00 -0.00000000000E+00 -0.45593999997E+02  0.45594000000E+02  0.51100000000E-03 0. -1.
    9900012    2    1    2    0    0 -0.35446470544E+02  0.18513319391E+02 -0.73463940076E+01  0.50528870966E+02  0.30000033787E+02 0.  0.
         12    1    1    2    0    0  0.35446470544E+02 -0.18513319391E+02  0.73463940076E+01  0.40659129034E+02  0.00000000000E+00 0. -1.
         11    1    3    3    0    0 -0.50685422482E+01 -0.16092805191E+00 -0.10783577091E+02  0.11916440471E+02  0.51100000000E-03 0. -1.
        -11    1    3    3    0    0 -0.24690044504E+02  0.13572038516E+02 -0.33748181483E+01  0.28375833466E+02  0.51100000000E-03 0.  1.
         12    1    3    3    0    0 -0.56878837924E+01  0.51022089261E+01  0.68120012313E+01  0.10236597029E+02  0.00000000000E+00 0. -1.
</event>
<event>
 7    1  0.2942034E-011  0.5052886E+02  0.7816164E-02  0.1300439E+00
        -11   -1    0    0    0    0  0.00000000000E+00  0.00000000000E+00  0.45593999997E+02  0.45594000000E+02  0.51100000000E-03 0. -1.
         11   -1    0    0    0    0 -0.00000000000E+00 -0.00000000000E+00 -0.45593999997E+02  0.45594000000E+02  0.51100000000E-03 0.  1.
    9900012    2    1    2    0    0 -0.16616592457E+02 -0.34821357988E+02 -0.12826819476E+02  0.50528863083E+02  0.30000009826E+02 0.  0.
         12    1    1    2    0    0  0.16616592457E+02  0.34821357988E+02  0.12826819476E+02  0.40659136917E+02  0.00000000000E+00 0. -1.
         11    1    3    3    0    0  0.20188025084E+01 -0.20413191133E+01  0.36850512700E+01  0.46714184584E+01  0.51100000000E-03 0. -1.
        -11    1    3    3    0    0 -0.11132279838E+02 -0.12188557540E+02 -0.17320398495E+02  0.23926654459E+02  0.51100000000E-03 0.  1.
        -12    1    3    3    0    0 -0.75031151276E+01 -0.20591481334E+02  0.80852774907E+00  0.21930790166E+02  0.00000000000E+00 0.  1.
</event>
<event>
 7    1  0.2942034E-011  0.5052897E+02  0.7816164E-02  0.1300438E+00
        -11   -1    0    0    0    0  0.00000000000E+00  0.00000000000E+00  0.45593999997E+02  0.45594000000E+02  0.51100000000E-03 0. -1.
         11   -1    0    0    0    0 -0.00000000000E+00 -0.00000000000E+00 -0.45593999997E+02  0.45594000000E+02  0.51100000000E-03 0.  1.
    9900012    2    1    2    0    0  0.36716237870E+02  0.98708788975E+01 -0.14409740611E+02  0.50528966588E+02  0.30000324438E+02 0.  0.
         12    1    1    2    0    0 -0.36716237870E+02 -0.98708788975E+01  0.14409740611E+02  0.40659033412E+02  0.00000000000E+00 0. -1.
         11    1    3    3    0    0  0.54978933612E+00  0.37498329883E+01  0.54552835155E+00  0.38289838336E+01  0.51100000000E-03 0. -1.
        -11    1    3    3    0    0  0.28464525768E+02 -0.14347815625E+01 -0.19971488468E+02  0.34801554236E+02  0.51100000000E-03 0.  1.
        -12    1    3    3    0    0  0.77019227663E+01  0.75558274717E+01  0.50162195058E+01  0.11898428519E+02  0.00000000000E+00 0.  1.
</event>
<event>
 7    1  0.2942034E-011  0.5052887E+02  0.7816164E-02  0.1300439E+00
        -11   -1    0    0    0    0  0.00000000000E+00  0.00000000000E+00  0.45593999997E+02  0.45594000000E+02  0.51100000000E-03 0.  1.
         11   -1    0    0    0    0 -0.00000000000E+00 -0.00000000000E+00 -0.45593999997E+02  0.45594000000E+02  0.51100000000E-03 0. -1.
    9900012    2    1    2    0    0  0.38184313663E+02 -0.40506654316E+01  0.13368439076E+02  0.50528869860E+02  0.30000030427E+02 0.  0.
         12    1    1    2    0    0 -0.38184313663E+02  0.40506654316E+01 -0.13368439076E+02  0.40659130140E+02  0.00000000000E+00 0. -1.
         11    1    3    3    0    0  0.34266159587E+02 -0.29837914773E+00 -0.11826415990E+01  0.34287860306E+02  0.51100000000E-03 0. -1.
        -11    1    3    3    0    0  0.41542065755E+00 -0.35779876547E+01  0.87472673881E+01  0.94598761620E+01  0.51100000000E-03 0.  1.
         12    1    3    3    0    0  0.35027334190E+01 -0.17429862909E+00  0.58038132868E+01  0.67811333924E+01  0.00000000000E+00 0. -1.
</event>
<event>
 7    1  0.2942034E-011  0.5052884E+02  0.7816164E-02  0.1300439E+00
        -11   -1    0    0    0    0  0.00000000000E+00  0.00000000000E+00  0.45593999997E+02  0.45594000000E+02  0.51100000000E-03 0.  1.
         11   -1    0    0    0    0 -0.00000000000E+00 -0.00000000000E+00 -0.45593999997E+02  0.45594000000E+02  0.51100000000E-03 0. -1.
    9900012    2    1    2    0    0  0.49400775063E-01 -0.21547310162E+02  0.34480117625E+02  0.50528837108E+02  0.29999930872E+02 0.  0.
         12    1    1    2    0    0 -0.49400775063E-01  0.21547310162E+02 -0.34480117625E+02  0.40659162892E+02  0.00000000000E+00 0. -1.
         11    1    3    3    0    0 -0.79049228069E+01  0.42127059692E+01  0.11697997165E+02  0.14733561487E+02  0.51100000000E-03 0. -1.
        -11    1    3    3    0    0  0.47810067855E+01 -0.75837091970E+01  0.94893084394E+01  0.13054410978E+02  0.51100000000E-03 0.  1.
         12    1    3    3    0    0  0.31733167965E+01 -0.18176306934E+02  0.13292812021E+02  0.22740864643E+02  0.00000000000E+00 0. -1.
</event>
<event>
 7    1  0.2942034E-011  0.5052886E+02  0.7816164E-02  0.1300439E+00
        -11   -1    0    0    0    0  0.00000000000E+00  0.00000000000E+00  0.45593999997E+02  0.45594000000E+02  0.51100000000E-03 0.  1.
         11   -1    0    0    0    0 -0.00000000000E+00 -0.00000000000E+00 -0.45593999997E+02  0.45594000000E+02  0.51100000000E-03 0. -1.
    9900012    2    1    2    0    0 -0.25654062222E+02 -0.23999195059E+02  0.20471279225E+02  0.50528861482E+02  0.30000004960E+02 0.  0.
         12    1    1    2    0    0  0.25654062222E+02  0.23999195059E+02 -0.20471279225E+02  0.40659138518E+02  0.00000000000E+00 0. -1.
         11    1    3    3    0    0 -0.87588227600E+01  0.43987946491E+01  0.61828414022E+01  0.11588524435E+02  0.51100000000E-03 0. -1.
        -11    1    3    3    0    0 -0.17373826758E+02 -0.23669747623E+02  0.69099146824E+01  0.30163781758E+02  0.51100000000E-03 0.  1.
         12    1    3    3    0    0  0.47858729660E+00 -0.47282420848E+01  0.73785231398E+01  0.87765552888E+01  0.00000000000E+00 0. -1.
</event>
<event>
 7    1  0.2942034E-011  0.5052886E+02  0.7816164E-02  0.1300439E+00
        -11   -1    0    0    0    0  0.00000000000E+00  0.00000000000E+00  0.45593999997E+02  0.45594000000E+02  0.51100000000E-03 0.  1.
         11   -1    0    0    0    0 -0.00000000000E+00 -0.00000000000E+00 -0.45593999997E+02  0.45594000000E+02  0.51100000000E-03 0. -1.
    9900012    2    1    2    0    0  0.15386404414E+02  0.31888881735E+02  0.19988087127E+02  0.50528857780E+02  0.29999993707E+02 0.  0.
         12    1    1    2    0    0 -0.15386404414E+02 -0.31888881735E+02 -0.19988087127E+02  0.40659142220E+02  0.00000000000E+00 0. -1.
         11    1    3    3    0    0 -0.81876121448E+01  0.12555406434E+02  0.21344046469E+01  0.15140373404E+02  0.51100000000E-03 0. -1.
        -11    1    3    3    0    0  0.15262970738E+02  0.12287045248E+02  0.10361437422E+02  0.22165043252E+02  0.51100000000E-03 0.  1.
         12    1    3    3    0    0  0.83110458206E+01  0.70464300538E+01  0.74922450581E+01  0.13223441123E+02  0.00000000000E+00 0. -1.
</event>
<event>
 7    1  0.2942034E-011  0.5052884E+02  0.7816164E-02  0.1300439E+00
        -11   -1    0    0    0    0  0.00000000000E+00  0.00000000000E+00  0.45593999997E+02  0.45594000000E+02  0.51100000000E-03 0.  1.
         11   -1    0    0    0    0 -0.00000000000E+00 -0.00000000000E+00 -0.45593999997E+02  0.45594000000E+02  0.51100000000E-03 0. -1.
    9900012    2    1    2    0    0  0.10351747841E+02 -0.29425669349E+01  0.39209050656E+02  0.50528843136E+02  0.29999949196E+02 0.  0.
         12    1    1    2    0    0 -0.10351747841E+02  0.29425669349E+01 -0.39209050656E+02  0.40659156864E+02  0.00000000000E+00 0. -1.
         11    1    3    3    0    0 -0.46864872773E+01  0.85705567591E+01  0.24472399936E+02  0.26349875996E+02  0.51100000000E-03 0. -1.
        -11    1    3    3    0    0  0.14015142316E+02 -0.10093876078E+02  0.14168130951E+02  0.22339348319E+02  0.51100000000E-03 0.  1.
         12    1    3    3    0    0  0.10230928025E+01 -0.14192476158E+01  0.56851976997E+00  0.18396188209E+01  0.00000000000E+00 0. -1.
</event>
<event>
 7    1  0.2942034E-011  0.5052886E+02  0.7816164E-02  0.1300439E+00
        -11   -1    0    0    0    0  0.00000000000E+00  0.00000000000E+00  0.45593999997E+02  0.45594000000E+02  0.51100000000E-03 0. -1.
         11   -1    0    0    0    0 -0.00000000000E+00 -0.00000000000E+00 -0.45593999997E+02  0.45594000000E+02  0.51100000000E-03 0.  1.
    9900012    2    1    2    0    0 -0.22164661059E+02  0.11712964513E+02 -0.32010937290E+02  0.50528857809E+02  0.29999993795E+02 0.  0.
         12    1    1    2    0    0  0.22164661059E+02 -0.11712964513E+02  0.32010937290E+02  0.40659142191E+02  0.00000000000E+00 0. -1.
         11    1    3    3    0    0  0.15512434048E+01 -0.56066659412E+01 -0.82236711491E+00  0.58751465522E+01  0.51100000000E-03 0. -1.
        -11    1    3    3    0    0 -0.20945394215E+02  0.14570445867E+02 -0.18878339706E+02  0.31739551697E+02  0.51100000000E-03 0.  1.
        -12    1    3    3    0    0 -0.27705102484E+01  0.27491845868E+01 -0.12310230469E+02  0.12914159559E+02  0.00000000000E+00 0.  1.
</event>
<event>
 7    1  0.2942034E-011  0.5052885E+02  0.7816164E-02  0.1300439E+00
        -11   -1    0    0    0    0  0.00000000000E+00  0.00000000000E+00  0.45593999997E+02  0.45594000000E+02  0.51100000000E-03 0. -1.
         11   -1    0    0    0    0 -0.00000000000E+00 -0.00000000000E+00 -0.45593999997E+02  0.45594000000E+02  0.51100000000E-03 0.  1.
    9900012    2    1    2    0    0 -0.34418631766E+02 -0.21645355077E+02 -0.52190485339E-01  0.50528851793E+02  0.29999975511E+02 0.  0.
         12    1    1    2    0    0  0.34418631766E+02  0.21645355077E+02  0.52190485339E-01  0.40659148207E+02  0.00000000000E+00 0. -1.
         11    1    3    3    0    0  0.32699467132E+01 -0.23614676634E+01  0.35450823625E+01  0.53699804702E+01  0.51100000000E-03 0. -1.
        -11    1    3    3    0    0 -0.21380618777E+02 -0.19011856516E+02 -0.88412362670E+00  0.28624521346E+02  0.51100000000E-03 0.  1.
         12    1    3    3    0    0 -0.16307959702E+02 -0.27203089758E+00 -0.27131492212E+01  0.16534349977E+02  0.00000000000E+00 0. -1.
</event>
<event>
 7    1  0.2942034E-011  0.5052885E+02  0.7816164E-02  0.1300439E+00
        -11   -1    0    0    0    0  0.00000000000E+00  0.00000000000E+00  0.45593999997E+02  0.45594000000E+02  0.51100000000E-03 0. -1.
         11   -1    0    0    0    0 -0.00000000000E+00 -0.00000000000E+00 -0.45593999997E+02  0.45594000000E+02  0.51100000000E-03 0.  1.
    9900012    2    1    2    0    0  0.23560790243E+01 -0.40581282772E+02 -0.88034941899E+00  0.50528848080E+02  0.29999964223E+02 0.  0.
         12    1    1    2    0    0 -0.23560790243E+01  0.40581282772E+02  0.88034941899E+00  0.40659151920E+02  0.00000000000E+00 0. -1.
         11    1    3    3    0    0 -0.25791851844E+00 -0.31688422566E+02 -0.10579057498E+02  0.33408668104E+02  0.51100000000E-03 0. -1.
        -11    1    3    3    0    0 -0.29882205209E+01 -0.77396310060E+01  0.47705226568E+01  0.95702265736E+01  0.51100000000E-03 0.  1.
         12    1    3    3    0    0  0.56022180636E+01 -0.11532292003E+01  0.49281854223E+01  0.75499534023E+01  0.00000000000E+00 0. -1.
</event>
<event>
 7    1  0.2942034E-011  0.5052886E+02  0.7816164E-02  0.1300439E+00
        -11   -1    0    0    0    0  0.00000000000E+00  0.00000000000E+00  0.45593999997E+02  0.45594000000E+02  0.51100000000E-03 0. -1.
         11   -1    0    0    0    0 -0.00000000000E+00 -0.00000000000E+00 -0.45593999997E+02  0.45594000000E+02  0.51100000000E-03 0.  1.
    9900012    2    1    2    0    0 -0.17609539003E+02  0.34363942550E+02 -0.12735357890E+02  0.50528858936E+02  0.29999997222E+02 0.  0.
         12    1    1    2    0    0  0.17609539003E+02 -0.34363942550E+02  0.12735357890E+02  0.40659141064E+02  0.00000000000E+00 0. -1.
         11    1    3    3    0    0 -0.24456917175E+01  0.19495863066E+02  0.30289304313E+01  0.19880757141E+02  0.51100000000E-03 0.  1.
        -11    1    3    3    0    0 -0.15979926295E+02  0.17317490406E+02 -0.15083933311E+02  0.27978180119E+02  0.51100000000E-03 0. -1.
        -12    1    3    3    0    0  0.81607901014E+00 -0.24494109224E+01 -0.68035501084E+00  0.26699216765E+01  0.00000000000E+00 0.  1.
</event>
<event>
 7    1  0.2942034E-011  0.5052886E+02  0.7816164E-02  0.1300439E+00
        -11   -1    0    0    0    0  0.00000000000E+00  0.00000000000E+00  0.45593999997E+02  0.45594000000E+02  0.51100000000E-03 0.  1.
         11   -1    0    0    0    0 -0.00000000000E+00 -0.00000000000E+00 -0.45593999997E+02  0.45594000000E+02  0.51100000000E-03 0. -1.
    9900012    2    1    2    0    0  0.27574041019E+02  0.29780771226E+02  0.24380016439E+01  0.50528856810E+02  0.29999990759E+02 0.  0.
         12    1    1    2    0    0 -0.27574041019E+02 -0.29780771226E+02 -0.24380016439E+01  0.40659143190E+02  0.00000000000E+00 0. -1.
         11    1    3    3    0    0  0.45588057913E+01  0.20509249212E+02  0.73936089922E+01  0.22272796584E+02  0.51100000000E-03 0. -1.
        -11    1    3    3    0    0  0.20189825360E+02  0.83527780447E+01  0.70753302509E+00  0.21860890932E+02  0.51100000000E-03 0.  1.
         12    1    3    3    0    0  0.28254098682E+01  0.91874396977E+00 -0.56631403734E+01  0.63951692936E+01  0.00000000000E+00 0. -1.
</event>
<event>
 7    1  0.2942034E-011  0.5052885E+02  0.7816164E-02  0.1300439E+00
        -11   -1    0    0    0    0  0.00000000000E+00  0.00000000000E+00  0.45593999997E+02  0.45594000000E+02  0.51100000000E-03 0. -1.
         11   -1    0    0    0    0 -0.00000000000E+00 -0.00000000000E+00 -0.45593999997E+02  0.45594000000E+02  0.51100000000E-03 0.  1.
    9900012    2    1    2    0    0  0.34891337212E+02 -0.47666284199E+00 -0.20869438264E+02  0.50528854985E+02  0.29999985212E+02 0.  0.
         12    1    1    2    0    0 -0.34891337212E+02  0.47666284199E+00  0.20869438264E+02  0.40659145015E+02  0.00000000000E+00 0. -1.
         11    1    3    3    0    0 -0.17734416500E+01 -0.39981328144E+01  0.15181303202E+01  0.46297819838E+01  0.51100000000E-03 0. -1.
        -11    1    3    3    0    0  0.24606058250E+02 -0.28259454363E+01 -0.78708891373E+01  0.25988362131E+02  0.51100000000E-03 0.  1.
         12    1    3    3    0    0  0.12058720612E+02  0.63474154088E+01 -0.14516679447E+02  0.19910710870E+02  0.00000000000E+00 0. -1.
</event>
<event>
 7    1  0.2942034E-011  0.5052886E+02  0.7816164E-02  0.1300439E+00
        -11   -1    0    0    0    0  0.00000000000E+00  0.00000000000E+00  0.45593999997E+02  0.45594000000E+02  0.51100000000E-03 0.  1.
         11   -1    0    0    0    0 -0.00000000000E+00 -0.00000000000E+00 -0.45593999997E+02  0.45594000000E+02  0.51100000000E-03 0. -1.
    9900012    2    1    2    0    0 -0.49942081692E+01 -0.31066491734E+02  0.25750665683E+02  0.50528858260E+02  0.29999995169E+02 0.  0.
         12    1    1    2    0    0  0.49942081692E+01  0.31066491734E+02 -0.25750665683E+02  0.40659141740E+02  0.00000000000E+00 0. -1.
         11    1    3    3    0    0 -0.73174644283E+01  0.15674469495E+01  0.12106207069E+02  0.14232442709E+02  0.51100000000E-03 0. -1.
        -11    1    3    3    0    0  0.26402424183E+01 -0.29103912953E+02  0.92533824265E+01  0.30653445415E+02  0.51100000000E-03 0.  1.
        -12    1    3    3    0    0 -0.31698615910E+00 -0.35300257299E+01  0.43910761873E+01  0.56429701365E+01  0.00000000000E+00 0.  1.
</event>
<event>
 7    1  0.2942034E-011  0.5052886E+02  0.7816164E-02  0.1300439E+00
        -11   -1    0    0    0    0  0.00000000000E+00  0.00000000000E+00  0.45593999997E+02  0.45594000000E+02  0.51100000000E-03 0.  1.
         11   -1    0    0    0    0 -0.00000000000E+00 -0.00000000000E+00 -0.45593999997E+02  0.45594000000E+02  0.51100000000E-03 0. -1.
    9900012    2    1    2    0    0 -0.21514646195E+02 -0.34436858328E+02 -0.20949520578E+01  0.50528855438E+02  0.29999986589E+02 0.  0.
         12    1    1    2    0    0  0.21514646195E+02  0.34436858328E+02  0.20949520578E+01  0.40659144562E+02  0.00000000000E+00 0. -1.
         11    1    3    3    0    0 -0.64811885648E+01  0.47958609246E+01  0.10816393689E+01  0.81348651621E+01  0.51100000000E-03 0. -1.
        -11    1    3    3    0    0 -0.27779353685E+01 -0.13292448792E+02 -0.13414407692E+01  0.13645716669E+02  0.51100000000E-03 0.  1.
         12    1    3    3    0    0 -0.12255522262E+02 -0.25940270460E+02 -0.18351506575E+01  0.28748273607E+02  0.00000000000E+00 0. -1.
</event>
<event>
 7    1  0.2942034E-011  0.5052887E+02  0.7816164E-02  0.1300439E+00
        -11   -1    0    0    0    0  0.00000000000E+00  0.00000000000E+00  0.45593999997E+02  0.45594000000E+02  0.51100000000E-03 0.  1.
         11   -1    0    0    0    0 -0.00000000000E+00 -0.00000000000E+00 -0.45593999997E+02  0.45594000000E+02  0.51100000000E-03 0. -1.
    9900012    2    1    2    0    0  0.23610339371E+02  0.28564529692E+02  0.16726764695E+02  0.50528866476E+02  0.30000020141E+02 0.  0.
         12    1    1    2    0    0 -0.23610339371E+02 -0.28564529692E+02 -0.16726764695E+02  0.40659133524E+02  0.00000000000E+00 0. -1.
         11    1    3    3    0    0  0.17774871344E+00 -0.47514241646E-01 -0.98775083848E-01  0.20882764807E+00  0.51100000000E-03 0. -1.
        -11    1    3    3    0    0  0.26112564196E+02  0.25084589501E+02  0.22869358242E+02  0.42826512652E+02  0.51100000000E-03 0.  1.
        -12    1    3    3    0    0 -0.26799735380E+01  0.35274544331E+01 -0.60438184625E+01  0.74935261760E+01  0.00000000000E+00 0.  1.
</event>
<event>
 7    1  0.2942034E-011  0.5052886E+02  0.7816164E-02  0.1300439E+00
        -11   -1    0    0    0    0  0.00000000000E+00  0.00000000000E+00  0.45593999997E+02  0.45594000000E+02  0.51100000000E-03 0. -1.
         11   -1    0    0    0    0 -0.00000000000E+00 -0.00000000000E+00 -0.45593999997E+02  0.45594000000E+02  0.51100000000E-03 0.  1.
    9900012    2    1    2    0    0 -0.36198233979E+02 -0.83983078778E+01 -0.16502173011E+02  0.50528862866E+02  0.30000009167E+02 0.  0.
         12    1    1    2    0    0  0.36198233979E+02  0.83983078778E+01  0.16502173011E+02  0.40659137134E+02  0.00000000000E+00 0. -1.
         11    1    3    3    0    0 -0.24208035014E+01  0.56721464999E+01 -0.59492763654E+00  0.61957626377E+01  0.51100000000E-03 0. -1.
        -11    1    3    3    0    0 -0.32292332651E+02 -0.18145365472E+02 -0.14393544838E+02  0.39739440980E+02  0.51100000000E-03 0.  1.
        -12    1    3    3    0    0 -0.14850978271E+01  0.40749110939E+01 -0.15137005360E+01  0.45936592485E+01  0.00000000000E+00 0.  1.
</event>
<event>
 7    1  0.2942034E-011  0.5052886E+02  0.7816164E-02  0.1300439E+00
        -11   -1    0    0    0    0  0.00000000000E+00  0.00000000000E+00  0.45593999997E+02  0.45594000000E+02  0.51100000000E-03 0.  1.
         11   -1    0    0    0    0 -0.00000000000E+00 -0.00000000000E+00 -0.45593999997E+02  0.45594000000E+02  0.51100000000E-03 0. -1.
    9900012    2    1    2    0    0  0.21793421263E+02  0.34323861866E+02  0.29180706003E+00  0.50528857668E+02  0.29999993369E+02 0.  0.
         12    1    1    2    0    0 -0.21793421263E+02 -0.34323861866E+02 -0.29180706003E+00  0.40659142332E+02  0.00000000000E+00 0. -1.
         11    1    3    3    0    0  0.15528329267E+02  0.80914536123E+01  0.99886498508E+01  0.20158714182E+02  0.51100000000E-03 0.  1.
        -11    1    3    3    0    0  0.13114385498E+01  0.83440126644E+01  0.16625304001E+01  0.86085089305E+01  0.51100000000E-03 0. -1.
         12    1    3    3    0    0  0.49536534466E+01  0.17888395590E+02 -0.11359373191E+02  0.21761634555E+02  0.00000000000E+00 0. -1.
</event>
<event>
 7    1  0.2942034E-011  0.5052886E+02  0.7816164E-02  0.1300439E+00
        -11   -1    0    0    0    0  0.00000000000E+00  0.00000000000E+00  0.45593999997E+02  0.45594000000E+02  0.51100000000E-03 0.  1.
         11   -1    0    0    0    0 -0.00000000000E+00 -0.00000000000E+00 -0.45593999997E+02  0.45594000000E+02  0.51100000000E-03 0. -1.
    9900012    2    1    2    0    0  0.24769386769E+02 -0.27401954070E+02  0.16993414558E+02  0.50528859009E+02  0.29999997444E+02 0.  0.
         12    1    1    2    0    0 -0.24769386769E+02  0.27401954070E+02 -0.16993414558E+02  0.40659140991E+02  0.00000000000E+00 0. -1.
         11    1    3    3    0    0  0.11756426407E+02 -0.85767611837E+01 -0.51024367916E+01  0.15421065324E+02  0.51100000000E-03 0. -1.
        -11    1    3    3    0    0  0.11894750939E+02 -0.20541847859E+02  0.22827375120E+02  0.32932380244E+02  0.51100000000E-03 0.  1.
         12    1    3    3    0    0  0.11182094232E+01  0.17166549732E+01 -0.73152377100E+00  0.21754134408E+01  0.00000000000E+00 0. -1.
</event>
<event>
 7    1  0.2942034E-011  0.5052886E+02  0.7816164E-02  0.1300439E+00
        -11   -1    0    0    0    0  0.00000000000E+00  0.00000000000E+00  0.45593999997E+02  0.45594000000E+02  0.51100000000E-03 0.  1.
         11   -1    0    0    0    0 -0.00000000000E+00 -0.00000000000E+00 -0.45593999997E+02  0.45594000000E+02  0.51100000000E-03 0. -1.
    9900012    2    1    2    0    0 -0.19890013551E+02  0.20051510828E+02  0.29248762734E+02  0.50528857769E+02  0.29999993674E+02 0.  0.
         12    1    1    2    0    0  0.19890013551E+02 -0.20051510828E+02 -0.29248762734E+02  0.40659142231E+02  0.00000000000E+00 0. -1.
         11    1    3    3    0    0 -0.17365036541E+02  0.43993614954E+01  0.65876636617E+01  0.19086544696E+02  0.51100000000E-03 0.  1.
        -11    1    3    3    0    0  0.19784725755E+00  0.17404033650E+02  0.14469871428E+02  0.22634414290E+02  0.51100000000E-03 0. -1.
         12    1    3    3    0    0 -0.27228242672E+01 -0.17518843179E+01  0.81912276445E+01  0.88078987833E+01  0.00000000000E+00 0. -1.
</event>
<event>
 7    1  0.2942034E-011  0.5052887E+02  0.7816164E-02  0.1300439E+00
        -11   -1    0    0    0    0  0.00000000000E+00  0.00000000000E+00  0.45593999997E+02  0.45594000000E+02  0.51100000000E-03 0. -1.
         11   -1    0    0    0    0 -0.00000000000E+00 -0.00000000000E+00 -0.45593999997E+02  0.45594000000E+02  0.51100000000E-03 0.  1.
    9900012    2    1    2    0    0 -0.17483188868E+02 -0.17841154675E+02 -0.32081084840E+02  0.50528871903E+02  0.30000036636E+02 0.  0.
         12    1    1    2    0    0  0.17483188868E+02  0.17841154675E+02  0.32081084840E+02  0.40659128097E+02  0.00000000000E+00 0. -1.
         11    1    3    3    0    0 -0.24541140749E+01  0.51088174270E+01  0.20625262409E+01  0.60313104837E+01  0.51100000000E-03 0. -1.
        -11    1    3    3    0    0 -0.11108830396E+02 -0.16761912567E+02 -0.29896401371E+02  0.36030024159E+02  0.51100000000E-03 0.  1.
        -12    1    3    3    0    0 -0.39202443968E+01 -0.61880595351E+01 -0.42472097091E+01  0.84675372602E+01  0.00000000000E+00 0.  1.
</event>
<event>
 7    1  0.2942034E-011  0.5052886E+02  0.7816164E-02  0.1300439E+00
        -11   -1    0    0    0    0  0.00000000000E+00  0.00000000000E+00  0.45593999997E+02  0.45594000000E+02  0.51100000000E-03 0. -1.
         11   -1    0    0    0    0 -0.00000000000E+00 -0.00000000000E+00 -0.45593999997E+02  0.45594000000E+02  0.51100000000E-03 0.  1.
    9900012    2    1    2    0    0 -0.12181792922E+02  0.35214773180E+02  0.16269274690E+02  0.50528860463E+02  0.30000001865E+02 0.  0.
         12    1    1    2    0    0  0.12181792922E+02 -0.35214773180E+02 -0.16269274690E+02  0.40659139537E+02  0.00000000000E+00 0. -1.
         11    1    3    3    0    0  0.26467883343E+00 -0.50315622709E+01  0.15862798136E+01  0.52823250259E+01  0.51100000000E-03 0. -1.
        -11    1    3    3    0    0 -0.42341018230E+01  0.94661460160E+01  0.68902582289E+01  0.12450349287E+02  0.51100000000E-03 0.  1.
         12    1    3    3    0    0 -0.82123699322E+01  0.30780189435E+02  0.77927366473E+01  0.32796186151E+02  0.00000000000E+00 0. -1.
</event>
<event>
 7    1  0.2942034E-011  0.5052886E+02  0.7816164E-02  0.1300439E+00
        -11   -1    0    0    0    0  0.00000000000E+00  0.00000000000E+00  0.45593999997E+02  0.45594000000E+02  0.51100000000E-03 0.  1.
         11   -1    0    0    0    0 -0.00000000000E+00 -0.00000000000E+00 -0.45593999997E+02  0.45594000000E+02  0.51100000000E-03 0. -1.
    9900012    2    1    2    0    0  0.16568232482E+02  0.37129480117E+02 -0.24702145232E+00  0.50528860303E+02  0.30000001377E+02 0.  0.
         12    1    1    2    0    0 -0.16568232482E+02 -0.37129480117E+02  0.24702145232E+00  0.40659139697E+02  0.00000000000E+00 0. -1.
         11    1    3    3    0    0  0.64710781143E+01 -0.16077911589E+01  0.12195068685E+01  0.67784247164E+01  0.51100000000E-03 0. -1.
        -11    1    3    3    0    0  0.17505665840E+01  0.28145547208E+02 -0.71881462231E+01  0.29101645269E+02  0.51100000000E-03 0.  1.
        -12    1    3    3    0    0  0.83465877833E+01  0.10591724068E+02  0.57216179022E+01  0.14648790318E+02  0.00000000000E+00 0.  1.
</event>
<event>
 7    1  0.2942034E-011  0.5052886E+02  0.7816164E-02  0.1300439E+00
        -11   -1    0    0    0    0  0.00000000000E+00  0.00000000000E+00  0.45593999997E+02  0.45594000000E+02  0.51100000000E-03 0.  1.
         11   -1    0    0    0    0 -0.00000000000E+00 -0.00000000000E+00 -0.45593999997E+02  0.45594000000E+02  0.51100000000E-03 0. -1.
    9900012    2    1    2    0    0 -0.30817047401E+02 -0.88354516909E+01  0.25008203518E+02  0.50528857605E+02  0.29999993177E+02 0.  0.
         12    1    1    2    0    0  0.30817047401E+02  0.88354516909E+01 -0.25008203518E+02  0.40659142395E+02  0.00000000000E+00 0. -1.
         11    1    3    3    0    0  0.11438732010E+01  0.18377638350E+01 -0.44380168044E+00  0.22097017912E+01  0.51100000000E-03 0. -1.
        -11    1    3    3    0    0 -0.15376511462E+02 -0.17338466592E+02  0.13546695974E+02  0.26843481528E+02  0.51100000000E-03 0.  1.
        -12    1    3    3    0    0 -0.16584409140E+02  0.66652510659E+01  0.11905309224E+02  0.21475674286E+02  0.00000000000E+00 0.  1.
</event>
<event>
 7    1  0.2942034E-011  0.5052881E+02  0.7816164E-02  0.1300439E+00
        -11   -1    0    0    0    0  0.00000000000E+00  0.00000000000E+00  0.45593999997E+02  0.45594000000E+02  0.51100000000E-03 0.  1.
         11   -1    0    0    0    0 -0.00000000000E+00 -0.00000000000E+00 -0.45593999997E+02  0.45594000000E+02  0.51100000000E-03 0. -1.
    9900012    2    1    2    0    0 -0.20413016144E+02  0.82543461460E+01  0.34181055818E+02  0.50528806264E+02  0.29999837120E+02 0.  0.
         12    1    1    2    0    0  0.20413016144E+02 -0.82543461460E+01 -0.34181055818E+02  0.40659193736E+02  0.00000000000E+00 0. -1.
         11    1    3    3    0    0  0.35537040268E+01 -0.97129162644E+00  0.29371304394E+01  0.47115767226E+01  0.51100000000E-03 0. -1.
        -11    1    3    3    0    0 -0.16961313008E+02 -0.32959899884E+01  0.24457236506E+02  0.29945051457E+02  0.51100000000E-03 0.  1.
        -12    1    3    3    0    0 -0.70054071627E+01  0.12521627761E+02  0.67866888728E+01  0.15872178085E+02  0.00000000000E+00 0.  1.
</event>
<event>
 7    1  0.2942034E-011  0.5052886E+02  0.7816164E-02  0.1300439E+00
        -11   -1    0    0    0    0  0.00000000000E+00  0.00000000000E+00  0.45593999997E+02  0.45594000000E+02  0.51100000000E-03 0.  1.
         11   -1    0    0    0    0 -0.00000000000E+00 -0.00000000000E+00 -0.45593999997E+02  0.45594000000E+02  0.51100000000E-03 0. -1.
    9900012    2    1    2    0    0 -0.48016966263E+01  0.50292504826E+01  0.40060157228E+02  0.50528857755E+02  0.29999993633E+02 0.  0.
         12    1    1    2    0    0  0.48016966263E+01 -0.50292504826E+01 -0.40060157228E+02  0.40659142245E+02  0.00000000000E+00 0. -1.
         11    1    3    3    0    0  0.10275476784E+00 -0.44916796266E+01  0.17313028182E+01  0.48148887962E+01  0.51100000000E-03 0. -1.
        -11    1    3    3    0    0  0.13293604991E+01  0.15523729838E+02  0.19258311993E+02  0.24771676740E+02  0.51100000000E-03 0.  1.
        -12    1    3    3    0    0 -0.62338118933E+01 -0.60027997292E+01  0.19070542417E+02  0.20942292219E+02  0.00000000000E+00 0.  1.
</event>
<event>
 7    1  0.2942034E-011  0.5052886E+02  0.7816164E-02  0.1300439E+00
        -11   -1    0    0    0    0  0.00000000000E+00  0.00000000000E+00  0.45593999997E+02  0.45594000000E+02  0.51100000000E-03 0.  1.
         11   -1    0    0    0    0 -0.00000000000E+00 -0.00000000000E+00 -0.45593999997E+02  0.45594000000E+02  0.51100000000E-03 0. -1.
    9900012    2    1    2    0    0  0.28993039274E+02 -0.22948357333E+02  0.16909824717E+02  0.50528860774E+02  0.30000002810E+02 0.  0.
         12    1    1    2    0    0 -0.28993039274E+02  0.22948357333E+02 -0.16909824717E+02  0.40659139226E+02  0.00000000000E+00 0. -1.
         11    1    3    3    0    0  0.40895270119E+00 -0.21170656575E+00  0.90188542135E+01  0.90306031674E+01  0.51100000000E-03 0. -1.
        -11    1    3    3    0    0  0.20353799394E+02 -0.23858046266E+02  0.22166533308E+01  0.31438782955E+02  0.51100000000E-03 0.  1.
         12    1    3    3    0    0  0.82302871783E+01  0.11213954993E+01  0.56743171731E+01  0.10059474652E+02  0.00000000000E+00 0. -1.
</event>
<event>
 7    1  0.2942034E-011  0.5052885E+02  0.7816164E-02  0.1300439E+00
        -11   -1    0    0    0    0  0.00000000000E+00  0.00000000000E+00  0.45593999997E+02  0.45594000000E+02  0.51100000000E-03 0.  1.
         11   -1    0    0    0    0 -0.00000000000E+00 -0.00000000000E+00 -0.45593999997E+02  0.45594000000E+02  0.51100000000E-03 0. -1.
    9900012    2    1    2    0    0 -0.28832573883E+02  0.10527969914E+02  0.26664788925E+02  0.50528850530E+02  0.29999971670E+02 0.  0.
         12    1    1    2    0    0  0.28832573883E+02 -0.10527969914E+02 -0.26664788925E+02  0.40659149470E+02  0.00000000000E+00 0. -1.
         11    1    3    3    0    0 -0.16779436412E+02 -0.69363131854E+01  0.65743863939E+01  0.19310217079E+02  0.51100000000E-03 0. -1.
        -11    1    3    3    0    0 -0.31447734337E+01  0.12795979431E+02  0.14935018746E+02  0.19916864079E+02  0.51100000000E-03 0.  1.
         12    1    3    3    0    0 -0.89083640370E+01  0.46683036685E+01  0.51553837860E+01  0.11301769372E+02  0.00000000000E+00 0. -1.
</event>
<event>
 7    1  0.2942034E-011  0.5052886E+02  0.7816164E-02  0.1300439E+00
        -11   -1    0    0    0    0  0.00000000000E+00  0.00000000000E+00  0.45593999997E+02  0.45594000000E+02  0.51100000000E-03 0. -1.
         11   -1    0    0    0    0 -0.00000000000E+00 -0.00000000000E+00 -0.45593999997E+02  0.45594000000E+02  0.51100000000E-03 0.  1.
    9900012    2    1    2    0    0  0.16354281252E+02 -0.36537259251E+02 -0.71226466542E+01  0.50528856819E+02  0.29999990788E+02 0.  0.
         12    1    1    2    0    0 -0.16354281252E+02  0.36537259251E+02  0.71226466542E+01  0.40659143181E+02  0.00000000000E+00 0. -1.
         11    1    3    3    0    0 -0.42079350603E+01 -0.17123447617E+02 -0.75996796392E+01  0.19200893381E+02  0.51100000000E-03 0. -1.
        -11    1    3    3    0    0  0.11191196016E+02 -0.18868182388E+02  0.32890908652E+00  0.21939903290E+02  0.51100000000E-03 0.  1.
         12    1    3    3    0    0  0.93710202959E+01 -0.54562924547E+00  0.14812389845E+00  0.93880601483E+01  0.00000000000E+00 0. -1.
</event>
<event>
 7    1  0.2942034E-011  0.5052878E+02  0.7816164E-02  0.1300439E+00
        -11   -1    0    0    0    0  0.00000000000E+00  0.00000000000E+00  0.45593999997E+02  0.45594000000E+02  0.51100000000E-03 0.  1.
         11   -1    0    0    0    0 -0.00000000000E+00 -0.00000000000E+00 -0.45593999997E+02  0.45594000000E+02  0.51100000000E-03 0. -1.
    9900012    2    1    2    0    0 -0.13685231390E+02 -0.35180092682E+02  0.15107871729E+02  0.50528778813E+02  0.29999753680E+02 0.  0.
         12    1    1    2    0    0  0.13685231390E+02  0.35180092682E+02 -0.15107871729E+02  0.40659221187E+02  0.00000000000E+00 0. -1.
         11    1    3    3    0    0  0.79950934461E+01 -0.14066750712E+02  0.86843150861E+01  0.18363341841E+02  0.51100000000E-03 0. -1.
        -11    1    3    3    0    0 -0.11225011608E+02 -0.60799170504E+01  0.52907177598E+01  0.13818754344E+02  0.51100000000E-03 0.  1.
         12    1    3    3    0    0 -0.10455313228E+02 -0.15033424920E+02  0.11328388829E+01  0.18346682628E+02  0.00000000000E+00 0. -1.
</event>
<event>
 7    1  0.2942034E-011  0.5052886E+02  0.7816164E-02  0.1300439E+00
        -11   -1    0    0    0    0  0.00000000000E+00  0.00000000000E+00  0.45593999997E+02  0.45594000000E+02  0.51100000000E-03 0.  1.
         11   -1    0    0    0    0 -0.00000000000E+00 -0.00000000000E+00 -0.45593999997E+02  0.45594000000E+02  0.51100000000E-03 0. -1.
    9900012    2    1    2    0    0  0.14550761576E+02 -0.27251201177E+02  0.26435070930E+02  0.50528860768E+02  0.30000002789E+02 0.  0.
         12    1    1    2    0    0 -0.14550761576E+02  0.27251201177E+02 -0.26435070930E+02  0.40659139232E+02  0.00000000000E+00 0. -1.
         11    1    3    3    0    0 -0.30804462594E+01 -0.19319298645E+01 -0.48249581508E+01  0.60416656293E+01  0.51100000000E-03 0. -1.
        -11    1    3    3    0    0  0.14273750869E+02 -0.22827882810E+02  0.29534598530E+02  0.39964292913E+02  0.51100000000E-03 0.  1.
         12    1    3    3    0    0  0.33574569667E+01 -0.24913885034E+01  0.17254305506E+01  0.45229022257E+01  0.00000000000E+00 0. -1.
</event>
<event>
 7    1  0.2942034E-011  0.5052886E+02  0.7816164E-02  0.1300439E+00
        -11   -1    0    0    0    0  0.00000000000E+00  0.00000000000E+00  0.45593999997E+02  0.45594000000E+02  0.51100000000E-03 0. -1.
         11   -1    0    0    0    0 -0.00000000000E+00 -0.00000000000E+00 -0.45593999997E+02  0.45594000000E+02  0.51100000000E-03 0.  1.
    9900012    2    1    2    0    0  0.22863865145E+02  0.30707088264E+02  0.13692478021E+02  0.50528861379E+02  0.30000004648E+02 0.  0.
         12    1    1    2    0    0 -0.22863865145E+02 -0.30707088264E+02 -0.13692478021E+02  0.40659138621E+02  0.00000000000E+00 0. -1.
         11    1    3    3    0    0  0.24916283873E+02  0.10123236954E+02  0.57114210351E+01  0.27494025878E+02  0.51100000000E-03 0. -1.
        -11    1    3    3    0    0 -0.28185121838E+01  0.87036311087E+01  0.92329312466E+00  0.91950897691E+01  0.51100000000E-03 0.  1.
         12    1    3    3    0    0  0.76609345562E+00  0.11880220201E+02  0.70577638615E+01  0.13839745733E+02  0.00000000000E+00 0. -1.
</event>
<event>
 7    1  0.2942034E-011  0.5052886E+02  0.7816164E-02  0.1300439E+00
        -11   -1    0    0    0    0  0.00000000000E+00  0.00000000000E+00  0.45593999997E+02  0.45594000000E+02  0.51100000000E-03 0.  1.
         11   -1    0    0    0    0 -0.00000000000E+00 -0.00000000000E+00 -0.45593999997E+02  0.45594000000E+02  0.51100000000E-03 0. -1.
    9900012    2    1    2    0    0 -0.33024651143E+02 -0.20831658021E+02  0.11339301782E+02  0.50528864201E+02  0.30000013226E+02 0.  0.
         12    1    1    2    0    0  0.33024651143E+02  0.20831658021E+02 -0.11339301782E+02  0.40659135799E+02  0.00000000000E+00 0. -1.
         11    1    3    3    0    0 -0.71391708391E+01 -0.14264204932E+02 -0.27386822984E+01  0.16184427195E+02  0.51100000000E-03 0. -1.
        -11    1    3    3    0    0 -0.77189142694E+01  0.14658515207E+01  0.12039851102E+02  0.14376660704E+02  0.51100000000E-03 0.  1.
        -12    1    3    3    0    0 -0.18166566034E+02 -0.80333046094E+01  0.20381329778E+01  0.19967776302E+02  0.00000000000E+00 0.  1.
</event>
<event>
 7    1  0.2942034E-011  0.5052887E+02  0.7816164E-02  0.1300439E+00
        -11   -1    0    0    0    0  0.00000000000E+00  0.00000000000E+00  0.45593999997E+02  0.45594000000E+02  0.51100000000E-03 0.  1.
         11   -1    0    0    0    0 -0.00000000000E+00 -0.00000000000E+00 -0.45593999997E+02  0.45594000000E+02  0.51100000000E-03 0. -1.
    9900012    2    1    2    0    0 -0.33851607851E+02  0.22394157605E+02 -0.23947749901E+01  0.50528873150E+02  0.30000040426E+02 0.  0.
         12    1    1    2    0    0  0.33851607851E+02 -0.22394157605E+02  0.23947749901E+01  0.40659126850E+02  0.00000000000E+00 0. -1.
         11    1    3    3    0    0  0.42139053678E+01  0.12994851289E+01 -0.27932697367E+01  0.52199632309E+01  0.51100000000E-03 0. -1.
        -11    1    3    3    0    0 -0.35829104273E+02  0.20863716927E+02  0.33527891750E+01  0.41596401197E+02  0.51100000000E-03 0.  1.
         12    1    3    3    0    0 -0.22364089460E+01  0.23095554929E+00 -0.29542944284E+01  0.37125087218E+01  0.00000000000E+00 0. -1.
</event>
<event>
 7    1  0.2942034E-011  0.5052889E+02  0.7816164E-02  0.1300439E+00
        -11   -1    0    0    0    0  0.00000000000E+00  0.00000000000E+00  0.45593999997E+02  0.45594000000E+02  0.51100000000E-03 0. -1.
         11   -1    0    0    0    0 -0.00000000000E+00 -0.00000000000E+00 -0.45593999997E+02  0.45594000000E+02  0.51100000000E-03 0.  1.
    9900012    2    1    2    0    0 -0.29705661120E+02 -0.24957483418E+02  0.12159809473E+02  0.50528889735E+02  0.30000090838E+02 0.  0.
         12    1    1    2    0    0  0.29705661120E+02  0.24957483418E+02 -0.12159809473E+02  0.40659110265E+02  0.00000000000E+00 0. -1.
         11    1    3    3    0    0 -0.33131484315E+02 -0.20499834877E+02  0.39969625083E+01  0.39165216614E+02  0.51100000000E-03 0.  1.
        -11    1    3    3    0    0  0.75296019251E+00 -0.18213505511E+01  0.72320322684E+01  0.74957693317E+01  0.51100000000E-03 0. -1.
        -12    1    3    3    0    0  0.26728630024E+01 -0.26362979897E+01  0.93081469637E+00  0.38679037887E+01  0.00000000000E+00 0.  1.
</event>
<event>
 7    1  0.2942034E-011  0.5052892E+02  0.7816164E-02  0.1300439E+00
        -11   -1    0    0    0    0  0.00000000000E+00  0.00000000000E+00  0.45593999997E+02  0.45594000000E+02  0.51100000000E-03 0.  1.
         11   -1    0    0    0    0 -0.00000000000E+00 -0.00000000000E+00 -0.45593999997E+02  0.45594000000E+02  0.51100000000E-03 0. -1.
    9900012    2    1    2    0    0  0.13797249587E+02  0.36220476608E+02  0.12283067052E+02  0.50528920349E+02  0.30000183893E+02 0.  0.
         12    1    1    2    0    0 -0.13797249587E+02 -0.36220476608E+02 -0.12283067052E+02  0.40659079651E+02  0.00000000000E+00 0. -1.
         11    1    3    3    0    0  0.99207585674E+01  0.13675964621E+02 -0.27097988843E+01  0.17111296535E+02  0.51100000000E-03 0. -1.
        -11    1    3    3    0    0  0.44502441090E+01  0.21790646359E+01  0.11796431273E+02  0.12794873440E+02  0.51100000000E-03 0.  1.
         12    1    3    3    0    0 -0.57375308982E+00  0.20365447351E+02  0.31964346640E+01  0.20622750374E+02  0.00000000000E+00 0. -1.
</event>
<event>
 7    1  0.2942034E-011  0.5052886E+02  0.7816164E-02  0.1300439E+00
        -11   -1    0    0    0    0  0.00000000000E+00  0.00000000000E+00  0.45593999997E+02  0.45594000000E+02  0.51100000000E-03 0.  1.
         11   -1    0    0    0    0 -0.00000000000E+00 -0.00000000000E+00 -0.45593999997E+02  0.45594000000E+02  0.51100000000E-03 0. -1.
    9900012    2    1    2    0    0  0.93393571376E+01 -0.33673289974E+02  0.20785848128E+02  0.50528861644E+02  0.30000005454E+02 0.  0.
         12    1    1    2    0    0 -0.93393571376E+01  0.33673289974E+02 -0.20785848128E+02  0.40659138356E+02  0.00000000000E+00 0. -1.
         11    1    3    3    0    0  0.10242536814E+01 -0.21218626866E+02 -0.36740685735E+01  0.21558710579E+02  0.51100000000E-03 0. -1.
        -11    1    3    3    0    0  0.32935632670E+01 -0.23774109411E+01  0.87003068153E+01  0.96018217395E+01  0.51100000000E-03 0.  1.
         12    1    3    3    0    0  0.50215401892E+01 -0.10077252167E+02  0.15759609887E+02  0.19368329326E+02  0.00000000000E+00 0. -1.
</event>
<event>
 7    1  0.2942034E-011  0.5052886E+02  0.7816164E-02  0.1300439E+00
        -11   -1    0    0    0    0  0.00000000000E+00  0.00000000000E+00  0.45593999997E+02  0.45594000000E+02  0.51100000000E-03 0.  1.
         11   -1    0    0    0    0 -0.00000000000E+00 -0.00000000000E+00 -0.45593999997E+02  0.45594000000E+02  0.51100000000E-03 0. -1.
    9900012    2    1    2    0    0 -0.25507440671E+02 -0.87113436752E+01  0.30440902322E+02  0.50528861146E+02  0.30000003939E+02 0.  0.
         12    1    1    2    0    0  0.25507440671E+02  0.87113436752E+01 -0.30440902322E+02  0.40659138854E+02  0.00000000000E+00 0. -1.
         11    1    3    3    0    0  0.86252093640E+00  0.54868911206E+01  0.60438750340E+01  0.82084311670E+01  0.51100000000E-03 0. -1.
        -11    1    3    3    0    0 -0.15127543135E+02 -0.40750378645E+01  0.21992275249E+02  0.27002012254E+02  0.51100000000E-03 0.  1.
        -12    1    3    3    0    0 -0.11242418473E+02 -0.10123196931E+02  0.24047520385E+01  0.15318417725E+02  0.00000000000E+00 0.  1.
</event>
<event>
 7    1  0.2942034E-011  0.5052886E+02  0.7816164E-02  0.1300439E+00
        -11   -1    0    0    0    0  0.00000000000E+00  0.00000000000E+00  0.45593999997E+02  0.45594000000E+02  0.51100000000E-03 0. -1.
         11   -1    0    0    0    0 -0.00000000000E+00 -0.00000000000E+00 -0.45593999997E+02  0.45594000000E+02  0.51100000000E-03 0.  1.
    9900012    2    1    2    0    0  0.14020041228E+02 -0.24064070228E+02 -0.29623035678E+02  0.50528864805E+02  0.30000015063E+02 0.  0.
         12    1    1    2    0    0 -0.14020041228E+02  0.24064070228E+02  0.29623035678E+02  0.40659135195E+02  0.00000000000E+00 0. -1.
         11    1    3    3    0    0 -0.57869123644E+01 -0.81007963373E+01 -0.18622638432E+01  0.10128143112E+02  0.51100000000E-03 0. -1.
        -11    1    3    3    0    0  0.22162319476E+02 -0.14714910176E+02 -0.26051273163E+02  0.37233933712E+02  0.51100000000E-03 0.  1.
        -12    1    3    3    0    0 -0.23553658832E+01 -0.12483637147E+01 -0.17094986723E+01  0.31667879813E+01  0.00000000000E+00 0.  1.
</event>
<event>
 7    1  0.2942034E-011  0.5052885E+02  0.7816164E-02  0.1300439E+00
        -11   -1    0    0    0    0  0.00000000000E+00  0.00000000000E+00  0.45593999997E+02  0.45594000000E+02  0.51100000000E-03 0.  1.
         11   -1    0    0    0    0 -0.00000000000E+00 -0.00000000000E+00 -0.45593999997E+02  0.45594000000E+02  0.51100000000E-03 0. -1.
    9900012    2    1    2    0    0 -0.30684869165E+02 -0.25622873761E+02  0.74211640742E+01  0.50528849349E+02  0.29999968081E+02 0.  0.
         12    1    1    2    0    0  0.30684869165E+02  0.25622873761E+02 -0.74211640742E+01  0.40659150651E+02  0.00000000000E+00 0. -1.
         11    1    3    3    0    0  0.51676585615E+01 -0.58803284394E+01  0.29302550202E+01  0.83587889259E+01  0.51100000000E-03 0. -1.
        -11    1    3    3    0    0 -0.26526588082E+02 -0.13076097245E+02  0.70968585000E+01  0.30413970396E+02  0.51100000000E-03 0.  1.
         12    1    3    3    0    0 -0.93259396446E+01 -0.66664480764E+01 -0.26059494459E+01  0.11756090027E+02  0.00000000000E+00 0. -1.
</event>
<event>
 7    1  0.2942034E-011  0.5052886E+02  0.7816164E-02  0.1300439E+00
        -11   -1    0    0    0    0  0.00000000000E+00  0.00000000000E+00  0.45593999997E+02  0.45594000000E+02  0.51100000000E-03 0. -1.
         11   -1    0    0    0    0 -0.00000000000E+00 -0.00000000000E+00 -0.45593999997E+02  0.45594000000E+02  0.51100000000E-03 0.  1.
    9900012    2    1    2    0    0 -0.61997276992E+01  0.34033833598E+02 -0.21364158999E+02  0.50528859052E+02  0.29999997573E+02 0.  0.
         12    1    1    2    0    0  0.61997276992E+01 -0.34033833598E+02  0.21364158999E+02  0.40659140948E+02  0.00000000000E+00 0. -1.
         11    1    3    3    0    0 -0.72350752123E+01  0.21890585716E+02  0.50589743592E+00  0.23060788989E+02  0.51100000000E-03 0. -1.
        -11    1    3    3    0    0  0.38606999416E+01  0.10235256760E+02 -0.90348851203E+01  0.14187834027E+02  0.51100000000E-03 0.  1.
         12    1    3    3    0    0 -0.28253524285E+01  0.19079911215E+01 -0.12835171315E+02  0.13280236035E+02  0.00000000000E+00 0. -1.
</event>
<event>
 7    1  0.2942034E-011  0.5052886E+02  0.7816164E-02  0.1300439E+00
        -11   -1    0    0    0    0  0.00000000000E+00  0.00000000000E+00  0.45593999997E+02  0.45594000000E+02  0.51100000000E-03 0.  1.
         11   -1    0    0    0    0 -0.00000000000E+00 -0.00000000000E+00 -0.45593999997E+02  0.45594000000E+02  0.51100000000E-03 0. -1.
    9900012    2    1    2    0    0 -0.27221357101E+02 -0.30119866820E+02 -0.22264052663E+01  0.50528861542E+02  0.30000005145E+02 0.  0.
         12    1    1    2    0    0  0.27221357101E+02  0.30119866820E+02  0.22264052663E+01  0.40659138458E+02  0.00000000000E+00 0. -1.
         11    1    3    3    0    0 -0.13412245858E+02 -0.14815871728E+01  0.57738677270E+01  0.14677226860E+02  0.51100000000E-03 0. -1.
        -11    1    3    3    0    0 -0.28898601744E+01 -0.20172160337E+02 -0.83694278810E+01  0.22029858552E+02  0.51100000000E-03 0.  1.
        -12    1    3    3    0    0 -0.10919251068E+02 -0.84661193103E+01  0.36915488776E+00  0.13821776130E+02  0.00000000000E+00 0.  1.
</event>
<event>
 7    1  0.2942034E-011  0.5052886E+02  0.7816164E-02  0.1300439E+00
        -11   -1    0    0    0    0  0.00000000000E+00  0.00000000000E+00  0.45593999997E+02  0.45594000000E+02  0.51100000000E-03 0. -1.
         11   -1    0    0    0    0 -0.00000000000E+00 -0.00000000000E+00 -0.45593999997E+02  0.45594000000E+02  0.51100000000E-03 0.  1.
    9900012    2    1    2    0    0 -0.18238549199E+01  0.15288645923E+02 -0.37631061937E+02  0.50528856336E+02  0.29999989320E+02 0.  0.
         12    1    1    2    0    0  0.18238549199E+01 -0.15288645923E+02  0.37631061937E+02  0.40659143664E+02  0.00000000000E+00 0. -1.
         11    1    3    3    0    0  0.12966944215E+00 -0.36589729445E+01 -0.13767818777E+02  0.14246323431E+02  0.51100000000E-03 0. -1.
        -11    1    3    3    0    0 -0.47129881517E+01  0.76116824187E+01  0.81069901662E+00  0.89892824918E+01  0.51100000000E-03 0.  1.
        -12    1    3    3    0    0  0.27594637896E+01  0.11335936449E+02 -0.24673942177E+02  0.27293250414E+02  0.00000000000E+00 0.  1.
</event>
<event>
 7    1  0.2942034E-011  0.5052885E+02  0.7816164E-02  0.1300439E+00
        -11   -1    0    0    0    0  0.00000000000E+00  0.00000000000E+00  0.45593999997E+02  0.45594000000E+02  0.51100000000E-03 0. -1.
         11   -1    0    0    0    0 -0.00000000000E+00 -0.00000000000E+00 -0.45593999997E+02  0.45594000000E+02  0.51100000000E-03 0.  1.
    9900012    2    1    2    0    0  0.40006060268E+02  0.13091111935E+01 -0.71391533648E+01  0.50528854153E+02  0.29999982682E+02 0.  0.
         12    1    1    2    0    0 -0.40006060268E+02 -0.13091111935E+01  0.71391533648E+01  0.40659145847E+02  0.00000000000E+00 0. -1.
         11    1    3    3    0    0  0.15703361247E+02  0.23747088241E+01  0.15066118558E+01  0.15953202688E+02  0.51100000000E-03 0. -1.
        -11    1    3    3    0    0  0.19854160376E+02  0.53591282391E+01 -0.14197738132E+02  0.24989672027E+02  0.51100000000E-03 0.  1.
        -12    1    3    3    0    0  0.44485386450E+01 -0.64247258697E+01  0.55519729110E+01  0.95859794377E+01  0.00000000000E+00 0.  1.
</event>
<event>
 7    1  0.2942034E-011  0.5052886E+02  0.7816164E-02  0.1300439E+00
        -11   -1    0    0    0    0  0.00000000000E+00  0.00000000000E+00  0.45593999997E+02  0.45594000000E+02  0.51100000000E-03 0. -1.
         11   -1    0    0    0    0 -0.00000000000E+00 -0.00000000000E+00 -0.45593999997E+02  0.45594000000E+02  0.51100000000E-03 0.  1.
    9900012    2    1    2    0    0  0.10032554157E+02  0.86564227482E+01 -0.38439296500E+02  0.50528864334E+02  0.30000013630E+02 0.  0.
         12    1    1    2    0    0 -0.10032554157E+02 -0.86564227482E+01  0.38439296500E+02  0.40659135666E+02  0.00000000000E+00 0. -1.
         11    1    3    3    0    0 -0.14191825409E+01  0.26459694553E+00 -0.29012952938E+01  0.32406180384E+01  0.51100000000E-03 0. -1.
        -11    1    3    3    0    0  0.45778325604E+01  0.43288226451E+01 -0.38318557862E+02  0.38833067524E+02  0.51100000000E-03 0.  1.
        -12    1    3    3    0    0  0.68739041375E+01  0.40630031576E+01  0.27805566557E+01  0.84551787720E+01  0.00000000000E+00 0.  1.
</event>
<event>
 7    1  0.2942034E-011  0.5052885E+02  0.7816164E-02  0.1300439E+00
        -11   -1    0    0    0    0  0.00000000000E+00  0.00000000000E+00  0.45593999997E+02  0.45594000000E+02  0.51100000000E-03 0.  1.
         11   -1    0    0    0    0 -0.00000000000E+00 -0.00000000000E+00 -0.45593999997E+02  0.45594000000E+02  0.51100000000E-03 0. -1.
    9900012    2    1    2    0    0 -0.66882055648E+01 -0.28617610476E+02  0.28097447661E+02  0.50528852344E+02  0.29999977185E+02 0.  0.
         12    1    1    2    0    0  0.66882055648E+01  0.28617610476E+02 -0.28097447661E+02  0.40659147656E+02  0.00000000000E+00 0. -1.
         11    1    3    3    0    0 -0.77138084977E+01 -0.16255906809E+02 -0.32324174894E+00  0.17996161624E+02  0.51100000000E-03 0. -1.
        -11    1    3    3    0    0  0.56137613696E+00  0.41029061859E+00  0.10492097051E+02  0.10515112094E+02  0.51100000000E-03 0.  1.
         12    1    3    3    0    0  0.46422679590E+00 -0.12771994285E+02  0.17928592360E+02  0.22017578626E+02  0.00000000000E+00 0. -1.
</event>
<event>
 7    1  0.2942034E-011  0.5052885E+02  0.7816164E-02  0.1300439E+00
        -11   -1    0    0    0    0  0.00000000000E+00  0.00000000000E+00  0.45593999997E+02  0.45594000000E+02  0.51100000000E-03 0. -1.
         11   -1    0    0    0    0 -0.00000000000E+00 -0.00000000000E+00 -0.45593999997E+02  0.45594000000E+02  0.51100000000E-03 0.  1.
    9900012    2    1    2    0    0 -0.13076287197E+02 -0.15261167185E+02 -0.35345074968E+02  0.50528845616E+02  0.29999956735E+02 0.  0.
         12    1    1    2    0    0  0.13076287197E+02  0.15261167185E+02  0.35345074968E+02  0.40659154384E+02  0.00000000000E+00 0. -1.
         11    1    3    3    0    0  0.32504985111E+01  0.14222550094E+01 -0.12017054286E+02  0.12529890017E+02  0.51100000000E-03 0. -1.
        -11    1    3    3    0    0 -0.68223427963E+01 -0.18979020468E+02 -0.14672325562E+02  0.24940423349E+02  0.51100000000E-03 0.  1.
        -12    1    3    3    0    0 -0.95044429120E+01  0.22955982740E+01 -0.86556951210E+01  0.13058532250E+02  0.00000000000E+00 0.  1.
</event>
<event>
 7    1  0.2942034E-011  0.5052885E+02  0.7816164E-02  0.1300439E+00
        -11   -1    0    0    0    0  0.00000000000E+00  0.00000000000E+00  0.45593999997E+02  0.45594000000E+02  0.51100000000E-03 0.  1.
         11   -1    0    0    0    0 -0.00000000000E+00 -0.00000000000E+00 -0.45593999997E+02  0.45594000000E+02  0.51100000000E-03 0. -1.
    9900012    2    1    2    0    0  0.25035417504E+02  0.17200050996E+02  0.27028729846E+02  0.50528854399E+02  0.29999983432E+02 0.  0.
         12    1    1    2    0    0 -0.25035417504E+02 -0.17200050996E+02 -0.27028729846E+02  0.40659145601E+02  0.00000000000E+00 0. -1.
         11    1    3    3    0    0 -0.40914918763E+01  0.87333366226E+01  0.11556604869E+02  0.15052129108E+02  0.51100000000E-03 0. -1.
        -11    1    3    3    0    0  0.21202681258E+02  0.66202120209E+01  0.15919602362E+02  0.27327909531E+02  0.51100000000E-03 0.  1.
         12    1    3    3    0    0  0.79242281227E+01  0.18465023524E+01 -0.44747738463E+00  0.81488157598E+01  0.00000000000E+00 0. -1.
</event>
<event>
 7    1  0.2942034E-011  0.5052885E+02  0.7816164E-02  0.1300439E+00
        -11   -1    0    0    0    0  0.00000000000E+00  0.00000000000E+00  0.45593999997E+02  0.45594000000E+02  0.51100000000E-03 0. -1.
         11   -1    0    0    0    0 -0.00000000000E+00 -0.00000000000E+00 -0.45593999997E+02  0.45594000000E+02  0.51100000000E-03 0.  1.
    9900012    2    1    2    0    0 -0.10407977706E+02 -0.92464895011E+01 -0.38201350769E+02  0.50528846435E+02  0.29999959224E+02 0.  0.
         12    1    1    2    0    0  0.10407977706E+02  0.92464895011E+01  0.38201350769E+02  0.40659153565E+02  0.00000000000E+00 0. -1.
         11    1    3    3    0    0 -0.18581554869E+02 -0.19489986749E+01 -0.13452261066E+02  0.23022513009E+02  0.51100000000E-03 0. -1.
        -11    1    3    3    0    0  0.12011700591E+01 -0.35056573595E+01 -0.50116771778E+01  0.62329247893E+01  0.51100000000E-03 0.  1.
         12    1    3    3    0    0  0.69724071038E+01 -0.37918334667E+01 -0.19737412525E+02  0.21273408637E+02  0.00000000000E+00 0. -1.
</event>
<event>
 7    1  0.2942034E-011  0.5052887E+02  0.7816164E-02  0.1300439E+00
        -11   -1    0    0    0    0  0.00000000000E+00  0.00000000000E+00  0.45593999997E+02  0.45594000000E+02  0.51100000000E-03 0.  1.
         11   -1    0    0    0    0 -0.00000000000E+00 -0.00000000000E+00 -0.45593999997E+02  0.45594000000E+02  0.51100000000E-03 0. -1.
    9900012    2    1    2    0    0 -0.96592289348E+01  0.13300017574E+02  0.37188358048E+02  0.50528866397E+02  0.30000019900E+02 0.  0.
         12    1    1    2    0    0  0.96592289348E+01 -0.13300017574E+02 -0.37188358048E+02  0.40659133603E+02  0.00000000000E+00 0. -1.
         11    1    3    3    0    0 -0.66708883005E+01  0.62796324395E+01  0.89520436318E+00  0.92052118610E+01  0.51100000000E-03 0. -1.
        -11    1    3    3    0    0  0.65121302952E+01  0.73750947778E+01  0.22651756871E+02  0.24696193099E+02  0.51100000000E-03 0.  1.
        -12    1    3    3    0    0 -0.95004709295E+01 -0.35470964377E+00  0.13641396813E+02  0.16627461437E+02  0.00000000000E+00 0.  1.
</event>
<event>
 7    1  0.2942034E-011  0.5052886E+02  0.7816164E-02  0.1300439E+00
        -11   -1    0    0    0    0  0.00000000000E+00  0.00000000000E+00  0.45593999997E+02  0.45594000000E+02  0.51100000000E-03 0.  1.
         11   -1    0    0    0    0 -0.00000000000E+00 -0.00000000000E+00 -0.45593999997E+02  0.45594000000E+02  0.51100000000E-03 0. -1.
    9900012    2    1    2    0    0  0.28454375196E+02 -0.24075023328E+02  0.16245222417E+02  0.50528862436E+02  0.30000007861E+02 0.  0.
         12    1    1    2    0    0 -0.28454375196E+02  0.24075023328E+02 -0.16245222417E+02  0.40659137564E+02  0.00000000000E+00 0. -1.
         11    1    3    3    0    0  0.72789810710E+01 -0.91229656251E+01 -0.66942786212E+01  0.13454569252E+02  0.51100000000E-03 0. -1.
        -11    1    3    3    0    0  0.85915969734E+01 -0.95799528995E+00  0.13472376984E+02  0.16007443125E+02  0.51100000000E-03 0.  1.
         12    1    3    3    0    0  0.12583797152E+02 -0.13994062413E+02  0.94671240537E+01  0.21066850060E+02  0.00000000000E+00 0. -1.
</event>
<event>
 7    1  0.2942034E-011  0.5052886E+02  0.7816164E-02  0.1300439E+00
        -11   -1    0    0    0    0  0.00000000000E+00  0.00000000000E+00  0.45593999997E+02  0.45594000000E+02  0.51100000000E-03 0.  1.
         11   -1    0    0    0    0 -0.00000000000E+00 -0.00000000000E+00 -0.45593999997E+02  0.45594000000E+02  0.51100000000E-03 0. -1.
    9900012    2    1    2    0    0  0.27493784029E+02 -0.15385197575E+01  0.29914722958E+02  0.50528857696E+02  0.29999993452E+02 0.  0.
         12    1    1    2    0    0 -0.27493784029E+02  0.15385197575E+01 -0.29914722958E+02  0.40659142304E+02  0.00000000000E+00 0. -1.
         11    1    3    3    0    0  0.15723046344E+01  0.64879267774E+00 -0.20958762980E+01  0.26992168345E+01  0.51100000000E-03 0. -1.
        -11    1    3    3    0    0  0.15788663970E+02 -0.82155206251E+01  0.31314050518E+02  0.36018695829E+02  0.51100000000E-03 0.  1.
        -12    1    3    3    0    0  0.10132815424E+02  0.60282081899E+01  0.69654873759E+00  0.11810945032E+02  0.00000000000E+00 0.  1.
</event>
<event>
 7    1  0.2942034E-011  0.5052886E+02  0.7816164E-02  0.1300439E+00
        -11   -1    0    0    0    0  0.00000000000E+00  0.00000000000E+00  0.45593999997E+02  0.45594000000E+02  0.51100000000E-03 0.  1.
         11   -1    0    0    0    0 -0.00000000000E+00 -0.00000000000E+00 -0.45593999997E+02  0.45594000000E+02  0.51100000000E-03 0. -1.
    9900012    2    1    2    0    0 -0.19651269874E+02 -0.33340898641E+02 -0.12465048013E+02  0.50528863858E+02  0.30000012184E+02 0.  0.
         12    1    1    2    0    0  0.19651269874E+02  0.33340898641E+02  0.12465048013E+02  0.40659136142E+02  0.00000000000E+00 0. -1.
         11    1    3    3    0    0 -0.65239133309E+00  0.92161582671E+00 -0.94990243495E+00  0.14755694089E+01  0.51100000000E-03 0. -1.
        -11    1    3    3    0    0 -0.19513835475E+02 -0.37231444595E+02 -0.14828990275E+02  0.44574310924E+02  0.51100000000E-03 0.  1.
        -12    1    3    3    0    0  0.51495693412E+00  0.29689301273E+01  0.33138446969E+01  0.44789835253E+01  0.00000000000E+00 0.  1.
</event>
<event>
 7    1  0.2942034E-011  0.5052886E+02  0.7816164E-02  0.1300439E+00
        -11   -1    0    0    0    0  0.00000000000E+00  0.00000000000E+00  0.45593999997E+02  0.45594000000E+02  0.51100000000E-03 0.  1.
         11   -1    0    0    0    0 -0.00000000000E+00 -0.00000000000E+00 -0.45593999997E+02  0.45594000000E+02  0.51100000000E-03 0. -1.
    9900012    2    1    2    0    0  0.50107281949E+01 -0.13269629329E+02  0.38104790806E+02  0.50528861520E+02  0.30000005076E+02 0.  0.
         12    1    1    2    0    0 -0.50107281949E+01  0.13269629329E+02 -0.38104790806E+02  0.40659138480E+02  0.00000000000E+00 0. -1.
         11    1    3    3    0    0  0.24657802527E+01 -0.20281492465E+02  0.15234266047E+02  0.25485326584E+02  0.51100000000E-03 0. -1.
        -11    1    3    3    0    0  0.12250942384E+01  0.27061133410E+01  0.18604902743E+02  0.18840549664E+02  0.51100000000E-03 0.  1.
         12    1    3    3    0    0  0.13198537038E+01  0.43057497949E+01  0.42656220161E+01  0.62029852717E+01  0.00000000000E+00 0. -1.
</event>
<event>
 7    1  0.2942034E-011  0.5052887E+02  0.7816164E-02  0.1300439E+00
        -11   -1    0    0    0    0  0.00000000000E+00  0.00000000000E+00  0.45593999997E+02  0.45594000000E+02  0.51100000000E-03 0.  1.
         11   -1    0    0    0    0 -0.00000000000E+00 -0.00000000000E+00 -0.45593999997E+02  0.45594000000E+02  0.51100000000E-03 0. -1.
    9900012    2    1    2    0    0 -0.78599090230E+01  0.31641546828E+02  0.24294017172E+02  0.50528869096E+02  0.30000028103E+02 0.  0.
         12    1    1    2    0    0  0.78599090230E+01 -0.31641546828E+02 -0.24294017172E+02  0.40659130904E+02  0.00000000000E+00 0. -1.
         11    1    3    3    0    0 -0.61968651543E+01  0.12326800147E+02 -0.14413228653E+01  0.13871861860E+02  0.51100000000E-03 0. -1.
        -11    1    3    3    0    0  0.72084500349E+01  0.13844924404E+02  0.16758762844E+02  0.22901960964E+02  0.51100000000E-03 0.  1.
        -12    1    3    3    0    0 -0.88714939036E+01  0.54698222774E+01  0.89765771932E+01  0.13755046272E+02  0.00000000000E+00 0.  1.
</event>
<event>
 7    1  0.2942034E-011  0.5052886E+02  0.7816164E-02  0.1300439E+00
        -11   -1    0    0    0    0  0.00000000000E+00  0.00000000000E+00  0.45593999997E+02  0.45594000000E+02  0.51100000000E-03 0.  1.
         11   -1    0    0    0    0 -0.00000000000E+00 -0.00000000000E+00 -0.45593999997E+02  0.45594000000E+02  0.51100000000E-03 0. -1.
    9900012    2    1    2    0    0 -0.35172669260E+02  0.20046790227E+02  0.37649615118E+01  0.50528863309E+02  0.30000010514E+02 0.  0.
         12    1    1    2    0    0  0.35172669260E+02 -0.20046790227E+02 -0.37649615118E+01  0.40659136691E+02  0.00000000000E+00 0. -1.
         11    1    3    3    0    0  0.18346586330E+01  0.90822223656E+01 -0.91434717772E+00  0.93106802340E+01  0.51100000000E-03 0. -1.
        -11    1    3    3    0    0 -0.27373647370E+02  0.11352963092E+02 -0.16572100179E+01  0.29680847134E+02  0.51100000000E-03 0.  1.
        -12    1    3    3    0    0 -0.96336805233E+01 -0.38839523098E+00  0.63365187074E+01  0.11537335941E+02  0.00000000000E+00 0.  1.
</event>
<event>
 7    1  0.2942034E-011  0.5052886E+02  0.7816164E-02  0.1300439E+00
        -11   -1    0    0    0    0  0.00000000000E+00  0.00000000000E+00  0.45593999997E+02  0.45594000000E+02  0.51100000000E-03 0.  1.
         11   -1    0    0    0    0 -0.00000000000E+00 -0.00000000000E+00 -0.45593999997E+02  0.45594000000E+02  0.51100000000E-03 0. -1.
    9900012    2    1    2    0    0  0.32240089712E+02  0.22244611026E+02  0.10905028678E+02  0.50528858903E+02  0.29999997120E+02 0.  0.
         12    1    1    2    0    0 -0.32240089712E+02 -0.22244611026E+02 -0.10905028678E+02  0.40659141097E+02  0.00000000000E+00 0. -1.
         11    1    3    3    0    0  0.57256243820E+01  0.56432374912E+00 -0.87462048733E+01  0.10468874620E+02  0.51100000000E-03 0. -1.
        -11    1    3    3    0    0  0.10712042421E+02  0.13017392055E+02  0.10321323376E+02  0.19766893161E+02  0.51100000000E-03 0.  1.
         12    1    3    3    0    0  0.15802422909E+02  0.86628952219E+01  0.93299101746E+01  0.20293091122E+02  0.00000000000E+00 0. -1.
</event>
<event>
 7    1  0.2942034E-011  0.5052885E+02  0.7816164E-02  0.1300439E+00
        -11   -1    0    0    0    0  0.00000000000E+00  0.00000000000E+00  0.45593999997E+02  0.45594000000E+02  0.51100000000E-03 0.  1.
         11   -1    0    0    0    0 -0.00000000000E+00 -0.00000000000E+00 -0.45593999997E+02  0.45594000000E+02  0.51100000000E-03 0. -1.
    9900012    2    1    2    0    0 -0.29129653810E+02  0.19529133994E+00  0.28365325967E+02  0.50528848669E+02  0.29999966013E+02 0.  0.
         12    1    1    2    0    0  0.29129653810E+02 -0.19529133994E+00 -0.28365325967E+02  0.40659151331E+02  0.00000000000E+00 0. -1.
         11    1    3    3    0    0  0.52492907484E+01  0.32558798509E+00  0.23819705390E+01  0.57736335878E+01  0.51100000000E-03 0. -1.
        -11    1    3    3    0    0 -0.22517410215E+02  0.52750234626E+01  0.13910438984E+02  0.26988144588E+02  0.51100000000E-03 0.  1.
        -12    1    3    3    0    0 -0.11861534343E+02 -0.54053201078E+01  0.12072916443E+02  0.17767070493E+02  0.00000000000E+00 0.  1.
</event>
<event>
 7    1  0.2942034E-011  0.5052886E+02  0.7816164E-02  0.1300439E+00
        -11   -1    0    0    0    0  0.00000000000E+00  0.00000000000E+00  0.45593999997E+02  0.45594000000E+02  0.51100000000E-03 0.  1.
         11   -1    0    0    0    0 -0.00000000000E+00 -0.00000000000E+00 -0.45593999997E+02  0.45594000000E+02  0.51100000000E-03 0. -1.
    9900012    2    1    2    0    0  0.58776653855E+01 -0.17515747545E+02  0.36219019197E+02  0.50528859404E+02  0.29999998644E+02 0.  0.
         12    1    1    2    0    0 -0.58776653855E+01  0.17515747545E+02 -0.36219019197E+02  0.40659140596E+02  0.00000000000E+00 0. -1.
         11    1    3    3    0    0  0.16519945152E+00 -0.14468066634E+01 -0.43807407746E+01  0.46164304799E+01  0.51100000000E-03 0. -1.
        -11    1    3    3    0    0  0.49285471531E+01 -0.80546659540E+01  0.34613832038E+02  0.35878762371E+02  0.51100000000E-03 0.  1.
        -12    1    3    3    0    0  0.78391878091E+00 -0.80142749273E+01  0.59859279335E+01  0.10033666553E+02  0.00000000000E+00 0.  1.
</event>
<event>
 7    1  0.2942034E-011  0.5052884E+02  0.7816164E-02  0.1300439E+00
        -11   -1    0    0    0    0  0.00000000000E+00  0.00000000000E+00  0.45593999997E+02  0.45594000000E+02  0.51100000000E-03 0. -1.
         11   -1    0    0    0    0 -0.00000000000E+00 -0.00000000000E+00 -0.45593999997E+02  0.45594000000E+02  0.51100000000E-03 0.  1.
    9900012    2    1    2    0    0 -0.24601386957E+02 -0.22295122121E+02  0.23470554808E+02  0.50528835552E+02  0.29999926143E+02 0.  0.
         12    1    1    2    0    0  0.24601386957E+02  0.22295122121E+02 -0.23470554808E+02  0.40659164448E+02  0.00000000000E+00 0. -1.
         11    1    3    3    0    0 -0.59573054321E+01 -0.73029564501E+01  0.17049580015E+02  0.19481037957E+02  0.51100000000E-03 0. -1.
        -11    1    3    3    0    0 -0.15602471339E+02 -0.19429488504E+02  0.61224114749E+01  0.25659814067E+02  0.51100000000E-03 0.  1.
        -12    1    3    3    0    0 -0.30416101861E+01  0.44373228327E+01  0.29856331828E+00  0.53879835283E+01  0.00000000000E+00 0.  1.
</event>
<event>
 7    1  0.2942034E-011  0.5052885E+02  0.7816164E-02  0.1300439E+00
        -11   -1    0    0    0    0  0.00000000000E+00  0.00000000000E+00  0.45593999997E+02  0.45594000000E+02  0.51100000000E-03 0.  1.
         11   -1    0    0    0    0 -0.00000000000E+00 -0.00000000000E+00 -0.45593999997E+02  0.45594000000E+02  0.51100000000E-03 0. -1.
    9900012    2    1    2    0    0  0.27085979734E+02 -0.29959152327E+02  0.46867365860E+01  0.50528848433E+02  0.29999965298E+02 0.  0.
         12    1    1    2    0    0 -0.27085979734E+02  0.29959152327E+02 -0.46867365860E+01  0.40659151567E+02  0.00000000000E+00 0. -1.
         11    1    3    3    0    0  0.17694291115E+02 -0.31814569695E+02 -0.16476462383E+00  0.36404421855E+02  0.51100000000E-03 0. -1.
        -11    1    3    3    0    0  0.19237160899E+01 -0.35143970669E+01  0.86070610123E+00  0.40978635399E+01  0.51100000000E-03 0.  1.
         12    1    3    3    0    0  0.74679725291E+01  0.53698144354E+01  0.39907951086E+01  0.10026563039E+02  0.00000000000E+00 0. -1.
</event>
<event>
 7    1  0.2942034E-011  0.5052887E+02  0.7816164E-02  0.1300439E+00
        -11   -1    0    0    0    0  0.00000000000E+00  0.00000000000E+00  0.45593999997E+02  0.45594000000E+02  0.51100000000E-03 0. -1.
         11   -1    0    0    0    0 -0.00000000000E+00 -0.00000000000E+00 -0.45593999997E+02  0.45594000000E+02  0.51100000000E-03 0.  1.
    9900012    2    1    2    0    0  0.11137349888E+02  0.26739423337E+02 -0.28532924865E+02  0.50528866657E+02  0.30000020689E+02 0.  0.
         12    1    1    2    0    0 -0.11137349888E+02 -0.26739423337E+02  0.28532924865E+02  0.40659133343E+02  0.00000000000E+00 0. -1.
         11    1    3    3    0    0 -0.78652745737E+01  0.57777303507E+01 -0.39833159146E+00  0.97674654053E+01  0.51100000000E-03 0. -1.
        -11    1    3    3    0    0  0.18425689153E+02  0.15902297287E+02 -0.22214719044E+02  0.32952736188E+02  0.51100000000E-03 0.  1.
         12    1    3    3    0    0  0.57693530825E+00  0.50593956986E+01 -0.59198742292E+01  0.78086650635E+01  0.00000000000E+00 0. -1.
</event>
