<event>
 7    1  0.3508738E-013  0.7246159E+02  0.7816164E-02  0.1226708E+00
        -11   -1    0    0    0    0  0.00000000000E+00  0.00000000000E+00  0.45593999997E+02  0.45594000000E+02  0.51100000000E-03 0.  1.
         11   -1    0    0    0    0 -0.00000000000E+00 -0.00000000000E+00 -0.45593999997E+02  0.45594000000E+02  0.51100000000E-03 0. -1.
    9900012    2    1    2    0    0 -0.12430378697E+02 -0.13990677647E+02 -0.65186928078E+00  0.72461593267E+02  0.70000029926E+02 0.  0.
        -12    1    1    2    0    0  0.12430378697E+02  0.13990677647E+02  0.65186928078E+00  0.18726406733E+02  0.00000000000E+00 0.  1.
         11    1    3    3    0    0 -0.99146972965E+01  0.14679022324E+01 -0.21689076128E+02  0.23892927468E+02  0.51100000000E-03 0. -1.
        -11    1    3    3    0    0  0.83199487703E+01  0.92439501093E+01 -0.25970356112E+01  0.12704989390E+02  0.51100000000E-03 0.  1.
        -12    1    3    3    0    0 -0.10835630170E+02 -0.24702529989E+02  0.23634242458E+02  0.35863676410E+02  0.00000000000E+00 0.  1.
</event>
<event>
 7    1  0.3508738E-013  0.7246156E+02  0.7816164E-02  0.1226708E+00
        -11   -1    0    0    0    0  0.00000000000E+00  0.00000000000E+00  0.45593999997E+02  0.45594000000E+02  0.51100000000E-03 0. -1.
         11   -1    0    0    0    0 -0.00000000000E+00 -0.00000000000E+00 -0.45593999997E+02  0.45594000000E+02  0.51100000000E-03 0.  1.
    9900012    2    1    2    0    0 -0.15755337976E+02 -0.75249340899E+01  0.67693494873E+01  0.72461564133E+02  0.69999991974E+02 0.  0.
        -12    1    1    2    0    0  0.15755337976E+02  0.75249340899E+01 -0.67693494873E+01  0.18726435867E+02  0.00000000000E+00 0.  1.
         11    1    3    3    0    0  0.64562946439E+01 -0.18526681982E+02  0.64230578825E+01  0.20644063520E+02  0.51100000000E-03 0. -1.
        -11    1    3    3    0    0 -0.21041585066E+02 -0.11629674557E+02 -0.11041065130E+02  0.26455675230E+02  0.51100000000E-03 0.  1.
         12    1    3    3    0    0 -0.11700475537E+01  0.22631422450E+02  0.11387356735E+02  0.25361825383E+02  0.00000000000E+00 0. -1.
</event>
<event>
 7    1  0.3508738E-013  0.7246174E+02  0.7816164E-02  0.1226708E+00
        -11   -1    0    0    0    0  0.00000000000E+00  0.00000000000E+00  0.45593999997E+02  0.45594000000E+02  0.51100000000E-03 0. -1.
         11   -1    0    0    0    0 -0.00000000000E+00 -0.00000000000E+00 -0.45593999997E+02  0.45594000000E+02  0.51100000000E-03 0.  1.
    9900012    2    1    2    0    0 -0.73913961363E+00  0.78955669381E+01  0.16964268513E+02  0.72461742744E+02  0.70000224647E+02 0.  0.
        -12    1    1    2    0    0  0.73913961363E+00 -0.78955669381E+01 -0.16964268513E+02  0.18726257256E+02  0.00000000000E+00 0.  1.
         11    1    3    3    0    0  0.11564797709E+02  0.22231802173E+02  0.54445022478E+01  0.25644496074E+02  0.51100000000E-03 0. -1.
        -11    1    3    3    0    0 -0.71937852566E+01 -0.58108674808E+00  0.25529200668E+02  0.26529762441E+02  0.51100000000E-03 0.  1.
        -12    1    3    3    0    0 -0.51101520657E+01 -0.13755148487E+02 -0.14009434403E+02  0.20287484229E+02  0.00000000000E+00 0.  1.
</event>
<event>
 7    1  0.3508738E-013  0.7246226E+02  0.7816164E-02  0.1226706E+00
        -11   -1    0    0    0    0  0.00000000000E+00  0.00000000000E+00  0.45593999997E+02  0.45594000000E+02  0.51100000000E-03 0.  1.
         11   -1    0    0    0    0 -0.00000000000E+00 -0.00000000000E+00 -0.45593999997E+02  0.45594000000E+02  0.51100000000E-03 0. -1.
    9900012    2    1    2    0    0  0.32469326972E+01 -0.92848482732E+01 -0.15934317522E+02  0.72462256909E+02  0.70000894438E+02 0.  0.
        -12    1    1    2    0    0 -0.32469326972E+01  0.92848482732E+01  0.15934317522E+02  0.18725743091E+02  0.00000000000E+00 0.  1.
         11    1    3    3    0    0 -0.11854205858E+02 -0.11174771813E+02 -0.21757221718E+02  0.27180405051E+02  0.51100000000E-03 0. -1.
        -11    1    3    3    0    0  0.12066321281E+02 -0.19099412834E+02  0.79919508562E+01  0.23963617394E+02  0.51100000000E-03 0.  1.
         12    1    3    3    0    0  0.30348172742E+01  0.20989336373E+02 -0.21690466602E+01  0.21318234464E+02  0.00000000000E+00 0. -1.
</event>
<event>
 7    1  0.3508738E-013  0.7246155E+02  0.7816164E-02  0.1226708E+00
        -11   -1    0    0    0    0  0.00000000000E+00  0.00000000000E+00  0.45593999997E+02  0.45594000000E+02  0.51100000000E-03 0.  1.
         11   -1    0    0    0    0 -0.00000000000E+00 -0.00000000000E+00 -0.45593999997E+02  0.45594000000E+02  0.51100000000E-03 0. -1.
    9900012    2    1    2    0    0 -0.10650654803E+02  0.71563497089E+01 -0.13639285947E+02  0.72461550523E+02  0.69999974244E+02 0.  0.
        -12    1    1    2    0    0  0.10650654803E+02 -0.71563497089E+01  0.13639285947E+02  0.18726449477E+02  0.00000000000E+00 0.  1.
         11    1    3    3    0    0 -0.26449409367E+02  0.18989676622E+02 -0.21899560141E+02  0.39239900723E+02  0.51100000000E-03 0. -1.
        -11    1    3    3    0    0 -0.57033776425E+01  0.18604040887E+01 -0.10344891461E+01  0.60876750867E+01  0.51100000000E-03 0.  1.
         12    1    3    3    0    0  0.21502132207E+02 -0.13693731002E+02  0.92947633403E+01  0.27133974713E+02  0.00000000000E+00 0. -1.
</event>
<event>
 7    1  0.3508738E-013  0.7246158E+02  0.7816164E-02  0.1226708E+00
        -11   -1    0    0    0    0  0.00000000000E+00  0.00000000000E+00  0.45593999997E+02  0.45594000000E+02  0.51100000000E-03 0.  1.
         11   -1    0    0    0    0 -0.00000000000E+00 -0.00000000000E+00 -0.45593999997E+02  0.45594000000E+02  0.51100000000E-03 0. -1.
    9900012    2    1    2    0    0 -0.21495734243E+01  0.50688036095E+00 -0.18595732100E+02  0.72461578934E+02  0.70000011255E+02 0.  0.
        -12    1    1    2    0    0  0.21495734243E+01 -0.50688036095E+00  0.18595732100E+02  0.18726421066E+02  0.00000000000E+00 0.  1.
         11    1    3    3    0    0 -0.20451515559E+02  0.14925485672E+01 -0.19282215000E+01  0.20596364444E+02  0.51100000000E-03 0. -1.
        -11    1    3    3    0    0  0.17099080587E+02  0.20219990916E+02 -0.15296659068E+02  0.30581274802E+02  0.51100000000E-03 0.  1.
         12    1    3    3    0    0  0.12028615477E+01 -0.21205659123E+02 -0.13708515322E+01  0.21283939688E+02  0.00000000000E+00 0. -1.
</event>
<event>
 7    1  0.3508738E-013  0.7246164E+02  0.7816164E-02  0.1226708E+00
        -11   -1    0    0    0    0  0.00000000000E+00  0.00000000000E+00  0.45593999997E+02  0.45594000000E+02  0.51100000000E-03 0. -1.
         11   -1    0    0    0    0 -0.00000000000E+00 -0.00000000000E+00 -0.45593999997E+02  0.45594000000E+02  0.51100000000E-03 0.  1.
    9900012    2    1    2    0    0 -0.12883532947E+02  0.10388265584E+02  0.87621464284E+01  0.72461636416E+02  0.70000086136E+02 0.  0.
        -12    1    1    2    0    0  0.12883532947E+02 -0.10388265584E+02 -0.87621464284E+01  0.18726363584E+02  0.00000000000E+00 0.  1.
         11    1    3    3    0    0 -0.12133014353E+02 -0.99878112334E+01  0.26431872435E+02  0.30750777083E+02  0.51100000000E-03 0. -1.
        -11    1    3    3    0    0 -0.19294030883E+01 -0.78078109371E+01  0.66064601027E+00  0.80697559640E+01  0.51100000000E-03 0.  1.
         12    1    3    3    0    0  0.11788844947E+01  0.28183887755E+02 -0.18330372017E+02  0.33641103369E+02  0.00000000000E+00 0. -1.
</event>
<event>
 7    1  0.3508738E-013  0.7246157E+02  0.7816164E-02  0.1226708E+00
        -11   -1    0    0    0    0  0.00000000000E+00  0.00000000000E+00  0.45593999997E+02  0.45594000000E+02  0.51100000000E-03 0.  1.
         11   -1    0    0    0    0 -0.00000000000E+00 -0.00000000000E+00 -0.45593999997E+02  0.45594000000E+02  0.51100000000E-03 0. -1.
    9900012    2    1    2    0    0  0.18459362044E+02  0.31283868660E+01 -0.37998002284E+00  0.72461568512E+02  0.69999997678E+02 0.  0.
        -12    1    1    2    0    0 -0.18459362044E+02 -0.31283868660E+01  0.37998002284E+00  0.18726431488E+02  0.00000000000E+00 0.  1.
         11    1    3    3    0    0 -0.55833946684E+01  0.82799793003E+01  0.41791029531E+01  0.10825768102E+02  0.51100000000E-03 0. -1.
        -11    1    3    3    0    0  0.35817814768E+00 -0.28251866623E+02 -0.40851687254E+01  0.28547939734E+02  0.51100000000E-03 0.  1.
         12    1    3    3    0    0  0.23684578565E+02  0.23100274189E+02 -0.47391425060E+00  0.33087860676E+02  0.00000000000E+00 0. -1.
</event>
<event>
 7    1  0.3508738E-013  0.7246162E+02  0.7816164E-02  0.1226708E+00
        -11   -1    0    0    0    0  0.00000000000E+00  0.00000000000E+00  0.45593999997E+02  0.45594000000E+02  0.51100000000E-03 0.  1.
         11   -1    0    0    0    0 -0.00000000000E+00 -0.00000000000E+00 -0.45593999997E+02  0.45594000000E+02  0.51100000000E-03 0. -1.
    9900012    2    1    2    0    0  0.18396226979E+02 -0.34946712425E+01  0.20866061896E+00  0.72461616649E+02  0.70000060386E+02 0.  0.
        -12    1    1    2    0    0 -0.18396226979E+02  0.34946712425E+01 -0.20866061896E+00  0.18726383351E+02  0.00000000000E+00 0.  1.
         11    1    3    3    0    0  0.18651141247E+02 -0.17302136718E+02 -0.19355927664E+02  0.31966872553E+02  0.51100000000E-03 0. -1.
        -11    1    3    3    0    0 -0.37228328545E+01 -0.32917625961E+00 -0.82748452319E+01  0.90796974258E+01  0.51100000000E-03 0.  1.
        -12    1    3    3    0    0  0.34679185861E+01  0.14136641735E+02  0.27839433515E+02  0.31415046670E+02  0.00000000000E+00 0.  1.
</event>
<event>
 7    1  0.3508738E-013  0.7246159E+02  0.7816164E-02  0.1226708E+00
        -11   -1    0    0    0    0  0.00000000000E+00  0.00000000000E+00  0.45593999997E+02  0.45594000000E+02  0.51100000000E-03 0.  1.
         11   -1    0    0    0    0 -0.00000000000E+00 -0.00000000000E+00 -0.45593999997E+02  0.45594000000E+02  0.51100000000E-03 0. -1.
    9900012    2    1    2    0    0 -0.17343600645E+02 -0.33219320313E+01 -0.62323836784E+01  0.72461592922E+02  0.70000029477E+02 0.  0.
        -12    1    1    2    0    0  0.17343600645E+02  0.33219320313E+01  0.62323836784E+01  0.18726407078E+02  0.00000000000E+00 0.  1.
         11    1    3    3    0    0 -0.25736000460E+01  0.20079699525E+02 -0.11510047123E+01  0.20276650668E+02  0.51100000000E-03 0. -1.
        -11    1    3    3    0    0 -0.34432234613E+01  0.98740159127E+01 -0.12461659241E+02  0.16267911032E+02  0.51100000000E-03 0.  1.
        -12    1    3    3    0    0 -0.11326777137E+02 -0.33275647469E+02  0.73802802751E+01  0.35917031221E+02  0.00000000000E+00 0.  1.
</event>
<event>
 7    1  0.3508738E-013  0.7246155E+02  0.7816164E-02  0.1226708E+00
        -11   -1    0    0    0    0  0.00000000000E+00  0.00000000000E+00  0.45593999997E+02  0.45594000000E+02  0.51100000000E-03 0.  1.
         11   -1    0    0    0    0 -0.00000000000E+00 -0.00000000000E+00 -0.45593999997E+02  0.45594000000E+02  0.51100000000E-03 0. -1.
    9900012    2    1    2    0    0  0.71768174243E+01  0.16443543657E+02  0.53649893713E+01  0.72461549527E+02  0.69999972947E+02 0.  0.
        -12    1    1    2    0    0 -0.71768174243E+01 -0.16443543657E+02 -0.53649893713E+01  0.18726450473E+02  0.00000000000E+00 0.  1.
         11    1    3    3    0    0 -0.68840568518E+01 -0.12727086281E+01  0.84231601349E+00  0.70512071675E+01  0.51100000000E-03 0. -1.
        -11    1    3    3    0    0 -0.88444206435E+00 -0.17983554714E+02  0.16984021098E+02  0.24751716119E+02  0.51100000000E-03 0.  1.
         12    1    3    3    0    0  0.14945316340E+02  0.35699806999E+02 -0.12461347740E+02  0.40658626241E+02  0.00000000000E+00 0. -1.
</event>
<event>
 7    1  0.3508738E-013  0.7246158E+02  0.7816164E-02  0.1226708E+00
        -11   -1    0    0    0    0  0.00000000000E+00  0.00000000000E+00  0.45593999997E+02  0.45594000000E+02  0.51100000000E-03 0.  1.
         11   -1    0    0    0    0 -0.00000000000E+00 -0.00000000000E+00 -0.45593999997E+02  0.45594000000E+02  0.51100000000E-03 0. -1.
    9900012    2    1    2    0    0 -0.90125838898E+01 -0.12316434737E+02 -0.10851609496E+02  0.72461583855E+02  0.70000017665E+02 0.  0.
        -12    1    1    2    0    0  0.90125838898E+01  0.12316434737E+02  0.10851609496E+02  0.18726416145E+02  0.00000000000E+00 0.  1.
         11    1    3    3    0    0 -0.16301882738E+02  0.61357300607E+01  0.34625722193E+01  0.17759165826E+02  0.51100000000E-03 0. -1.
        -11    1    3    3    0    0  0.15458530619E+02 -0.90517370302E+01  0.14671161179E+02  0.23154763717E+02  0.51100000000E-03 0.  1.
         12    1    3    3    0    0 -0.81692317708E+01 -0.94004277677E+01 -0.28985342894E+02  0.31547654312E+02  0.00000000000E+00 0. -1.
</event>
<event>
 7    1  0.3508738E-013  0.7246160E+02  0.7816164E-02  0.1226708E+00
        -11   -1    0    0    0    0  0.00000000000E+00  0.00000000000E+00  0.45593999997E+02  0.45594000000E+02  0.51100000000E-03 0. -1.
         11   -1    0    0    0    0 -0.00000000000E+00 -0.00000000000E+00 -0.45593999997E+02  0.45594000000E+02  0.51100000000E-03 0.  1.
    9900012    2    1    2    0    0 -0.10361154248E+02 -0.12428614557E+02  0.94262475144E+01  0.72461598334E+02  0.70000036527E+02 0.  0.
        -12    1    1    2    0    0  0.10361154248E+02  0.12428614557E+02 -0.94262475144E+01  0.18726401666E+02  0.00000000000E+00 0.  1.
         11    1    3    3    0    0  0.18895406788E+02  0.14451020646E+02 -0.46586900653E+01  0.24239880131E+02  0.51100000000E-03 0. -1.
        -11    1    3    3    0    0 -0.98584007814E+01 -0.90729754565E+01  0.17093533631E+02  0.21718559848E+02  0.51100000000E-03 0.  1.
        -12    1    3    3    0    0 -0.19398160254E+02 -0.17806659747E+02 -0.30085960515E+01  0.26503158355E+02  0.00000000000E+00 0.  1.
</event>
<event>
 7    1  0.3508738E-013  0.7246158E+02  0.7816164E-02  0.1226708E+00
        -11   -1    0    0    0    0  0.00000000000E+00  0.00000000000E+00  0.45593999997E+02  0.45594000000E+02  0.51100000000E-03 0. -1.
         11   -1    0    0    0    0 -0.00000000000E+00 -0.00000000000E+00 -0.45593999997E+02  0.45594000000E+02  0.51100000000E-03 0.  1.
    9900012    2    1    2    0    0  0.15074528971E+02  0.86835813307E+01 -0.69305670043E+01  0.72461581031E+02  0.70000013986E+02 0.  0.
        -12    1    1    2    0    0 -0.15074528971E+02 -0.86835813307E+01  0.69305670043E+01  0.18726418969E+02  0.00000000000E+00 0.  1.
         11    1    3    3    0    0 -0.28668316122E+01  0.26668167001E+02 -0.13366308487E+02  0.29967783660E+02  0.51100000000E-03 0. -1.
        -11    1    3    3    0    0 -0.55489183213E+01  0.41586208725E+01  0.74739289849E+01  0.10195304646E+02  0.51100000000E-03 0.  1.
        -12    1    3    3    0    0  0.23490278904E+02 -0.22143206542E+02 -0.10381875024E+01  0.32298492724E+02  0.00000000000E+00 0.  1.
</event>
<event>
 7    1  0.3508738E-013  0.7246155E+02  0.7816164E-02  0.1226708E+00
        -11   -1    0    0    0    0  0.00000000000E+00  0.00000000000E+00  0.45593999997E+02  0.45594000000E+02  0.51100000000E-03 0.  1.
         11   -1    0    0    0    0 -0.00000000000E+00 -0.00000000000E+00 -0.45593999997E+02  0.45594000000E+02  0.51100000000E-03 0. -1.
    9900012    2    1    2    0    0 -0.92317099328E+01 -0.44438386598E+01 -0.15675067043E+02  0.72461550867E+02  0.69999974693E+02 0.  0.
        -12    1    1    2    0    0  0.92317099328E+01  0.44438386598E+01  0.15675067043E+02  0.18726449133E+02  0.00000000000E+00 0.  1.
         11    1    3    3    0    0 -0.16624460878E+02  0.10469750749E+02 -0.33462736459E+02  0.38803905883E+02  0.51100000000E-03 0. -1.
        -11    1    3    3    0    0  0.25282012545E+01 -0.12172704652E+02 -0.24433132188E+01  0.12670292809E+02  0.51100000000E-03 0.  1.
        -12    1    3    3    0    0  0.48645496907E+01 -0.27408847573E+01  0.20230982635E+02  0.20987352175E+02  0.00000000000E+00 0.  1.
</event>
<event>
 7    1  0.3508738E-013  0.7246161E+02  0.7816164E-02  0.1226708E+00
        -11   -1    0    0    0    0  0.00000000000E+00  0.00000000000E+00  0.45593999997E+02  0.45594000000E+02  0.51100000000E-03 0.  1.
         11   -1    0    0    0    0 -0.00000000000E+00 -0.00000000000E+00 -0.45593999997E+02  0.45594000000E+02  0.51100000000E-03 0. -1.
    9900012    2    1    2    0    0 -0.22122758057E+01  0.13401002835E+02 -0.12891721168E+02  0.72461614447E+02  0.70000057516E+02 0.  0.
        -12    1    1    2    0    0  0.22122758057E+01 -0.13401002835E+02  0.12891721168E+02  0.18726385553E+02  0.00000000000E+00 0.  1.
         11    1    3    3    0    0 -0.22891879144E+02  0.10628808217E+02 -0.52903602213E+01  0.25787547506E+02  0.51100000000E-03 0.  1.
        -11    1    3    3    0    0  0.33421378292E+01  0.86581041240E+01 -0.21676607250E+02  0.23579820915E+02  0.51100000000E-03 0. -1.
         12    1    3    3    0    0  0.17337465509E+02 -0.58859095060E+01  0.14075246303E+02  0.23094246025E+02  0.00000000000E+00 0. -1.
</event>
<event>
 7    1  0.3508738E-013  0.7246157E+02  0.7816164E-02  0.1226708E+00
        -11   -1    0    0    0    0  0.00000000000E+00  0.00000000000E+00  0.45593999997E+02  0.45594000000E+02  0.51100000000E-03 0. -1.
         11   -1    0    0    0    0 -0.00000000000E+00 -0.00000000000E+00 -0.45593999997E+02  0.45594000000E+02  0.51100000000E-03 0.  1.
    9900012    2    1    2    0    0  0.13110203888E+02 -0.12391659716E+02  0.50247949406E+01  0.72461568394E+02  0.69999997524E+02 0.  0.
        -12    1    1    2    0    0 -0.13110203888E+02  0.12391659716E+02 -0.50247949406E+01  0.18726431606E+02  0.00000000000E+00 0.  1.
         11    1    3    3    0    0  0.16714766861E+02 -0.33133286606E+02 -0.17024776243E+02  0.40829414874E+02  0.51100000000E-03 0.  1.
        -11    1    3    3    0    0 -0.34334971079E+01  0.10479194153E+02  0.16820678658E+02  0.20113121171E+02  0.51100000000E-03 0. -1.
        -12    1    3    3    0    0 -0.17106586532E+00  0.10262432737E+02  0.52288925254E+01  0.11519032349E+02  0.00000000000E+00 0.  1.
</event>
<event>
 7    1  0.3508738E-013  0.7246156E+02  0.7816164E-02  0.1226708E+00
        -11   -1    0    0    0    0  0.00000000000E+00  0.00000000000E+00  0.45593999997E+02  0.45594000000E+02  0.51100000000E-03 0.  1.
         11   -1    0    0    0    0 -0.00000000000E+00 -0.00000000000E+00 -0.45593999997E+02  0.45594000000E+02  0.51100000000E-03 0. -1.
    9900012    2    1    2    0    0 -0.11068081006E+01  0.17523609612E+02 -0.65098186126E+01  0.72461557295E+02  0.69999983066E+02 0.  0.
        -12    1    1    2    0    0  0.11068081006E+01 -0.17523609612E+02  0.65098186126E+01  0.18726442705E+02  0.00000000000E+00 0.  1.
         11    1    3    3    0    0 -0.12696876019E+02 -0.49895475281E+01 -0.62501170991E+01  0.15005672567E+02  0.51100000000E-03 0. -1.
        -11    1    3    3    0    0 -0.84926160845E+01  0.33204379000E+02 -0.35960052504E+01  0.34461377900E+02  0.51100000000E-03 0.  1.
         12    1    3    3    0    0  0.20082684003E+02 -0.10691221860E+02  0.33363037370E+01  0.22994506828E+02  0.00000000000E+00 0. -1.
</event>
<event>
 7    1  0.3508738E-013  0.7246154E+02  0.7816164E-02  0.1226708E+00
        -11   -1    0    0    0    0  0.00000000000E+00  0.00000000000E+00  0.45593999997E+02  0.45594000000E+02  0.51100000000E-03 0.  1.
         11   -1    0    0    0    0 -0.00000000000E+00 -0.00000000000E+00 -0.45593999997E+02  0.45594000000E+02  0.51100000000E-03 0. -1.
    9900012    2    1    2    0    0  0.10910011962E+02  0.13270451373E+02 -0.74529805122E+01  0.72461543871E+02  0.69999965579E+02 0.  0.
        -12    1    1    2    0    0 -0.10910011962E+02 -0.13270451373E+02  0.74529805122E+01  0.18726456129E+02  0.00000000000E+00 0.  1.
         11    1    3    3    0    0  0.16463050691E+02  0.11175192759E+02 -0.98702610093E+01  0.22211236434E+02  0.51100000000E-03 0. -1.
        -11    1    3    3    0    0  0.11341797682E+02 -0.78852950344E+01 -0.17497105516E+02  0.22292665927E+02  0.51100000000E-03 0.  1.
        -12    1    3    3    0    0 -0.16894836412E+02  0.99805536477E+01  0.19914386013E+02  0.27957641510E+02  0.00000000000E+00 0.  1.
</event>
<event>
 7    1  0.3508738E-013  0.7246155E+02  0.7816164E-02  0.1226708E+00
        -11   -1    0    0    0    0  0.00000000000E+00  0.00000000000E+00  0.45593999997E+02  0.45594000000E+02  0.51100000000E-03 0.  1.
         11   -1    0    0    0    0 -0.00000000000E+00 -0.00000000000E+00 -0.45593999997E+02  0.45594000000E+02  0.51100000000E-03 0. -1.
    9900012    2    1    2    0    0 -0.21992697511E+01 -0.18565137780E+02  0.10856536922E+01  0.72461554203E+02  0.69999979038E+02 0.  0.
        -12    1    1    2    0    0  0.21992697511E+01  0.18565137780E+02 -0.10856536922E+01  0.18726445797E+02  0.00000000000E+00 0.  1.
         11    1    3    3    0    0  0.34103149236E+01 -0.13799882484E+02 -0.26062005901E+02  0.29686615777E+02  0.51100000000E-03 0. -1.
        -11    1    3    3    0    0 -0.10698994850E+02  0.43289432804E+01 -0.20955312596E+01  0.11730280996E+02  0.51100000000E-03 0.  1.
        -12    1    3    3    0    0  0.50894101753E+01 -0.90941985763E+01  0.29243190853E+02  0.31044657430E+02  0.00000000000E+00 0.  1.
</event>
<event>
 7    1  0.3508738E-013  0.7246151E+02  0.7816164E-02  0.1226708E+00
        -11   -1    0    0    0    0  0.00000000000E+00  0.00000000000E+00  0.45593999997E+02  0.45594000000E+02  0.51100000000E-03 0. -1.
         11   -1    0    0    0    0 -0.00000000000E+00 -0.00000000000E+00 -0.45593999997E+02  0.45594000000E+02  0.51100000000E-03 0.  1.
    9900012    2    1    2    0    0  0.96594022906E+01  0.20582086625E+01  0.15910406077E+02  0.72461513489E+02  0.69999926001E+02 0.  0.
        -12    1    1    2    0    0 -0.96594022906E+01 -0.20582086625E+01 -0.15910406077E+02  0.18726486511E+02  0.00000000000E+00 0.  1.
         11    1    3    3    0    0 -0.89237617066E+01  0.71107260612E+01  0.12739894331E+02  0.17102656400E+02  0.51100000000E-03 0. -1.
        -11    1    3    3    0    0  0.28294410878E+02 -0.12757886482E+02  0.18118588946E+02  0.35939123808E+02  0.51100000000E-03 0.  1.
        -12    1    3    3    0    0 -0.97112468814E+01  0.77053690832E+01 -0.14948077200E+02  0.19419733281E+02  0.00000000000E+00 0.  1.
</event>
<event>
 7    1  0.3508738E-013  0.7246156E+02  0.7816164E-02  0.1226708E+00
        -11   -1    0    0    0    0  0.00000000000E+00  0.00000000000E+00  0.45593999997E+02  0.45594000000E+02  0.51100000000E-03 0.  1.
         11   -1    0    0    0    0 -0.00000000000E+00 -0.00000000000E+00 -0.45593999997E+02  0.45594000000E+02  0.51100000000E-03 0. -1.
    9900012    2    1    2    0    0  0.13003193282E+02  0.27399558640E+01 -0.13194285052E+02  0.72461560090E+02  0.69999986707E+02 0.  0.
        -12    1    1    2    0    0 -0.13003193282E+02 -0.27399558640E+01  0.13194285052E+02  0.18726439910E+02  0.00000000000E+00 0.  1.
         11    1    3    3    0    0 -0.27134467695E+01  0.12236459907E+02  0.26849321642E+01  0.12818057787E+02  0.51100000000E-03 0. -1.
        -11    1    3    3    0    0 -0.19315141690E+02  0.43397038563E+01 -0.45729455955E+01  0.20317961506E+02  0.51100000000E-03 0.  1.
        -12    1    3    3    0    0  0.35031781742E+02 -0.13836207900E+02 -0.11306271621E+02  0.39325540797E+02  0.00000000000E+00 0.  1.
</event>
<event>
 7    1  0.3508738E-013  0.7246159E+02  0.7816164E-02  0.1226708E+00
        -11   -1    0    0    0    0  0.00000000000E+00  0.00000000000E+00  0.45593999997E+02  0.45594000000E+02  0.51100000000E-03 0. -1.
         11   -1    0    0    0    0 -0.00000000000E+00 -0.00000000000E+00 -0.45593999997E+02  0.45594000000E+02  0.51100000000E-03 0.  1.
    9900012    2    1    2    0    0  0.10314237242E+02  0.12289220478E+02  0.96576459838E+01  0.72461586681E+02  0.70000021347E+02 0.  0.
        -12    1    1    2    0    0 -0.10314237242E+02 -0.12289220478E+02 -0.96576459838E+01  0.18726413319E+02  0.00000000000E+00 0.  1.
         11    1    3    3    0    0  0.24301105635E+01  0.83197499584E+00  0.24676161181E+02  0.24809485095E+02  0.51100000000E-03 0. -1.
        -11    1    3    3    0    0 -0.12496146049E+02  0.45251930609E+00  0.81227862542E+01  0.14911005888E+02  0.51100000000E-03 0.  1.
        -12    1    3    3    0    0  0.20380272727E+02  0.11004726177E+02 -0.23141301452E+02  0.32741095698E+02  0.00000000000E+00 0.  1.
</event>
<event>
 7    1  0.3508738E-013  0.7246157E+02  0.7816164E-02  0.1226708E+00
        -11   -1    0    0    0    0  0.00000000000E+00  0.00000000000E+00  0.45593999997E+02  0.45594000000E+02  0.51100000000E-03 0.  1.
         11   -1    0    0    0    0 -0.00000000000E+00 -0.00000000000E+00 -0.45593999997E+02  0.45594000000E+02  0.51100000000E-03 0. -1.
    9900012    2    1    2    0    0 -0.17444258098E+02 -0.32738962526E+01 -0.59714975092E+01  0.72461566283E+02  0.69999994774E+02 0.  0.
        -12    1    1    2    0    0  0.17444258098E+02  0.32738962526E+01  0.59714975092E+01  0.18726433717E+02  0.00000000000E+00 0.  1.
         11    1    3    3    0    0 -0.24443004348E+02 -0.19067949216E+02 -0.23022677676E+02  0.38614645363E+02  0.51100000000E-03 0. -1.
        -11    1    3    3    0    0 -0.72787785540E+00 -0.39298501918E+00 -0.52006780292E+01  0.52660512362E+01  0.51100000000E-03 0.  1.
        -12    1    3    3    0    0  0.77266241048E+01  0.16187037983E+02  0.22251858196E+02  0.28580869684E+02  0.00000000000E+00 0.  1.
</event>
<event>
 7    1  0.3508738E-013  0.7246151E+02  0.7816164E-02  0.1226708E+00
        -11   -1    0    0    0    0  0.00000000000E+00  0.00000000000E+00  0.45593999997E+02  0.45594000000E+02  0.51100000000E-03 0. -1.
         11   -1    0    0    0    0 -0.00000000000E+00 -0.00000000000E+00 -0.45593999997E+02  0.45594000000E+02  0.51100000000E-03 0.  1.
    9900012    2    1    2    0    0 -0.11146119873E+02 -0.43746878514E+01  0.14398184302E+02  0.72461505581E+02  0.69999915699E+02 0.  0.
        -12    1    1    2    0    0  0.11146119873E+02  0.43746878514E+01 -0.14398184302E+02  0.18726494419E+02  0.00000000000E+00 0.  1.
         11    1    3    3    0    0 -0.10531190060E+02 -0.27508433779E+01  0.21503074314E+01  0.11094905393E+02  0.51100000000E-03 0. -1.
        -11    1    3    3    0    0  0.22802052505E+01 -0.27245659788E+02 -0.81050135968E+01  0.28516952132E+02  0.51100000000E-03 0.  1.
         12    1    3    3    0    0 -0.28951350642E+01  0.25621815314E+02  0.20352890467E+02  0.32849648056E+02  0.00000000000E+00 0. -1.
</event>
<event>
 7    1  0.3508738E-013  0.7246156E+02  0.7816164E-02  0.1226708E+00
        -11   -1    0    0    0    0  0.00000000000E+00  0.00000000000E+00  0.45593999997E+02  0.45594000000E+02  0.51100000000E-03 0.  1.
         11   -1    0    0    0    0 -0.00000000000E+00 -0.00000000000E+00 -0.45593999997E+02  0.45594000000E+02  0.51100000000E-03 0. -1.
    9900012    2    1    2    0    0  0.39937069155E+01  0.14736513757E+02 -0.10842734846E+02  0.72461563297E+02  0.69999990885E+02 0.  0.
        -12    1    1    2    0    0 -0.39937069155E+01 -0.14736513757E+02  0.10842734846E+02  0.18726436703E+02  0.00000000000E+00 0.  1.
         11    1    3    3    0    0  0.13842344161E+02 -0.15596439999E+02 -0.86052956717E+01  0.22559045777E+02  0.51100000000E-03 0. -1.
        -11    1    3    3    0    0  0.14435252746E+02  0.71193468107E+01 -0.26128565873E+01  0.16306092133E+02  0.51100000000E-03 0.  1.
         12    1    3    3    0    0 -0.24283889992E+02  0.23213606945E+02  0.37541741332E+00  0.33596425387E+02  0.00000000000E+00 0. -1.
</event>
<event>
 7    1  0.3508738E-013  0.7246160E+02  0.7816164E-02  0.1226708E+00
        -11   -1    0    0    0    0  0.00000000000E+00  0.00000000000E+00  0.45593999997E+02  0.45594000000E+02  0.51100000000E-03 0.  1.
         11   -1    0    0    0    0 -0.00000000000E+00 -0.00000000000E+00 -0.45593999997E+02  0.45594000000E+02  0.51100000000E-03 0. -1.
    9900012    2    1    2    0    0 -0.33407491238E+01 -0.18279618890E+02  0.23179438949E+01  0.72461603246E+02  0.70000042926E+02 0.  0.
        -12    1    1    2    0    0  0.33407491238E+01  0.18279618890E+02 -0.23179438949E+01  0.18726396754E+02  0.00000000000E+00 0.  1.
         11    1    3    3    0    0  0.14793407255E+02 -0.84883519550E+01 -0.88891084004E+01  0.19233129374E+02  0.51100000000E-03 0. -1.
        -11    1    3    3    0    0 -0.16259223288E+02 -0.25089225883E+02 -0.56082119907E+01  0.30418475295E+02  0.51100000000E-03 0.  1.
        -12    1    3    3    0    0 -0.18749330909E+01  0.15297958947E+02  0.16815264286E+02  0.22809998576E+02  0.00000000000E+00 0.  1.
</event>
<event>
 7    1  0.3508738E-013  0.7246156E+02  0.7816164E-02  0.1226708E+00
        -11   -1    0    0    0    0  0.00000000000E+00  0.00000000000E+00  0.45593999997E+02  0.45594000000E+02  0.51100000000E-03 0.  1.
         11   -1    0    0    0    0 -0.00000000000E+00 -0.00000000000E+00 -0.45593999997E+02  0.45594000000E+02  0.51100000000E-03 0. -1.
    9900012    2    1    2    0    0  0.16657921770E+02  0.28212831130E+01  0.80767255505E+01  0.72461561691E+02  0.69999988793E+02 0.  0.
        -12    1    1    2    0    0 -0.16657921770E+02 -0.28212831130E+01 -0.80767255505E+01  0.18726438309E+02  0.00000000000E+00 0.  1.
         11    1    3    3    0    0 -0.31377899670E+01 -0.14508000738E+02  0.12324963597E+02  0.19293328879E+02  0.51100000000E-03 0. -1.
        -11    1    3    3    0    0 -0.72019957368E+01  0.23778219914E+02 -0.52471552041E+01  0.25393013269E+02  0.51100000000E-03 0.  1.
         12    1    3    3    0    0  0.26997707474E+02 -0.64489360631E+01  0.99891715726E+00  0.27775219543E+02  0.00000000000E+00 0. -1.
</event>
<event>
 7    1  0.3508738E-013  0.7246180E+02  0.7816164E-02  0.1226707E+00
        -11   -1    0    0    0    0  0.00000000000E+00  0.00000000000E+00  0.45593999997E+02  0.45594000000E+02  0.51100000000E-03 0.  1.
         11   -1    0    0    0    0 -0.00000000000E+00 -0.00000000000E+00 -0.45593999997E+02  0.45594000000E+02  0.51100000000E-03 0. -1.
    9900012    2    1    2    0    0  0.90189747017E+00 -0.18532507316E+02 -0.25304889864E+01  0.72461798544E+02  0.70000297337E+02 0.  0.
        -12    1    1    2    0    0 -0.90189747017E+00  0.18532507316E+02  0.25304889864E+01  0.18726201456E+02  0.00000000000E+00 0.  1.
         11    1    3    3    0    0 -0.23649106605E+02 -0.14097076593E+01 -0.46330990292E+01  0.24139865902E+02  0.51100000000E-03 0. -1.
        -11    1    3    3    0    0 -0.20940145901E+01 -0.17647410894E+02  0.10172520786E+02  0.20476723072E+02  0.51100000000E-03 0.  1.
        -12    1    3    3    0    0  0.26645018665E+02  0.52461123805E+00 -0.80699107432E+01  0.27845209570E+02  0.00000000000E+00 0.  1.
</event>
<event>
 7    1  0.3508738E-013  0.7246179E+02  0.7816164E-02  0.1226707E+00
        -11   -1    0    0    0    0  0.00000000000E+00  0.00000000000E+00  0.45593999997E+02  0.45594000000E+02  0.51100000000E-03 0. -1.
         11   -1    0    0    0    0 -0.00000000000E+00 -0.00000000000E+00 -0.45593999997E+02  0.45594000000E+02  0.51100000000E-03 0.  1.
    9900012    2    1    2    0    0 -0.11393739333E+02 -0.68719157209E+01 -0.13176889176E+02  0.72461790292E+02  0.70000286588E+02 0.  0.
        -12    1    1    2    0    0  0.11393739333E+02  0.68719157209E+01  0.13176889176E+02  0.18726209708E+02  0.00000000000E+00 0.  1.
         11    1    3    3    0    0 -0.17653091162E+01  0.57122496734E+01  0.22810185339E+02  0.23580726623E+02  0.51100000000E-03 0. -1.
        -11    1    3    3    0    0 -0.31159584770E+01 -0.42372531579E+01  0.45683328793E+01  0.69665757092E+01  0.51100000000E-03 0.  1.
        -12    1    3    3    0    0 -0.65124717398E+01 -0.83469122365E+01 -0.40555407394E+02  0.41914487960E+02  0.00000000000E+00 0.  1.
</event>
<event>
 7    1  0.3508738E-013  0.7246154E+02  0.7816164E-02  0.1226708E+00
        -11   -1    0    0    0    0  0.00000000000E+00  0.00000000000E+00  0.45593999997E+02  0.45594000000E+02  0.51100000000E-03 0.  1.
         11   -1    0    0    0    0 -0.00000000000E+00 -0.00000000000E+00 -0.45593999997E+02  0.45594000000E+02  0.51100000000E-03 0. -1.
    9900012    2    1    2    0    0 -0.57015701475E+01  0.10680096845E+02 -0.14286630872E+02  0.72461542982E+02  0.69999964421E+02 0.  0.
        -12    1    1    2    0    0  0.57015701475E+01 -0.10680096845E+02  0.14286630872E+02  0.18726457018E+02  0.00000000000E+00 0.  1.
         11    1    3    3    0    0 -0.14598300796E+02 -0.13709121939E+02 -0.18532813867E+02  0.27285813174E+02  0.51100000000E-03 0. -1.
        -11    1    3    3    0    0 -0.31375908114E+01  0.13009462232E+01 -0.13334038329E+02  0.13759851583E+02  0.51100000000E-03 0.  1.
        -12    1    3    3    0    0  0.12034321460E+02  0.23088272561E+02  0.17580221324E+02  0.31415878225E+02  0.00000000000E+00 0.  1.
</event>
<event>
 7    1  0.3508738E-013  0.7246152E+02  0.7816164E-02  0.1226708E+00
        -11   -1    0    0    0    0  0.00000000000E+00  0.00000000000E+00  0.45593999997E+02  0.45594000000E+02  0.51100000000E-03 0. -1.
         11   -1    0    0    0    0 -0.00000000000E+00 -0.00000000000E+00 -0.45593999997E+02  0.45594000000E+02  0.51100000000E-03 0.  1.
    9900012    2    1    2    0    0 -0.12196111916E+02 -0.73207817939E+01  0.12179570120E+02  0.72461523549E+02  0.69999939106E+02 0.  0.
        -12    1    1    2    0    0  0.12196111916E+02  0.73207817939E+01 -0.12179570120E+02  0.18726476451E+02  0.00000000000E+00 0.  1.
         11    1    3    3    0    0  0.69933303312E+01  0.50026275100E+01  0.13647856248E+02  0.16130620929E+02  0.51100000000E-03 0. -1.
        -11    1    3    3    0    0  0.62884000679E+01 -0.13033027038E+02 -0.20094384696E+02  0.24762634467E+02  0.51100000000E-03 0.  1.
         12    1    3    3    0    0 -0.25477842315E+02  0.70961773363E+00  0.18626098567E+02  0.31568268153E+02  0.00000000000E+00 0. -1.
</event>
<event>
 7    1  0.3508738E-013  0.7246157E+02  0.7816164E-02  0.1226708E+00
        -11   -1    0    0    0    0  0.00000000000E+00  0.00000000000E+00  0.45593999997E+02  0.45594000000E+02  0.51100000000E-03 0. -1.
         11   -1    0    0    0    0 -0.00000000000E+00 -0.00000000000E+00 -0.45593999997E+02  0.45594000000E+02  0.51100000000E-03 0.  1.
    9900012    2    1    2    0    0 -0.15141920906E+01  0.17734714106E+02  0.58194932411E+01  0.72461565110E+02  0.69999993246E+02 0.  0.
        -12    1    1    2    0    0  0.15141920906E+01 -0.17734714106E+02 -0.58194932411E+01  0.18726434890E+02  0.00000000000E+00 0.  1.
         11    1    3    3    0    0 -0.32620201953E+01 -0.19212345180E+01 -0.53174888242E+01  0.65274501518E+01  0.51100000000E-03 0. -1.
        -11    1    3    3    0    0  0.24326077953E+02  0.20271806635E+02 -0.11753268452E+02  0.33776375359E+02  0.51100000000E-03 0.  1.
         12    1    3    3    0    0 -0.22578249849E+02 -0.61585801017E+00  0.22890250518E+02  0.32157739599E+02  0.00000000000E+00 0. -1.
</event>
<event>
 7    1  0.3508738E-013  0.7246156E+02  0.7816164E-02  0.1226708E+00
        -11   -1    0    0    0    0  0.00000000000E+00  0.00000000000E+00  0.45593999997E+02  0.45594000000E+02  0.51100000000E-03 0.  1.
         11   -1    0    0    0    0 -0.00000000000E+00 -0.00000000000E+00 -0.45593999997E+02  0.45594000000E+02  0.51100000000E-03 0. -1.
    9900012    2    1    2    0    0 -0.10764077980E+02 -0.13728938176E+02 -0.68066376220E+01  0.72461563235E+02  0.69999990803E+02 0.  0.
        -12    1    1    2    0    0  0.10764077980E+02  0.13728938176E+02  0.68066376220E+01  0.18726436765E+02  0.00000000000E+00 0.  1.
         11    1    3    3    0    0  0.70042225682E+01 -0.95187562487E+01 -0.23383927822E+02  0.26200647605E+02  0.51100000000E-03 0. -1.
        -11    1    3    3    0    0  0.92029653143E+01  0.69025386589E+01  0.12191373545E+02  0.16762135893E+02  0.51100000000E-03 0.  1.
        -12    1    3    3    0    0 -0.26971265862E+02 -0.11112720587E+02  0.43859166547E+01  0.29498779737E+02  0.00000000000E+00 0.  1.
</event>
<event>
 7    1  0.3508738E-013  0.7246166E+02  0.7816164E-02  0.1226708E+00
        -11   -1    0    0    0    0  0.00000000000E+00  0.00000000000E+00  0.45593999997E+02  0.45594000000E+02  0.51100000000E-03 0.  1.
         11   -1    0    0    0    0 -0.00000000000E+00 -0.00000000000E+00 -0.45593999997E+02  0.45594000000E+02  0.51100000000E-03 0. -1.
    9900012    2    1    2    0    0 -0.14415580494E+01  0.85974974576E+01 -0.16573494414E+02  0.72461661083E+02  0.70000118269E+02 0.  0.
        -12    1    1    2    0    0  0.14415580494E+01 -0.85974974576E+01  0.16573494414E+02  0.18726338917E+02  0.00000000000E+00 0.  1.
         11    1    3    3    0    0 -0.69498714288E+01  0.96684318082E+01 -0.15676778953E+02  0.19686053061E+02  0.51100000000E-03 0. -1.
        -11    1    3    3    0    0 -0.14983387479E+02  0.16723957245E+02 -0.93890425910E+01  0.24338175102E+02  0.51100000000E-03 0.  1.
        -12    1    3    3    0    0  0.20491700858E+02 -0.17794891596E+02  0.84923271301E+01  0.28437432920E+02  0.00000000000E+00 0.  1.
</event>
<event>
 7    1  0.3508738E-013  0.7246156E+02  0.7816164E-02  0.1226708E+00
        -11   -1    0    0    0    0  0.00000000000E+00  0.00000000000E+00  0.45593999997E+02  0.45594000000E+02  0.51100000000E-03 0.  1.
         11   -1    0    0    0    0 -0.00000000000E+00 -0.00000000000E+00 -0.45593999997E+02  0.45594000000E+02  0.51100000000E-03 0. -1.
    9900012    2    1    2    0    0  0.12397263996E+02  0.43452359961E+00  0.14028487590E+02  0.72461563355E+02  0.69999990961E+02 0.  0.
        -12    1    1    2    0    0 -0.12397263996E+02 -0.43452359961E+00 -0.14028487590E+02  0.18726436645E+02  0.00000000000E+00 0.  1.
         11    1    3    3    0    0 -0.24987828524E+01  0.75016012406E+00 -0.92808607916E+01  0.96405929927E+01  0.51100000000E-03 0. -1.
        -11    1    3    3    0    0  0.11393811267E+02 -0.17893963187E+02 -0.11160025329E+02  0.23969960770E+02  0.51100000000E-03 0.  1.
        -12    1    3    3    0    0  0.35022355821E+01  0.17578326663E+02  0.34469373711E+02  0.38851009592E+02  0.00000000000E+00 0.  1.
</event>
<event>
 7    1  0.3508738E-013  0.7246158E+02  0.7816164E-02  0.1226708E+00
        -11   -1    0    0    0    0  0.00000000000E+00  0.00000000000E+00  0.45593999997E+02  0.45594000000E+02  0.51100000000E-03 0.  1.
         11   -1    0    0    0    0 -0.00000000000E+00 -0.00000000000E+00 -0.45593999997E+02  0.45594000000E+02  0.51100000000E-03 0. -1.
    9900012    2    1    2    0    0 -0.27973290180E+01  0.15911059463E+02 -0.94705761846E+01  0.72461583467E+02  0.70000017160E+02 0.  0.
        -12    1    1    2    0    0  0.27973290180E+01 -0.15911059463E+02  0.94705761846E+01  0.18726416533E+02  0.00000000000E+00 0.  1.
         11    1    3    3    0    0  0.25172826538E+02  0.21452474748E+01  0.79984683918E+01  0.26499976972E+02  0.51100000000E-03 0. -1.
        -11    1    3    3    0    0 -0.13680824481E+02  0.16857657377E+02  0.17874952233E+01  0.21783955338E+02  0.51100000000E-03 0.  1.
         12    1    3    3    0    0 -0.14289331075E+02 -0.30918453879E+01 -0.19256539800E+02  0.24177651158E+02  0.00000000000E+00 0. -1.
</event>
<event>
 7    1  0.3508738E-013  0.7246155E+02  0.7816164E-02  0.1226708E+00
        -11   -1    0    0    0    0  0.00000000000E+00  0.00000000000E+00  0.45593999997E+02  0.45594000000E+02  0.51100000000E-03 0.  1.
         11   -1    0    0    0    0 -0.00000000000E+00 -0.00000000000E+00 -0.45593999997E+02  0.45594000000E+02  0.51100000000E-03 0. -1.
    9900012    2    1    2    0    0 -0.15575129334E+02 -0.67384441410E+01 -0.79176240309E+01  0.72461546692E+02  0.69999969254E+02 0.  0.
        -12    1    1    2    0    0  0.15575129334E+02  0.67384441410E+01  0.79176240309E+01  0.18726453308E+02  0.00000000000E+00 0.  1.
         11    1    3    3    0    0 -0.88111293617E+01 -0.22054898483E+02 -0.22778067863E+02  0.32907368834E+02  0.51100000000E-03 0. -1.
        -11    1    3    3    0    0 -0.11995220767E+02 -0.68915989505E+01  0.52443556930E+01  0.14794685675E+02  0.51100000000E-03 0.  1.
        -12    1    3    3    0    0  0.52312207951E+01  0.22208053292E+02  0.96160881394E+01  0.24759492183E+02  0.00000000000E+00 0.  1.
</event>
<event>
 7    1  0.3508738E-013  0.7246161E+02  0.7816164E-02  0.1226708E+00
        -11   -1    0    0    0    0  0.00000000000E+00  0.00000000000E+00  0.45593999997E+02  0.45594000000E+02  0.51100000000E-03 0. -1.
         11   -1    0    0    0    0 -0.00000000000E+00 -0.00000000000E+00 -0.45593999997E+02  0.45594000000E+02  0.51100000000E-03 0.  1.
    9900012    2    1    2    0    0 -0.12106354797E+02  0.13480463843E+02 -0.47319125668E+01  0.72461608772E+02  0.70000050124E+02 0.  0.
        -12    1    1    2    0    0  0.12106354797E+02 -0.13480463843E+02  0.47319125668E+01  0.18726391228E+02  0.00000000000E+00 0.  1.
         11    1    3    3    0    0 -0.46194867807E+00  0.36787417028E+01 -0.37260364626E+01  0.52564137089E+01  0.51100000000E-03 0. -1.
        -11    1    3    3    0    0  0.22729413123E+02  0.20241899484E+02 -0.57323440048E+01  0.30971284825E+02  0.51100000000E-03 0.  1.
         12    1    3    3    0    0 -0.34373819243E+02 -0.10440177344E+02  0.47264679005E+01  0.36233910238E+02  0.00000000000E+00 0. -1.
</event>
<event>
 7    1  0.3508738E-013  0.7246156E+02  0.7816164E-02  0.1226708E+00
        -11   -1    0    0    0    0  0.00000000000E+00  0.00000000000E+00  0.45593999997E+02  0.45594000000E+02  0.51100000000E-03 0. -1.
         11   -1    0    0    0    0 -0.00000000000E+00 -0.00000000000E+00 -0.45593999997E+02  0.45594000000E+02  0.51100000000E-03 0.  1.
    9900012    2    1    2    0    0  0.12208295725E+02 -0.14145748430E+02  0.12389597368E+01  0.72461556014E+02  0.69999981397E+02 0.  0.
        -12    1    1    2    0    0 -0.12208295725E+02  0.14145748430E+02 -0.12389597368E+01  0.18726443986E+02  0.00000000000E+00 0.  1.
         11    1    3    3    0    0  0.13490465891E+02 -0.29297694376E+02 -0.12938519401E+02  0.34752738745E+02  0.51100000000E-03 0. -1.
        -11    1    3    3    0    0 -0.51108363111E+00 -0.25920098871E+00 -0.94618122286E+01  0.94791498849E+01  0.51100000000E-03 0.  1.
         12    1    3    3    0    0 -0.77108653531E+00  0.15411146935E+02  0.23639291366E+02  0.28229667384E+02  0.00000000000E+00 0. -1.
</event>
<event>
 7    1  0.3508738E-013  0.7246156E+02  0.7816164E-02  0.1226708E+00
        -11   -1    0    0    0    0  0.00000000000E+00  0.00000000000E+00  0.45593999997E+02  0.45594000000E+02  0.51100000000E-03 0.  1.
         11   -1    0    0    0    0 -0.00000000000E+00 -0.00000000000E+00 -0.45593999997E+02  0.45594000000E+02  0.51100000000E-03 0. -1.
    9900012    2    1    2    0    0  0.17811109357E+02  0.57273139954E+01  0.80124147448E+00  0.72461555329E+02  0.69999980505E+02 0.  0.
        -12    1    1    2    0    0 -0.17811109357E+02 -0.57273139954E+01 -0.80124147448E+00  0.18726444671E+02  0.00000000000E+00 0.  1.
         11    1    3    3    0    0  0.64198570418E+01 -0.12903520601E+02  0.30090610493E+01  0.14723106228E+02  0.51100000000E-03 0. -1.
        -11    1    3    3    0    0 -0.21209925319E+02  0.33145114935E+01 -0.32025265536E+01  0.21704909469E+02  0.51100000000E-03 0.  1.
         12    1    3    3    0    0  0.32601177633E+02  0.15316323103E+02  0.99470697877E+00  0.36033539632E+02  0.00000000000E+00 0. -1.
</event>
<event>
 7    1  0.3508738E-013  0.7246157E+02  0.7816164E-02  0.1226708E+00
        -11   -1    0    0    0    0  0.00000000000E+00  0.00000000000E+00  0.45593999997E+02  0.45594000000E+02  0.51100000000E-03 0.  1.
         11   -1    0    0    0    0 -0.00000000000E+00 -0.00000000000E+00 -0.45593999997E+02  0.45594000000E+02  0.51100000000E-03 0. -1.
    9900012    2    1    2    0    0 -0.10085248091E+02 -0.15135796821E+02 -0.44580934704E+01  0.72461570232E+02  0.69999999919E+02 0.  0.
        -12    1    1    2    0    0  0.10085248091E+02  0.15135796821E+02  0.44580934704E+01  0.18726429768E+02  0.00000000000E+00 0.  1.
         11    1    3    3    0    0 -0.13344139506E+02 -0.14325891030E+02 -0.27705537027E+02  0.33924828595E+02  0.51100000000E-03 0. -1.
        -11    1    3    3    0    0 -0.68147483113E+01 -0.77354184239E+01 -0.19854574837E+01  0.10498549158E+02  0.51100000000E-03 0.  1.
        -12    1    3    3    0    0  0.10073639726E+02  0.69255126332E+01  0.25232901041E+02  0.28038192479E+02  0.00000000000E+00 0.  1.
</event>
<event>
 7    1  0.3508738E-013  0.7246162E+02  0.7816164E-02  0.1226708E+00
        -11   -1    0    0    0    0  0.00000000000E+00  0.00000000000E+00  0.45593999997E+02  0.45594000000E+02  0.51100000000E-03 0.  1.
         11   -1    0    0    0    0 -0.00000000000E+00 -0.00000000000E+00 -0.45593999997E+02  0.45594000000E+02  0.51100000000E-03 0. -1.
    9900012    2    1    2    0    0  0.73169582082E+00  0.32827310322E+00 -0.18709203642E+02  0.72461616395E+02  0.70000060055E+02 0.  0.
        -12    1    1    2    0    0 -0.73169582082E+00 -0.32827310322E+00  0.18709203642E+02  0.18726383605E+02  0.00000000000E+00 0.  1.
         11    1    3    3    0    0 -0.77486179722E+01 -0.40437300491E+01 -0.22226789501E+02  0.23883529994E+02  0.51100000000E-03 0. -1.
        -11    1    3    3    0    0 -0.50504832728E+01  0.99396135026E+01 -0.18820338236E+02  0.21874835529E+02  0.51100000000E-03 0.  1.
        -12    1    3    3    0    0  0.13530797066E+02 -0.55676103503E+01  0.22337924095E+02  0.26703250872E+02  0.00000000000E+00 0.  1.
</event>
<event>
 7    1  0.3508738E-013  0.7246158E+02  0.7816164E-02  0.1226708E+00
        -11   -1    0    0    0    0  0.00000000000E+00  0.00000000000E+00  0.45593999997E+02  0.45594000000E+02  0.51100000000E-03 0. -1.
         11   -1    0    0    0    0 -0.00000000000E+00 -0.00000000000E+00 -0.45593999997E+02  0.45594000000E+02  0.51100000000E-03 0.  1.
    9900012    2    1    2    0    0 -0.12213091884E+02 -0.14106590578E+02 -0.15885038730E+01  0.72461578675E+02  0.70000010917E+02 0.  0.
        -12    1    1    2    0    0  0.12213091884E+02  0.14106590578E+02  0.15885038730E+01  0.18726421325E+02  0.00000000000E+00 0.  1.
         11    1    3    3    0    0 -0.35151359874E+02 -0.19621362881E+02  0.76702977558E+01  0.40981086494E+02  0.51100000000E-03 0. -1.
        -11    1    3    3    0    0  0.64556901623E+01 -0.68877277692E+01 -0.23715025649E+01  0.97334862188E+01  0.51100000000E-03 0.  1.
        -12    1    3    3    0    0  0.16482577828E+02  0.12402500072E+02 -0.68872990639E+01  0.21747005962E+02  0.00000000000E+00 0.  1.
</event>
<event>
 7    1  0.3508738E-013  0.7246156E+02  0.7816164E-02  0.1226708E+00
        -11   -1    0    0    0    0  0.00000000000E+00  0.00000000000E+00  0.45593999997E+02  0.45594000000E+02  0.51100000000E-03 0.  1.
         11   -1    0    0    0    0 -0.00000000000E+00 -0.00000000000E+00 -0.45593999997E+02  0.45594000000E+02  0.51100000000E-03 0. -1.
    9900012    2    1    2    0    0 -0.18635641680E+02 -0.17940307892E+01  0.41713753936E+00  0.72461556370E+02  0.69999981862E+02 0.  0.
        -12    1    1    2    0    0  0.18635641680E+02  0.17940307892E+01 -0.41713753936E+00  0.18726443630E+02  0.00000000000E+00 0.  1.
         11    1    3    3    0    0 -0.15149281079E+02 -0.10571501982E+02  0.80402772350E+01  0.20147045184E+02  0.51100000000E-03 0. -1.
        -11    1    3    3    0    0 -0.18121221349E+02 -0.63464703055E+01  0.12730029259E+02  0.23037143784E+02  0.51100000000E-03 0.  1.
        -12    1    3    3    0    0  0.14634860748E+02  0.15123941498E+02 -0.20353168955E+02  0.29277367403E+02  0.00000000000E+00 0.  1.
</event>
<event>
 7    1  0.3508738E-013  0.7246132E+02  0.7816164E-02  0.1226709E+00
        -11   -1    0    0    0    0  0.00000000000E+00  0.00000000000E+00  0.45593999997E+02  0.45594000000E+02  0.51100000000E-03 0.  1.
         11   -1    0    0    0    0 -0.00000000000E+00 -0.00000000000E+00 -0.45593999997E+02  0.45594000000E+02  0.51100000000E-03 0. -1.
    9900012    2    1    2    0    0  0.81657881695E+01 -0.14793172756E+02 -0.80728291026E+01  0.72461317797E+02  0.69999671074E+02 0.  0.
        -12    1    1    2    0    0 -0.81657881695E+01  0.14793172756E+02  0.80728291026E+01  0.18726682203E+02  0.00000000000E+00 0.  1.
         11    1    3    3    0    0  0.52135130569E+01 -0.14220731688E+02 -0.41295579666E+01  0.15699145753E+02  0.51100000000E-03 0. -1.
        -11    1    3    3    0    0 -0.62426307802E+01 -0.40182162613E+00  0.25323398547E+02  0.26084601088E+02  0.51100000000E-03 0.  1.
        -12    1    3    3    0    0  0.91949058928E+01 -0.17061944266E+00 -0.29266669683E+02  0.30677570955E+02  0.00000000000E+00 0.  1.
</event>
<event>
 7    1  0.3508738E-013  0.7246140E+02  0.7816164E-02  0.1226708E+00
        -11   -1    0    0    0    0  0.00000000000E+00  0.00000000000E+00  0.45593999997E+02  0.45594000000E+02  0.51100000000E-03 0. -1.
         11   -1    0    0    0    0 -0.00000000000E+00 -0.00000000000E+00 -0.45593999997E+02  0.45594000000E+02  0.51100000000E-03 0.  1.
    9900012    2    1    2    0    0  0.68968030595E+01  0.17338512372E+02  0.15797935891E+01  0.72461397225E+02  0.69999774544E+02 0.  0.
        -12    1    1    2    0    0 -0.68968030595E+01 -0.17338512372E+02 -0.15797935891E+01  0.18726602775E+02  0.00000000000E+00 0.  1.
         11    1    3    3    0    0 -0.16133583464E+02  0.22418731554E+02  0.53681093148E+01  0.28137317529E+02  0.51100000000E-03 0. -1.
        -11    1    3    3    0    0  0.77792279138E+01  0.84639839836E+01  0.13396440856E+02  0.17652762947E+02  0.51100000000E-03 0.  1.
        -12    1    3    3    0    0  0.15251158610E+02 -0.13544203165E+02 -0.17184756581E+02  0.26671316748E+02  0.00000000000E+00 0.  1.
</event>
<event>
 7    1  0.3508738E-013  0.7246158E+02  0.7816164E-02  0.1226708E+00
        -11   -1    0    0    0    0  0.00000000000E+00  0.00000000000E+00  0.45593999997E+02  0.45594000000E+02  0.51100000000E-03 0.  1.
         11   -1    0    0    0    0 -0.00000000000E+00 -0.00000000000E+00 -0.45593999997E+02  0.45594000000E+02  0.51100000000E-03 0. -1.
    9900012    2    1    2    0    0 -0.88663698606E+01 -0.24744678371E+01 -0.16307769257E+02  0.72461578993E+02  0.70000011332E+02 0.  0.
        -12    1    1    2    0    0  0.88663698606E+01  0.24744678371E+01  0.16307769257E+02  0.18726421007E+02  0.00000000000E+00 0.  1.
         11    1    3    3    0    0 -0.13724707264E+02  0.15322579141E+02 -0.16963883091E+02  0.26663127176E+02  0.51100000000E-03 0. -1.
        -11    1    3    3    0    0 -0.17335736760E+02 -0.15054101115E+02  0.36078304702E+01  0.23241561272E+02  0.51100000000E-03 0.  1.
        -12    1    3    3    0    0  0.22194074163E+02 -0.27429458631E+01 -0.29517166364E+01  0.22556890545E+02  0.00000000000E+00 0.  1.
</event>
<event>
 7    1  0.3508738E-013  0.7246151E+02  0.7816164E-02  0.1226708E+00
        -11   -1    0    0    0    0  0.00000000000E+00  0.00000000000E+00  0.45593999997E+02  0.45594000000E+02  0.51100000000E-03 0.  1.
         11   -1    0    0    0    0 -0.00000000000E+00 -0.00000000000E+00 -0.45593999997E+02  0.45594000000E+02  0.51100000000E-03 0. -1.
    9900012    2    1    2    0    0  0.75810369252E+01 -0.12632863693E+02 -0.11559409299E+02  0.72461513162E+02  0.69999925575E+02 0.  0.
        -12    1    1    2    0    0 -0.75810369252E+01  0.12632863693E+02  0.11559409299E+02  0.18726486838E+02  0.00000000000E+00 0.  1.
         11    1    3    3    0    0  0.11636690940E+02 -0.69529806064E+01  0.83913049157E+01  0.15942726047E+02  0.51100000000E-03 0. -1.
        -11    1    3    3    0    0  0.37358866495E+01  0.32805774602E+01  0.16997334904E+02  0.17709557635E+02  0.51100000000E-03 0.  1.
         12    1    3    3    0    0 -0.77915406645E+01 -0.89604605463E+01 -0.36948049119E+02  0.38809229480E+02  0.00000000000E+00 0. -1.
</event>
<event>
 7    1  0.3508738E-013  0.7246156E+02  0.7816164E-02  0.1226708E+00
        -11   -1    0    0    0    0  0.00000000000E+00  0.00000000000E+00  0.45593999997E+02  0.45594000000E+02  0.51100000000E-03 0. -1.
         11   -1    0    0    0    0 -0.00000000000E+00 -0.00000000000E+00 -0.45593999997E+02  0.45594000000E+02  0.51100000000E-03 0.  1.
    9900012    2    1    2    0    0  0.24940991751E+01 -0.17846606642E+02  0.50948635605E+01  0.72461560562E+02  0.69999987322E+02 0.  0.
        -12    1    1    2    0    0 -0.24940991751E+01  0.17846606642E+02 -0.50948635605E+01  0.18726439438E+02  0.00000000000E+00 0.  1.
         11    1    3    3    0    0 -0.51678052116E-01 -0.57373269322E+01 -0.13056821920E+02  0.14261843845E+02  0.51100000000E-03 0. -1.
        -11    1    3    3    0    0 -0.15815695396E+01 -0.94966090662E+01 -0.18696244333E+02  0.21029419830E+02  0.51100000000E-03 0.  1.
         12    1    3    3    0    0  0.41273467668E+01 -0.26126706432E+01  0.36847929813E+02  0.37170296888E+02  0.00000000000E+00 0. -1.
</event>
<event>
 7    1  0.3508738E-013  0.7246157E+02  0.7816164E-02  0.1226708E+00
        -11   -1    0    0    0    0  0.00000000000E+00  0.00000000000E+00  0.45593999997E+02  0.45594000000E+02  0.51100000000E-03 0. -1.
         11   -1    0    0    0    0 -0.00000000000E+00 -0.00000000000E+00 -0.45593999997E+02  0.45594000000E+02  0.51100000000E-03 0.  1.
    9900012    2    1    2    0    0 -0.79847670256E+01 -0.12394985123E+02  0.11545006401E+02  0.72461565918E+02  0.69999994299E+02 0.  0.
        -12    1    1    2    0    0  0.79847670256E+01  0.12394985123E+02 -0.11545006401E+02  0.18726434082E+02  0.00000000000E+00 0.  1.
         11    1    3    3    0    0  0.84404923097E+00  0.78842937699E+01 -0.30732978519E+01  0.85040970891E+01  0.51100000000E-03 0. -1.
        -11    1    3    3    0    0 -0.30913753931E+02 -0.26468235936E+01 -0.21422890909E+01  0.31100727645E+02  0.51100000000E-03 0.  1.
         12    1    3    3    0    0  0.22084937674E+02 -0.17632455299E+02  0.16760593343E+02  0.32856741183E+02  0.00000000000E+00 0. -1.
</event>
<event>
 7    1  0.3508738E-013  0.7246181E+02  0.7816164E-02  0.1226707E+00
        -11   -1    0    0    0    0  0.00000000000E+00  0.00000000000E+00  0.45593999997E+02  0.45594000000E+02  0.51100000000E-03 0. -1.
         11   -1    0    0    0    0 -0.00000000000E+00 -0.00000000000E+00 -0.45593999997E+02  0.45594000000E+02  0.51100000000E-03 0.  1.
    9900012    2    1    2    0    0  0.53201951775E+01 -0.10578414862E+02  0.14507335475E+02  0.72461811912E+02  0.70000314751E+02 0.  0.
        -12    1    1    2    0    0 -0.53201951775E+01  0.10578414862E+02 -0.14507335475E+02  0.18726188088E+02  0.00000000000E+00 0.  1.
         11    1    3    3    0    0  0.22441137966E+02 -0.13415793017E+02  0.16207340083E+02  0.30761437682E+02  0.51100000000E-03 0. -1.
        -11    1    3    3    0    0 -0.10380308499E+02 -0.13724563326E+02  0.10403177814E+02  0.20108221003E+02  0.51100000000E-03 0.  1.
        -12    1    3    3    0    0 -0.67406342891E+01  0.16561941480E+02 -0.12103182423E+02  0.21592153226E+02  0.00000000000E+00 0.  1.
</event>
<event>
 7    1  0.3508738E-013  0.7246137E+02  0.7816164E-02  0.1226709E+00
        -11   -1    0    0    0    0  0.00000000000E+00  0.00000000000E+00  0.45593999997E+02  0.45594000000E+02  0.51100000000E-03 0. -1.
         11   -1    0    0    0    0 -0.00000000000E+00 -0.00000000000E+00 -0.45593999997E+02  0.45594000000E+02  0.51100000000E-03 0.  1.
    9900012    2    1    2    0    0 -0.13616476575E+02  0.76008402578E+01  0.10368483460E+02  0.72461370400E+02  0.69999739600E+02 0.  0.
        -12    1    1    2    0    0  0.13616476575E+02 -0.76008402578E+01 -0.10368483460E+02  0.18726629600E+02  0.00000000000E+00 0.  1.
         11    1    3    3    0    0 -0.13243662886E+02  0.87641449521E+01  0.10889230518E+02  0.19255653324E+02  0.51100000000E-03 0. -1.
        -11    1    3    3    0    0 -0.12660604906E+02 -0.23486933137E+02  0.49647737202E+01  0.27139932260E+02  0.51100000000E-03 0.  1.
         12    1    3    3    0    0  0.12287791217E+02  0.22323628442E+02 -0.54855207789E+01  0.26065784815E+02  0.00000000000E+00 0. -1.
</event>
<event>
 7    1  0.3508738E-013  0.7246154E+02  0.7816164E-02  0.1226708E+00
        -11   -1    0    0    0    0  0.00000000000E+00  0.00000000000E+00  0.45593999997E+02  0.45594000000E+02  0.51100000000E-03 0. -1.
         11   -1    0    0    0    0 -0.00000000000E+00 -0.00000000000E+00 -0.45593999997E+02  0.45594000000E+02  0.51100000000E-03 0.  1.
    9900012    2    1    2    0    0 -0.15565765819E+02  0.98462174060E+01 -0.33821853466E+01  0.72461541700E+02  0.69999962750E+02 0.  0.
        -12    1    1    2    0    0  0.15565765819E+02 -0.98462174060E+01  0.33821853466E+01  0.18726458300E+02  0.00000000000E+00 0.  1.
         11    1    3    3    0    0  0.68984923589E+01  0.30496066500E+02  0.37115903184E+01  0.31486110775E+02  0.51100000000E-03 0. -1.
        -11    1    3    3    0    0 -0.44921589800E+01  0.52040023223E+01 -0.65328695418E+01  0.94836447205E+01  0.51100000000E-03 0.  1.
        -12    1    3    3    0    0 -0.17972099198E+02 -0.25853851416E+02 -0.56090612320E+00  0.31491786204E+02  0.00000000000E+00 0.  1.
</event>
<event>
 7    1  0.3508738E-013  0.7246166E+02  0.7816164E-02  0.1226708E+00
        -11   -1    0    0    0    0  0.00000000000E+00  0.00000000000E+00  0.45593999997E+02  0.45594000000E+02  0.51100000000E-03 0. -1.
         11   -1    0    0    0    0 -0.00000000000E+00 -0.00000000000E+00 -0.45593999997E+02  0.45594000000E+02  0.51100000000E-03 0.  1.
    9900012    2    1    2    0    0 -0.84400969357E+01  0.10179935491E+02 -0.13259310029E+02  0.72461664926E+02  0.70000123275E+02 0.  0.
        -12    1    1    2    0    0  0.84400969357E+01 -0.10179935491E+02  0.13259310029E+02  0.18726335074E+02  0.00000000000E+00 0.  1.
         11    1    3    3    0    0 -0.26315523097E+02  0.20757248421E+02 -0.73972604432E+01  0.34323309575E+02  0.51100000000E-03 0. -1.
        -11    1    3    3    0    0 -0.79386048274E+01 -0.17492845145E+01  0.40875209348E+01  0.90988609491E+01  0.51100000000E-03 0.  1.
        -12    1    3    3    0    0  0.25814030988E+02 -0.88280284152E+01 -0.99495705203E+01  0.29039494402E+02  0.00000000000E+00 0.  1.
</event>
<event>
 7    1  0.3508738E-013  0.7246159E+02  0.7816164E-02  0.1226708E+00
        -11   -1    0    0    0    0  0.00000000000E+00  0.00000000000E+00  0.45593999997E+02  0.45594000000E+02  0.51100000000E-03 0.  1.
         11   -1    0    0    0    0 -0.00000000000E+00 -0.00000000000E+00 -0.45593999997E+02  0.45594000000E+02  0.51100000000E-03 0. -1.
    9900012    2    1    2    0    0 -0.10725081093E+02 -0.91060309245E+01 -0.12358452693E+02  0.72461587727E+02  0.70000022709E+02 0.  0.
        -12    1    1    2    0    0  0.10725081093E+02  0.91060309245E+01  0.12358452693E+02  0.18726412273E+02  0.00000000000E+00 0.  1.
         11    1    3    3    0    0 -0.22512247913E+01 -0.84238412503E+01  0.12101911460E+02  0.14915943675E+02  0.51100000000E-03 0.  1.
        -11    1    3    3    0    0 -0.27391848097E+02  0.84407531831E+01 -0.53665475781E+01  0.29160924019E+02  0.51100000000E-03 0. -1.
        -12    1    3    3    0    0  0.18917991795E+02 -0.91229428573E+01 -0.19093816575E+02  0.28384720033E+02  0.00000000000E+00 0.  1.
</event>
<event>
 7    1  0.3508738E-013  0.7246151E+02  0.7816164E-02  0.1226708E+00
        -11   -1    0    0    0    0  0.00000000000E+00  0.00000000000E+00  0.45593999997E+02  0.45594000000E+02  0.51100000000E-03 0.  1.
         11   -1    0    0    0    0 -0.00000000000E+00 -0.00000000000E+00 -0.45593999997E+02  0.45594000000E+02  0.51100000000E-03 0. -1.
    9900012    2    1    2    0    0 -0.14197365614E+02  0.72467331949E+01 -0.98285860243E+01  0.72461509789E+02  0.69999921181E+02 0.  0.
        -12    1    1    2    0    0  0.14197365614E+02 -0.72467331949E+01  0.98285860243E+01  0.18726490211E+02  0.00000000000E+00 0.  1.
         11    1    3    3    0    0  0.32117417621E+01 -0.57449864910E+00  0.11075861649E+01  0.34455886606E+01  0.51100000000E-03 0. -1.
        -11    1    3    3    0    0  0.61383135600E+01  0.23372714254E+02  0.16813067259E+02  0.29438782174E+02  0.51100000000E-03 0.  1.
         12    1    3    3    0    0 -0.23547420936E+02 -0.15551482410E+02 -0.27749239449E+02  0.39577138955E+02  0.00000000000E+00 0. -1.
</event>
<event>
 7    1  0.3508738E-013  0.7246158E+02  0.7816164E-02  0.1226708E+00
        -11   -1    0    0    0    0  0.00000000000E+00  0.00000000000E+00  0.45593999997E+02  0.45594000000E+02  0.51100000000E-03 0.  1.
         11   -1    0    0    0    0 -0.00000000000E+00 -0.00000000000E+00 -0.45593999997E+02  0.45594000000E+02  0.51100000000E-03 0. -1.
    9900012    2    1    2    0    0  0.11516379877E+02 -0.14353330797E+02  0.34689554627E+01  0.72461581163E+02  0.70000014159E+02 0.  0.
        -12    1    1    2    0    0 -0.11516379877E+02  0.14353330797E+02 -0.34689554627E+01  0.18726418837E+02  0.00000000000E+00 0.  1.
         11    1    3    3    0    0  0.28348051208E+01 -0.29598078405E+01 -0.14767412069E+02  0.15325568244E+02  0.51100000000E-03 0. -1.
        -11    1    3    3    0    0 -0.11325601475E+02 -0.26424656701E+02  0.63986469016E+01  0.29452918582E+02  0.51100000000E-03 0.  1.
         12    1    3    3    0    0  0.20007176231E+02  0.15031133745E+02  0.11837720630E+02  0.27683094338E+02  0.00000000000E+00 0. -1.
</event>
<event>
 7    1  0.3508738E-013  0.7246161E+02  0.7816164E-02  0.1226708E+00
        -11   -1    0    0    0    0  0.00000000000E+00  0.00000000000E+00  0.45593999997E+02  0.45594000000E+02  0.51100000000E-03 0.  1.
         11   -1    0    0    0    0 -0.00000000000E+00 -0.00000000000E+00 -0.45593999997E+02  0.45594000000E+02  0.51100000000E-03 0. -1.
    9900012    2    1    2    0    0 -0.73669779413E+01 -0.16930379629E+02 -0.31253361525E+01  0.72461605675E+02  0.70000046090E+02 0.  0.
        -12    1    1    2    0    0  0.73669779413E+01  0.16930379629E+02  0.31253361525E+01  0.18726394325E+02  0.00000000000E+00 0.  1.
         11    1    3    3    0    0 -0.88281465809E+01  0.98333487161E+01  0.54608761300E+01  0.14298674323E+02  0.51100000000E-03 0. -1.
        -11    1    3    3    0    0 -0.11861085132E+02 -0.35747702282E+02  0.38272576583E+01  0.37858043536E+02  0.51100000000E-03 0.  1.
         12    1    3    3    0    0  0.13322253771E+02  0.89839739369E+01 -0.12413469941E+02  0.20304887816E+02  0.00000000000E+00 0. -1.
</event>
<event>
 7    1  0.3508738E-013  0.7246159E+02  0.7816164E-02  0.1226708E+00
        -11   -1    0    0    0    0  0.00000000000E+00  0.00000000000E+00  0.45593999997E+02  0.45594000000E+02  0.51100000000E-03 0.  1.
         11   -1    0    0    0    0 -0.00000000000E+00 -0.00000000000E+00 -0.45593999997E+02  0.45594000000E+02  0.51100000000E-03 0. -1.
    9900012    2    1    2    0    0 -0.17592054608E+02  0.59436945512E+01  0.24229460138E+01  0.72461586632E+02  0.70000021283E+02 0.  0.
        -12    1    1    2    0    0  0.17592054608E+02 -0.59436945512E+01 -0.24229460138E+01  0.18726413368E+02  0.00000000000E+00 0.  1.
         11    1    3    3    0    0 -0.11821367378E+02  0.32080645877E+02 -0.10200995012E+02  0.35678745299E+02  0.51100000000E-03 0. -1.
        -11    1    3    3    0    0 -0.99104854513E+00 -0.17790741782E+00 -0.49636224757E+01  0.50647188086E+01  0.51100000000E-03 0.  1.
        -12    1    3    3    0    0 -0.47796386847E+01 -0.25959043908E+02  0.17587563502E+02  0.31718122525E+02  0.00000000000E+00 0.  1.
</event>
<event>
 7    1  0.3508738E-013  0.7246159E+02  0.7816164E-02  0.1226708E+00
        -11   -1    0    0    0    0  0.00000000000E+00  0.00000000000E+00  0.45593999997E+02  0.45594000000E+02  0.51100000000E-03 0. -1.
         11   -1    0    0    0    0 -0.00000000000E+00 -0.00000000000E+00 -0.45593999997E+02  0.45594000000E+02  0.51100000000E-03 0.  1.
    9900012    2    1    2    0    0  0.65498251331E+01  0.46403638852E+01  0.16918788881E+02  0.72461585409E+02  0.70000019689E+02 0.  0.
        -12    1    1    2    0    0 -0.65498251331E+01 -0.46403638852E+01 -0.16918788881E+02  0.18726414591E+02  0.00000000000E+00 0.  1.
         11    1    3    3    0    0 -0.10265170422E+02  0.22417142779E+02 -0.84468263583E+01  0.26062442134E+02  0.51100000000E-03 0. -1.
        -11    1    3    3    0    0  0.62295254167E+01  0.39944501617E+01  0.20381222607E+02  0.21683100660E+02  0.51100000000E-03 0.  1.
        -12    1    3    3    0    0  0.10585470138E+02 -0.21771229056E+02  0.49843926317E+01  0.24716042615E+02  0.00000000000E+00 0.  1.
</event>
<event>
 7    1  0.5881086E-013  0.7246152E+02  0.7816164E-02  0.1226708E+00
        -11   -1    0    0    0    0  0.00000000000E+00  0.00000000000E+00  0.45593999997E+02  0.45594000000E+02  0.51100000000E-03 0. -1.
         11   -1    0    0    0    0 -0.00000000000E+00 -0.00000000000E+00 -0.45593999997E+02  0.45594000000E+02  0.51100000000E-03 0.  1.
    9900012    2    1    2    0    0  0.25790742295E+01 -0.14392329962E+02  0.11700006935E+02  0.72461522811E+02  0.69999938144E+02 0.  0.
        -12    1    1    2    0    0 -0.25790742295E+01  0.14392329962E+02 -0.11700006935E+02  0.18726477189E+02  0.00000000000E+00 0.  1.
         11    1    3    3    0    0  0.11104637657E+02 -0.13879670777E+02  0.24438751057E+02  0.30219377755E+02  0.51100000000E-03 0. -1.
        -11    1    3    3    0    0 -0.15686166669E+02  0.10693397141E+02  0.54123419977E+01  0.19740770333E+02  0.51100000000E-03 0.  1.
        -12    1    3    3    0    0  0.71606032410E+01 -0.11206056326E+02 -0.18151086119E+02  0.22501374724E+02  0.00000000000E+00 0.  1.
</event>
<event>
 7    1  0.3508738E-013  0.7246156E+02  0.7816164E-02  0.1226708E+00
        -11   -1    0    0    0    0  0.00000000000E+00  0.00000000000E+00  0.45593999997E+02  0.45594000000E+02  0.51100000000E-03 0. -1.
         11   -1    0    0    0    0 -0.00000000000E+00 -0.00000000000E+00 -0.45593999997E+02  0.45594000000E+02  0.51100000000E-03 0.  1.
    9900012    2    1    2    0    0 -0.31927335419E+01  0.10185622793E+02  0.15386332686E+02  0.72461556326E+02  0.69999981804E+02 0.  0.
        -12    1    1    2    0    0  0.31927335419E+01 -0.10185622793E+02 -0.15386332686E+02  0.18726443674E+02  0.00000000000E+00 0.  1.
         11    1    3    3    0    0 -0.15778822135E+02  0.14195506345E+00  0.21291773170E+02  0.26501527960E+02  0.51100000000E-03 0. -1.
        -11    1    3    3    0    0 -0.89996897273E+01 -0.78272733230E+01  0.83104371024E+01  0.14536986894E+02  0.51100000000E-03 0.  1.
        -12    1    3    3    0    0  0.21585778320E+02  0.17870941053E+02 -0.14215877587E+02  0.31423041472E+02  0.00000000000E+00 0.  1.
</event>
<event>
 7    1  0.3508738E-013  0.7246155E+02  0.7816164E-02  0.1226708E+00
        -11   -1    0    0    0    0  0.00000000000E+00  0.00000000000E+00  0.45593999997E+02  0.45594000000E+02  0.51100000000E-03 0.  1.
         11   -1    0    0    0    0 -0.00000000000E+00 -0.00000000000E+00 -0.45593999997E+02  0.45594000000E+02  0.51100000000E-03 0. -1.
    9900012    2    1    2    0    0 -0.11291692605E+01 -0.17408767389E+02  0.68073169389E+01  0.72461554284E+02  0.69999979144E+02 0.  0.
        -12    1    1    2    0    0  0.11291692605E+01  0.17408767389E+02 -0.68073169389E+01  0.18726445716E+02  0.00000000000E+00 0.  1.
         11    1    3    3    0    0 -0.49666593038E+01 -0.10934807620E+02 -0.10043318829E+02  0.15655860746E+02  0.51100000000E-03 0.  1.
        -11    1    3    3    0    0 -0.21856096265E+02  0.94774559321E+01  0.51112171338E+01  0.24364639454E+02  0.51100000000E-03 0. -1.
         12    1    3    3    0    0  0.25693586308E+02 -0.15951415701E+02  0.11739418634E+02  0.32441054085E+02  0.00000000000E+00 0. -1.
</event>
<event>
 7    1  0.3508738E-013  0.7246162E+02  0.7816164E-02  0.1226708E+00
        -11   -1    0    0    0    0  0.00000000000E+00  0.00000000000E+00  0.45593999997E+02  0.45594000000E+02  0.51100000000E-03 0.  1.
         11   -1    0    0    0    0 -0.00000000000E+00 -0.00000000000E+00 -0.45593999997E+02  0.45594000000E+02  0.51100000000E-03 0. -1.
    9900012    2    1    2    0    0 -0.13369469348E+01 -0.14318937829E+02 -0.11994071995E+02  0.72461623664E+02  0.70000069524E+02 0.  0.
        -12    1    1    2    0    0  0.13369469348E+01  0.14318937829E+02  0.11994071995E+02  0.18726376336E+02  0.00000000000E+00 0.  1.
         11    1    3    3    0    0  0.29498749181E+01 -0.17769007308E+02  0.11872985445E+02  0.21573297532E+02  0.51100000000E-03 0. -1.
        -11    1    3    3    0    0  0.96647705899E+01 -0.17230588392E+02 -0.79460043954E+01  0.21294129543E+02  0.51100000000E-03 0.  1.
         12    1    3    3    0    0 -0.13951592443E+02  0.20680657871E+02 -0.15921053045E+02  0.29594196589E+02  0.00000000000E+00 0. -1.
</event>
<event>
 7    1  0.3508738E-013  0.7246148E+02  0.7816164E-02  0.1226708E+00
        -11   -1    0    0    0    0  0.00000000000E+00  0.00000000000E+00  0.45593999997E+02  0.45594000000E+02  0.51100000000E-03 0. -1.
         11   -1    0    0    0    0 -0.00000000000E+00 -0.00000000000E+00 -0.45593999997E+02  0.45594000000E+02  0.51100000000E-03 0.  1.
    9900012    2    1    2    0    0  0.16950954985E+02 -0.78518840776E+01 -0.13021076639E+01  0.72461482896E+02  0.69999886147E+02 0.  0.
        -12    1    1    2    0    0 -0.16950954985E+02  0.78518840776E+01  0.13021076639E+01  0.18726517104E+02  0.00000000000E+00 0.  1.
         11    1    3    3    0    0 -0.51667706403E+01 -0.10982955292E+02 -0.75222869699E+01  0.14279552770E+02  0.51100000000E-03 0. -1.
        -11    1    3    3    0    0 -0.12092789332E+01 -0.20366982186E+02 -0.83012878357E+01  0.22026976617E+02  0.51100000000E-03 0.  1.
        -12    1    3    3    0    0  0.23327004559E+02  0.23498053400E+02  0.14521467142E+02  0.36154953509E+02  0.00000000000E+00 0.  1.
</event>
<event>
 7    1  0.3508738E-013  0.7246158E+02  0.7816164E-02  0.1226708E+00
        -11   -1    0    0    0    0  0.00000000000E+00  0.00000000000E+00  0.45593999997E+02  0.45594000000E+02  0.51100000000E-03 0. -1.
         11   -1    0    0    0    0 -0.00000000000E+00 -0.00000000000E+00 -0.45593999997E+02  0.45594000000E+02  0.51100000000E-03 0.  1.
    9900012    2    1    2    0    0 -0.64471321656E+01 -0.16802327538E+02  0.51764087865E+01  0.72461576642E+02  0.70000008269E+02 0.  0.
        -12    1    1    2    0    0  0.64471321656E+01  0.16802327538E+02 -0.51764087865E+01  0.18726423358E+02  0.00000000000E+00 0.  1.
         11    1    3    3    0    0  0.27381178277E+01 -0.22028314438E+02  0.15058604360E+02  0.26823599530E+02  0.51100000000E-03 0. -1.
        -11    1    3    3    0    0 -0.10835664678E+02 -0.13970002777E+02  0.79504535574E+01  0.19385105587E+02  0.51100000000E-03 0.  1.
        -12    1    3    3    0    0  0.16504146844E+01  0.19195989676E+02 -0.17832649131E+02  0.26252871525E+02  0.00000000000E+00 0.  1.
</event>
<event>
 7    1  0.3508738E-013  0.7246132E+02  0.7816164E-02  0.1226709E+00
        -11   -1    0    0    0    0  0.00000000000E+00  0.00000000000E+00  0.45593999997E+02  0.45594000000E+02  0.51100000000E-03 0.  1.
         11   -1    0    0    0    0 -0.00000000000E+00 -0.00000000000E+00 -0.45593999997E+02  0.45594000000E+02  0.51100000000E-03 0. -1.
    9900012    2    1    2    0    0  0.18315135363E+02  0.29760677006E+01  0.25273254789E+01  0.72461320198E+02  0.69999674203E+02 0.  0.
        -12    1    1    2    0    0 -0.18315135363E+02 -0.29760677006E+01 -0.25273254789E+01  0.18726679802E+02  0.00000000000E+00 0.  1.
         11    1    3    3    0    0  0.34739318138E+02  0.13032024712E+01  0.25770454547E+02  0.43273951624E+02  0.51100000000E-03 0.  1.
        -11    1    3    3    0    0 -0.43963721108E+01 -0.14025622618E+01 -0.32172100606E+01  0.56254519347E+01  0.51100000000E-03 0. -1.
        -12    1    3    3    0    0 -0.12027810664E+02  0.30754274913E+01 -0.20025919008E+02  0.23561916639E+02  0.00000000000E+00 0.  1.
</event>
<event>
 7    1  0.3508738E-013  0.7246162E+02  0.7816164E-02  0.1226708E+00
        -11   -1    0    0    0    0  0.00000000000E+00  0.00000000000E+00  0.45593999997E+02  0.45594000000E+02  0.51100000000E-03 0.  1.
         11   -1    0    0    0    0 -0.00000000000E+00 -0.00000000000E+00 -0.45593999997E+02  0.45594000000E+02  0.51100000000E-03 0. -1.
    9900012    2    1    2    0    0 -0.13126103459E+02 -0.11577686740E+02 -0.66588264231E+01  0.72461617765E+02  0.70000061840E+02 0.  0.
        -12    1    1    2    0    0  0.13126103459E+02  0.11577686740E+02  0.66588264231E+01  0.18726382235E+02  0.00000000000E+00 0.  1.
         11    1    3    3    0    0 -0.58881299896E+01 -0.20619972927E+02  0.26995373460E+01  0.21613441661E+02  0.51100000000E-03 0.  1.
        -11    1    3    3    0    0  0.58007329507E+01 -0.66530186252E+01 -0.24106481960E+02  0.25671650363E+02  0.51100000000E-03 0. -1.
        -12    1    3    3    0    0 -0.13038706420E+02  0.15695304812E+02  0.14748118191E+02  0.25176525742E+02  0.00000000000E+00 0.  1.
</event>
<event>
 7    1  0.3508738E-013  0.7246157E+02  0.7816164E-02  0.1226708E+00
        -11   -1    0    0    0    0  0.00000000000E+00  0.00000000000E+00  0.45593999997E+02  0.45594000000E+02  0.51100000000E-03 0.  1.
         11   -1    0    0    0    0 -0.00000000000E+00 -0.00000000000E+00 -0.45593999997E+02  0.45594000000E+02  0.51100000000E-03 0. -1.
    9900012    2    1    2    0    0  0.13767856807E+02 -0.11515604963E+02 -0.53400657136E+01  0.72461565728E+02  0.69999994052E+02 0.  0.
        -12    1    1    2    0    0 -0.13767856807E+02  0.11515604963E+02  0.53400657136E+01  0.18726434272E+02  0.00000000000E+00 0.  1.
         11    1    3    3    0    0  0.17218570048E+01 -0.10493388319E+02 -0.27737608355E+02  0.29706075262E+02  0.51100000000E-03 0. -1.
        -11    1    3    3    0    0 -0.95740738851E+01 -0.77991314528E+01  0.24950910166E+01  0.12598207079E+02  0.51100000000E-03 0.  1.
         12    1    3    3    0    0  0.21620073687E+02  0.67769148097E+01  0.19902451625E+02  0.30157283387E+02  0.00000000000E+00 0. -1.
</event>
<event>
 7    1  0.3508738E-013  0.7246165E+02  0.7816164E-02  0.1226708E+00
        -11   -1    0    0    0    0  0.00000000000E+00  0.00000000000E+00  0.45593999997E+02  0.45594000000E+02  0.51100000000E-03 0.  1.
         11   -1    0    0    0    0 -0.00000000000E+00 -0.00000000000E+00 -0.45593999997E+02  0.45594000000E+02  0.51100000000E-03 0. -1.
    9900012    2    1    2    0    0  0.15331858935E+02  0.42857030264E+01 -0.98611945748E+01  0.72461646717E+02  0.70000099555E+02 0.  0.
        -12    1    1    2    0    0 -0.15331858935E+02 -0.42857030264E+01  0.98611945748E+01  0.18726353283E+02  0.00000000000E+00 0.  1.
         11    1    3    3    0    0  0.69972387824E+01  0.11593465572E+02  0.16195168496E+02  0.21110501591E+02  0.51100000000E-03 0. -1.
        -11    1    3    3    0    0 -0.15652767645E+02 -0.12085338351E+02 -0.12324956623E+02  0.23301697235E+02  0.51100000000E-03 0.  1.
         12    1    3    3    0    0  0.23987387798E+02  0.47775758053E+01 -0.13731406448E+02  0.28049447891E+02  0.00000000000E+00 0. -1.
</event>
<event>
 7    1  0.3508738E-013  0.7246155E+02  0.7816164E-02  0.1226708E+00
        -11   -1    0    0    0    0  0.00000000000E+00  0.00000000000E+00  0.45593999997E+02  0.45594000000E+02  0.51100000000E-03 0. -1.
         11   -1    0    0    0    0 -0.00000000000E+00 -0.00000000000E+00 -0.45593999997E+02  0.45594000000E+02  0.51100000000E-03 0.  1.
    9900012    2    1    2    0    0  0.79554078818E+01  0.10513417860E+02  0.13298858301E+02  0.72461545403E+02  0.69999967574E+02 0.  0.
        -12    1    1    2    0    0 -0.79554078818E+01 -0.10513417860E+02 -0.13298858301E+02  0.18726454597E+02  0.00000000000E+00 0.  1.
         11    1    3    3    0    0  0.25410440967E+02  0.69624869491E+01  0.45372704923E+01  0.26734875321E+02  0.51100000000E-03 0. -1.
        -11    1    3    3    0    0  0.81879032481E+01  0.13758639286E+02 -0.19334189007E+01  0.16126996730E+02  0.51100000000E-03 0.  1.
        -12    1    3    3    0    0 -0.25642936333E+02 -0.10207708375E+02  0.10695006709E+02  0.29599673352E+02  0.00000000000E+00 0.  1.
</event>
<event>
 7    1  0.3508738E-013  0.7246154E+02  0.7816164E-02  0.1226708E+00
        -11   -1    0    0    0    0  0.00000000000E+00  0.00000000000E+00  0.45593999997E+02  0.45594000000E+02  0.51100000000E-03 0. -1.
         11   -1    0    0    0    0 -0.00000000000E+00 -0.00000000000E+00 -0.45593999997E+02  0.45594000000E+02  0.51100000000E-03 0.  1.
    9900012    2    1    2    0    0 -0.11947412948E+01  0.17984011543E+02  0.50821331738E+01  0.72461543967E+02  0.69999965704E+02 0.  0.
        -12    1    1    2    0    0  0.11947412948E+01 -0.17984011543E+02 -0.50821331738E+01  0.18726456033E+02  0.00000000000E+00 0.  1.
         11    1    3    3    0    0 -0.23972034552E+02 -0.10590094542E+02  0.74681248891E+00  0.26217670990E+02  0.51100000000E-03 0. -1.
        -11    1    3    3    0    0 -0.38072728955E+01  0.74171239618E+01  0.86279530211E+01  0.11997942672E+02  0.51100000000E-03 0.  1.
         12    1    3    3    0    0  0.26584566153E+02  0.21156982124E+02 -0.42926323362E+01  0.34245930305E+02  0.00000000000E+00 0. -1.
</event>
<event>
 7    1  0.3508738E-013  0.7246139E+02  0.7816164E-02  0.1226708E+00
        -11   -1    0    0    0    0  0.00000000000E+00  0.00000000000E+00  0.45593999997E+02  0.45594000000E+02  0.51100000000E-03 0.  1.
         11   -1    0    0    0    0 -0.00000000000E+00 -0.00000000000E+00 -0.45593999997E+02  0.45594000000E+02  0.51100000000E-03 0. -1.
    9900012    2    1    2    0    0  0.57078891470E-01  0.15936290351E+02 -0.98344974290E+01  0.72461389313E+02  0.69999764237E+02 0.  0.
        -12    1    1    2    0    0 -0.57078891470E-01 -0.15936290351E+02  0.98344974290E+01  0.18726610687E+02  0.00000000000E+00 0.  1.
         11    1    3    3    0    0  0.35269433541E+01 -0.90407143094E+01 -0.45952294312E-01  0.97044297370E+01  0.51100000000E-03 0. -1.
        -11    1    3    3    0    0  0.14897942589E+02 -0.10635654062E+02  0.66088595008E+01  0.19461316885E+02  0.51100000000E-03 0.  1.
        -12    1    3    3    0    0 -0.18367807052E+02  0.35612658723E+02 -0.16397404635E+02  0.43295642691E+02  0.00000000000E+00 0.  1.
</event>
<event>
 7    1  0.3508738E-013  0.7246158E+02  0.7816164E-02  0.1226708E+00
        -11   -1    0    0    0    0  0.00000000000E+00  0.00000000000E+00  0.45593999997E+02  0.45594000000E+02  0.51100000000E-03 0.  1.
         11   -1    0    0    0    0 -0.00000000000E+00 -0.00000000000E+00 -0.45593999997E+02  0.45594000000E+02  0.51100000000E-03 0. -1.
    9900012    2    1    2    0    0  0.13331288956E+02 -0.12451530637E+02  0.42326214958E+01  0.72461575751E+02  0.70000007108E+02 0.  0.
        -12    1    1    2    0    0 -0.13331288956E+02  0.12451530637E+02 -0.42326214958E+01  0.18726424249E+02  0.00000000000E+00 0.  1.
         11    1    3    3    0    0 -0.66089713910E+01  0.15919382445E+01 -0.11202394208E+02  0.13103679120E+02  0.51100000000E-03 0.  1.
        -11    1    3    3    0    0  0.43059720136E+01  0.18660455765E+02 -0.17714765364E+01  0.19232580007E+02  0.51100000000E-03 0. -1.
        -12    1    3    3    0    0  0.15634288333E+02 -0.32703924647E+02  0.17206492240E+02  0.40125316624E+02  0.00000000000E+00 0.  1.
</event>
<event>
 7    1  0.3508738E-013  0.7246158E+02  0.7816164E-02  0.1226708E+00
        -11   -1    0    0    0    0  0.00000000000E+00  0.00000000000E+00  0.45593999997E+02  0.45594000000E+02  0.51100000000E-03 0. -1.
         11   -1    0    0    0    0 -0.00000000000E+00 -0.00000000000E+00 -0.45593999997E+02  0.45594000000E+02  0.51100000000E-03 0.  1.
    9900012    2    1    2    0    0 -0.42089971176E+01  0.79965721077E+01  0.16401769280E+02  0.72461578620E+02  0.70000010845E+02 0.  0.
        -12    1    1    2    0    0  0.42089971176E+01 -0.79965721077E+01 -0.16401769280E+02  0.18726421380E+02  0.00000000000E+00 0.  1.
         11    1    3    3    0    0 -0.16805494959E+02  0.11296491390E+02  0.95508379963E+01  0.22388699945E+02  0.51100000000E-03 0. -1.
        -11    1    3    3    0    0 -0.70447987151E+01  0.34351772585E+01 -0.16837513574E+02  0.18572331447E+02  0.51100000000E-03 0.  1.
        -12    1    3    3    0    0  0.19641296557E+02 -0.67350965408E+01  0.23688444858E+02  0.31500547228E+02  0.00000000000E+00 0.  1.
</event>
<event>
 7    1  0.3508738E-013  0.7246160E+02  0.7816164E-02  0.1226708E+00
        -11   -1    0    0    0    0  0.00000000000E+00  0.00000000000E+00  0.45593999997E+02  0.45594000000E+02  0.51100000000E-03 0.  1.
         11   -1    0    0    0    0 -0.00000000000E+00 -0.00000000000E+00 -0.45593999997E+02  0.45594000000E+02  0.51100000000E-03 0. -1.
    9900012    2    1    2    0    0 -0.12950544649E+02 -0.37953554247E+00 -0.13521004714E+02  0.72461595582E+02  0.70000032942E+02 0.  0.
        -12    1    1    2    0    0  0.12950544649E+02  0.37953554247E+00  0.13521004714E+02  0.18726404418E+02  0.00000000000E+00 0.  1.
         11    1    3    3    0    0 -0.44264628986E+01 -0.39606852385E+01 -0.23740802754E+01  0.63966287032E+01  0.51100000000E-03 0.  1.
        -11    1    3    3    0    0 -0.70502179435E+01  0.23823686004E+02  0.17905771546E+02  0.30624993760E+02  0.51100000000E-03 0. -1.
         12    1    3    3    0    0 -0.14738638070E+01 -0.20242536308E+02 -0.29052695985E+02  0.35439973119E+02  0.00000000000E+00 0. -1.
</event>
<event>
 7    1  0.3508738E-013  0.7246144E+02  0.7816164E-02  0.1226708E+00
        -11   -1    0    0    0    0  0.00000000000E+00  0.00000000000E+00  0.45593999997E+02  0.45594000000E+02  0.51100000000E-03 0. -1.
         11   -1    0    0    0    0 -0.00000000000E+00 -0.00000000000E+00 -0.45593999997E+02  0.45594000000E+02  0.51100000000E-03 0.  1.
    9900012    2    1    2    0    0 -0.12882156115E+02 -0.52122609195E+01  0.12552549852E+02  0.72461438173E+02  0.69999827887E+02 0.  0.
        -12    1    1    2    0    0  0.12882156115E+02  0.52122609195E+01 -0.12552549852E+02  0.18726561827E+02  0.00000000000E+00 0.  1.
         11    1    3    3    0    0 -0.25726646321E+02  0.15812024013E+02 -0.33062504878E+01  0.30377816361E+02  0.51100000000E-03 0. -1.
        -11    1    3    3    0    0 -0.75787212610E+01  0.11664918293E+01 -0.66199557745E+00  0.76964899496E+01  0.51100000000E-03 0.  1.
        -12    1    3    3    0    0  0.20423211467E+02 -0.22190776762E+02  0.16520795918E+02  0.34387131862E+02  0.00000000000E+00 0.  1.
</event>
<event>
 7    1  0.3508738E-013  0.7246155E+02  0.7816164E-02  0.1226708E+00
        -11   -1    0    0    0    0  0.00000000000E+00  0.00000000000E+00  0.45593999997E+02  0.45594000000E+02  0.51100000000E-03 0.  1.
         11   -1    0    0    0    0 -0.00000000000E+00 -0.00000000000E+00 -0.45593999997E+02  0.45594000000E+02  0.51100000000E-03 0. -1.
    9900012    2    1    2    0    0  0.17237135362E+02 -0.31675720692E+01 -0.65975449829E+01  0.72461549506E+02  0.69999972919E+02 0.  0.
        -12    1    1    2    0    0 -0.17237135362E+02  0.31675720692E+01  0.65975449829E+01  0.18726450494E+02  0.00000000000E+00 0.  1.
         11    1    3    3    0    0 -0.35555967523E+01  0.35843923074E+01 -0.16836088845E+01  0.53220931611E+01  0.51100000000E-03 0. -1.
        -11    1    3    3    0    0  0.31293232622E+01 -0.26232822515E+02 -0.23159797043E+02  0.35133030620E+02  0.51100000000E-03 0.  1.
         12    1    3    3    0    0  0.17663408852E+02  0.19480858139E+02  0.18245860945E+02  0.32006425725E+02  0.00000000000E+00 0. -1.
</event>
<event>
 7    1  0.3508738E-013  0.7246163E+02  0.7816164E-02  0.1226708E+00
        -11   -1    0    0    0    0  0.00000000000E+00  0.00000000000E+00  0.45593999997E+02  0.45594000000E+02  0.51100000000E-03 0.  1.
         11   -1    0    0    0    0 -0.00000000000E+00 -0.00000000000E+00 -0.45593999997E+02  0.45594000000E+02  0.51100000000E-03 0. -1.
    9900012    2    1    2    0    0  0.41275086839E+01 -0.12962601434E+01 -0.18219775948E+02  0.72461632122E+02  0.70000080542E+02 0.  0.
        -12    1    1    2    0    0 -0.41275086839E+01  0.12962601434E+01  0.18219775948E+02  0.18726367878E+02  0.00000000000E+00 0.  1.
         11    1    3    3    0    0 -0.30567449740E+01  0.21767763730E+02 -0.18154166012E+01  0.22056177487E+02  0.51100000000E-03 0. -1.
        -11    1    3    3    0    0 -0.62096437632E+01  0.66055417449E+01  0.60145376604E+01  0.10879683862E+02  0.51100000000E-03 0.  1.
         12    1    3    3    0    0  0.13393897421E+02 -0.29669565619E+02 -0.22418897007E+02  0.39525770773E+02  0.00000000000E+00 0. -1.
</event>
<event>
 7    1  0.3508738E-013  0.7246157E+02  0.7816164E-02  0.1226708E+00
        -11   -1    0    0    0    0  0.00000000000E+00  0.00000000000E+00  0.45593999997E+02  0.45594000000E+02  0.51100000000E-03 0.  1.
         11   -1    0    0    0    0 -0.00000000000E+00 -0.00000000000E+00 -0.45593999997E+02  0.45594000000E+02  0.51100000000E-03 0. -1.
    9900012    2    1    2    0    0  0.24707677034E+01  0.98670117335E+01 -0.15723125497E+02  0.72461567105E+02  0.69999995845E+02 0.  0.
        -12    1    1    2    0    0 -0.24707677034E+01 -0.98670117335E+01  0.15723125497E+02  0.18726432895E+02  0.00000000000E+00 0.  1.
         11    1    3    3    0    0  0.26083228223E+02 -0.57252683630E+01 -0.33725040617E+01  0.26916301311E+02  0.51100000000E-03 0. -1.
        -11    1    3    3    0    0  0.79714413520E+01 -0.12084098330E+01 -0.21106617986E+01  0.83342081233E+01  0.51100000000E-03 0.  1.
        -12    1    3    3    0    0 -0.31583901872E+02  0.16800689929E+02 -0.10239959637E+02  0.37211057670E+02  0.00000000000E+00 0.  1.
</event>
<event>
 7    1  0.3508738E-013  0.7246156E+02  0.7816164E-02  0.1226708E+00
        -11   -1    0    0    0    0  0.00000000000E+00  0.00000000000E+00  0.45593999997E+02  0.45594000000E+02  0.51100000000E-03 0.  1.
         11   -1    0    0    0    0 -0.00000000000E+00 -0.00000000000E+00 -0.45593999997E+02  0.45594000000E+02  0.51100000000E-03 0. -1.
    9900012    2    1    2    0    0  0.16289842906E+02  0.86728258865E+01  0.31784589788E+01  0.72461561678E+02  0.69999988775E+02 0.  0.
        -12    1    1    2    0    0 -0.16289842906E+02 -0.86728258865E+01 -0.31784589788E+01  0.18726438322E+02  0.00000000000E+00 0.  1.
         11    1    3    3    0    0  0.12275785955E+02  0.31199403146E+02 -0.11276150783E+02  0.35373001770E+02  0.51100000000E-03 0. -1.
        -11    1    3    3    0    0  0.79268873549E+01 -0.28807818438E+01 -0.44576635432E+01  0.95396651772E+01  0.51100000000E-03 0.  1.
        -12    1    3    3    0    0 -0.39128304042E+01 -0.19645795416E+02  0.18912273305E+02  0.27548894730E+02  0.00000000000E+00 0.  1.
</event>
<event>
 7    1  0.3508738E-013  0.7246171E+02  0.7816164E-02  0.1226708E+00
        -11   -1    0    0    0    0  0.00000000000E+00  0.00000000000E+00  0.45593999997E+02  0.45594000000E+02  0.51100000000E-03 0.  1.
         11   -1    0    0    0    0 -0.00000000000E+00 -0.00000000000E+00 -0.45593999997E+02  0.45594000000E+02  0.51100000000E-03 0. -1.
    9900012    2    1    2    0    0  0.92475059812E+01  0.15996871395E+02  0.30426530843E+01  0.72461708346E+02  0.70000179838E+02 0.  0.
        -12    1    1    2    0    0 -0.92475059812E+01 -0.15996871395E+02 -0.30426530843E+01  0.18726291654E+02  0.00000000000E+00 0.  1.
         11    1    3    3    0    0 -0.36158557839E+01  0.12105010176E+02 -0.81491027542E+01  0.15033747383E+02  0.51100000000E-03 0. -1.
        -11    1    3    3    0    0 -0.15542377167E+02  0.99553285056E+01  0.19863730568E+02  0.27115343368E+02  0.51100000000E-03 0.  1.
         12    1    3    3    0    0  0.28405738932E+02 -0.60634672860E+01 -0.86719747293E+01  0.30312617595E+02  0.00000000000E+00 0. -1.
</event>
<event>
 7    1  0.3508738E-013  0.7246160E+02  0.7816164E-02  0.1226708E+00
        -11   -1    0    0    0    0  0.00000000000E+00  0.00000000000E+00  0.45593999997E+02  0.45594000000E+02  0.51100000000E-03 0. -1.
         11   -1    0    0    0    0 -0.00000000000E+00 -0.00000000000E+00 -0.45593999997E+02  0.45594000000E+02  0.51100000000E-03 0.  1.
    9900012    2    1    2    0    0 -0.75683071105E+01  0.87312339048E+01  0.14736498388E+02  0.72461598777E+02  0.70000037104E+02 0.  0.
        -12    1    1    2    0    0  0.75683071105E+01 -0.87312339048E+01 -0.14736498388E+02  0.18726401223E+02  0.00000000000E+00 0.  1.
         11    1    3    3    0    0 -0.25360264340E+01  0.87451159735E+01 -0.12314542630E+02  0.15315235679E+02  0.51100000000E-03 0. -1.
        -11    1    3    3    0    0 -0.12980244398E+02 -0.14943026201E+02 -0.54308831654E+01  0.20524991325E+02  0.51100000000E-03 0.  1.
        -12    1    3    3    0    0  0.79479637218E+01  0.14929144132E+02  0.32481924184E+02  0.36621371773E+02  0.00000000000E+00 0.  1.
</event>
<event>
 7    1  0.3508738E-013  0.7246158E+02  0.7816164E-02  0.1226708E+00
        -11   -1    0    0    0    0  0.00000000000E+00  0.00000000000E+00  0.45593999997E+02  0.45594000000E+02  0.51100000000E-03 0. -1.
         11   -1    0    0    0    0 -0.00000000000E+00 -0.00000000000E+00 -0.45593999997E+02  0.45594000000E+02  0.51100000000E-03 0.  1.
    9900012    2    1    2    0    0 -0.67590047810E+01  0.14532572151E+02  0.96849919388E+01  0.72461578350E+02  0.70000010495E+02 0.  0.
        -12    1    1    2    0    0  0.67590047810E+01 -0.14532572151E+02 -0.96849919388E+01  0.18726421650E+02  0.00000000000E+00 0.  1.
         11    1    3    3    0    0  0.93254344644E+01  0.16852750007E+01  0.69739883010E+01  0.11766069559E+02  0.51100000000E-03 0. -1.
        -11    1    3    3    0    0  0.20301331509E+02  0.79983196619E+01  0.87227856408E+01  0.23499024832E+02  0.51100000000E-03 0.  1.
         12    1    3    3    0    0 -0.36385770755E+02  0.48489774880E+01 -0.60117820030E+01  0.37196483959E+02  0.00000000000E+00 0. -1.
</event>
<event>
 7    1  0.3508738E-013  0.7246158E+02  0.7816164E-02  0.1226708E+00
        -11   -1    0    0    0    0  0.00000000000E+00  0.00000000000E+00  0.45593999997E+02  0.45594000000E+02  0.51100000000E-03 0.  1.
         11   -1    0    0    0    0 -0.00000000000E+00 -0.00000000000E+00 -0.45593999997E+02  0.45594000000E+02  0.51100000000E-03 0. -1.
    9900012    2    1    2    0    0  0.83810250685E+00  0.15429885782E+02 -0.10578046781E+02  0.72461578432E+02  0.70000010600E+02 0.  0.
        -12    1    1    2    0    0 -0.83810250685E+00 -0.15429885782E+02  0.10578046781E+02  0.18726421568E+02  0.00000000000E+00 0.  1.
         11    1    3    3    0    0 -0.73597907013E+01 -0.31118578688E+01 -0.10525251918E+01  0.80596518599E+01  0.51100000000E-03 0. -1.
        -11    1    3    3    0    0 -0.16012969335E+02  0.18508266441E+02  0.15984913705E+02  0.29231636628E+02  0.51100000000E-03 0.  1.
         12    1    3    3    0    0  0.24210862543E+02  0.33477209602E-01 -0.25510435294E+02  0.35170289943E+02  0.00000000000E+00 0. -1.
</event>
<event>
 7    1  0.3508738E-013  0.7246157E+02  0.7816164E-02  0.1226708E+00
        -11   -1    0    0    0    0  0.00000000000E+00  0.00000000000E+00  0.45593999997E+02  0.45594000000E+02  0.51100000000E-03 0. -1.
         11   -1    0    0    0    0 -0.00000000000E+00 -0.00000000000E+00 -0.45593999997E+02  0.45594000000E+02  0.51100000000E-03 0.  1.
    9900012    2    1    2    0    0  0.17163678518E+01 -0.46242165425E+00  0.18641875127E+02  0.72461567861E+02  0.69999996830E+02 0.  0.
        -12    1    1    2    0    0 -0.17163678518E+01  0.46242165425E+00 -0.18641875127E+02  0.18726432139E+02  0.00000000000E+00 0.  1.
         11    1    3    3    0    0 -0.17707749546E+02  0.13636761089E+02  0.92149599780E+01  0.24175217365E+02  0.51100000000E-03 0. -1.
        -11    1    3    3    0    0 -0.12289328467E+02 -0.86981495052E+01  0.13412166432E+01  0.15115695860E+02  0.51100000000E-03 0.  1.
        -12    1    3    3    0    0  0.31713445865E+02 -0.54010332385E+01  0.80856985060E+01  0.33170654636E+02  0.00000000000E+00 0.  1.
</event>
<event>
 7    1  0.3508738E-013  0.7246149E+02  0.7816164E-02  0.1226708E+00
        -11   -1    0    0    0    0  0.00000000000E+00  0.00000000000E+00  0.45593999997E+02  0.45594000000E+02  0.51100000000E-03 0.  1.
         11   -1    0    0    0    0 -0.00000000000E+00 -0.00000000000E+00 -0.45593999997E+02  0.45594000000E+02  0.51100000000E-03 0. -1.
    9900012    2    1    2    0    0 -0.15539154152E+02  0.47200338140E+01 -0.93240647000E+01  0.72461489019E+02  0.69999894124E+02 0.  0.
        -12    1    1    2    0    0  0.15539154152E+02 -0.47200338140E+01  0.93240647000E+01  0.18726510981E+02  0.00000000000E+00 0.  1.
         11    1    3    3    0    0  0.81362830469E+01 -0.21707146571E+01 -0.22517099449E+02  0.24040192840E+02  0.51100000000E-03 0. -1.
        -11    1    3    3    0    0 -0.94636532731E+01  0.10442074453E+02 -0.12505384514E+02  0.18840973814E+02  0.51100000000E-03 0.  1.
        -12    1    3    3    0    0 -0.14211783926E+02 -0.35513259824E+01  0.25698419263E+02  0.29580322365E+02  0.00000000000E+00 0.  1.
</event>
<event>
 7    1  0.3508738E-013  0.7246151E+02  0.7816164E-02  0.1226708E+00
        -11   -1    0    0    0    0  0.00000000000E+00  0.00000000000E+00  0.45593999997E+02  0.45594000000E+02  0.51100000000E-03 0. -1.
         11   -1    0    0    0    0 -0.00000000000E+00 -0.00000000000E+00 -0.45593999997E+02  0.45594000000E+02  0.51100000000E-03 0.  1.
    9900012    2    1    2    0    0 -0.15675827393E+02 -0.75985218380E+01  0.68711362047E+01  0.72461505098E+02  0.69999915070E+02 0.  0.
        -12    1    1    2    0    0  0.15675827393E+02  0.75985218380E+01 -0.68711362047E+01  0.18726494902E+02  0.00000000000E+00 0.  1.
         11    1    3    3    0    0  0.10089767551E+01  0.12084376422E+01  0.16803319329E+02  0.16876904229E+02  0.51100000000E-03 0. -1.
        -11    1    3    3    0    0  0.11085400787E+02 -0.22712474829E+01  0.14242549793E+02  0.18190516777E+02  0.51100000000E-03 0.  1.
        -12    1    3    3    0    0 -0.27770204935E+02 -0.65357119973E+01 -0.24174732917E+02  0.37394084092E+02  0.00000000000E+00 0.  1.
</event>
<event>
 7    1  0.3508738E-013  0.7246146E+02  0.7816164E-02  0.1226708E+00
        -11   -1    0    0    0    0  0.00000000000E+00  0.00000000000E+00  0.45593999997E+02  0.45594000000E+02  0.51100000000E-03 0. -1.
         11   -1    0    0    0    0 -0.00000000000E+00 -0.00000000000E+00 -0.45593999997E+02  0.45594000000E+02  0.51100000000E-03 0.  1.
    9900012    2    1    2    0    0  0.14292302297E+02  0.71118798778E+01 -0.97895220458E+01  0.72461455144E+02  0.69999849996E+02 0.  0.
        -12    1    1    2    0    0 -0.14292302297E+02 -0.71118798778E+01  0.97895220458E+01  0.18726544856E+02  0.00000000000E+00 0.  1.
         11    1    3    3    0    0  0.16044252079E+02  0.60904981940E+00 -0.20481978578E+02  0.26024995930E+02  0.51100000000E-03 0. -1.
        -11    1    3    3    0    0  0.77723124700E+00 -0.11128653515E+01 -0.17281262516E+02  0.17334491400E+02  0.51100000000E-03 0.  1.
         12    1    3    3    0    0 -0.25291810291E+01  0.76156954099E+01  0.27973719048E+02  0.29101967814E+02  0.00000000000E+00 0. -1.
</event>
<event>
 7    1  0.3508738E-013  0.7246157E+02  0.7816164E-02  0.1226708E+00
        -11   -1    0    0    0    0  0.00000000000E+00  0.00000000000E+00  0.45593999997E+02  0.45594000000E+02  0.51100000000E-03 0.  1.
         11   -1    0    0    0    0 -0.00000000000E+00 -0.00000000000E+00 -0.45593999997E+02  0.45594000000E+02  0.51100000000E-03 0. -1.
    9900012    2    1    2    0    0 -0.17593907469E+02 -0.42157841114E+01  0.48332919447E+01  0.72461571437E+02  0.70000001489E+02 0.  0.
        -12    1    1    2    0    0  0.17593907469E+02  0.42157841114E+01 -0.48332919447E+01  0.18726428563E+02  0.00000000000E+00 0.  1.
         11    1    3    3    0    0 -0.27843666463E+02 -0.50253653123E+01  0.20214865467E+01  0.28365656466E+02  0.51100000000E-03 0. -1.
        -11    1    3    3    0    0 -0.10048720086E+02  0.14718266223E+02  0.69786326323E+01  0.19139107860E+02  0.51100000000E-03 0.  1.
         12    1    3    3    0    0  0.20298479080E+02 -0.13908685022E+02 -0.41668272343E+01  0.24956807112E+02  0.00000000000E+00 0. -1.
</event>
<event>
 7    1  0.3508738E-013  0.7246160E+02  0.7816164E-02  0.1226708E+00
        -11   -1    0    0    0    0  0.00000000000E+00  0.00000000000E+00  0.45593999997E+02  0.45594000000E+02  0.51100000000E-03 0. -1.
         11   -1    0    0    0    0 -0.00000000000E+00 -0.00000000000E+00 -0.45593999997E+02  0.45594000000E+02  0.51100000000E-03 0.  1.
    9900012    2    1    2    0    0  0.12706468006E+02 -0.60987155349E+01  0.12330027390E+02  0.72461595225E+02  0.70000032476E+02 0.  0.
        -12    1    1    2    0    0 -0.12706468006E+02  0.60987155349E+01 -0.12330027390E+02  0.18726404775E+02  0.00000000000E+00 0.  1.
         11    1    3    3    0    0 -0.16324342435E+01 -0.12763107296E+01 -0.53106106846E+01  0.57005610902E+01  0.51100000000E-03 0. -1.
        -11    1    3    3    0    0  0.24333705276E+02 -0.25249197414E+02 -0.40933159209E+01  0.35304481557E+02  0.51100000000E-03 0.  1.
         12    1    3    3    0    0 -0.99948030263E+01  0.20426792608E+02  0.21733953995E+02  0.31456552578E+02  0.00000000000E+00 0. -1.
</event>
<event>
 7    1  0.3508738E-013  0.7246157E+02  0.7816164E-02  0.1226708E+00
        -11   -1    0    0    0    0  0.00000000000E+00  0.00000000000E+00  0.45593999997E+02  0.45594000000E+02  0.51100000000E-03 0.  1.
         11   -1    0    0    0    0 -0.00000000000E+00 -0.00000000000E+00 -0.45593999997E+02  0.45594000000E+02  0.51100000000E-03 0. -1.
    9900012    2    1    2    0    0  0.67740437115E+01  0.13543177698E+02  0.11016974347E+02  0.72461573375E+02  0.70000004013E+02 0.  0.
        -12    1    1    2    0    0 -0.67740437115E+01 -0.13543177698E+02 -0.11016974347E+02  0.18726426625E+02  0.00000000000E+00 0.  1.
         11    1    3    3    0    0 -0.10261493658E+02 -0.48578780593E+01 -0.12113777451E+02  0.16602434632E+02  0.51100000000E-03 0. -1.
        -11    1    3    3    0    0 -0.49539394052E+01 -0.49869696160E+01 -0.83379638757E+01  0.10905641817E+02  0.51100000000E-03 0.  1.
        -12    1    3    3    0    0  0.21989476775E+02  0.23388025374E+02  0.31468715674E+02  0.44953496926E+02  0.00000000000E+00 0.  1.
</event>
<event>
 7    1  0.3508738E-013  0.7246153E+02  0.7816164E-02  0.1226708E+00
        -11   -1    0    0    0    0  0.00000000000E+00  0.00000000000E+00  0.45593999997E+02  0.45594000000E+02  0.51100000000E-03 0. -1.
         11   -1    0    0    0    0 -0.00000000000E+00 -0.00000000000E+00 -0.45593999997E+02  0.45594000000E+02  0.51100000000E-03 0.  1.
    9900012    2    1    2    0    0  0.13962677758E+02  0.11612299283E+02 -0.45693467763E+01  0.72461526900E+02  0.69999943471E+02 0.  0.
        -12    1    1    2    0    0 -0.13962677758E+02 -0.11612299283E+02  0.45693467763E+01  0.18726473100E+02  0.00000000000E+00 0.  1.
         11    1    3    3    0    0  0.17136064370E+02  0.17923798381E+02 -0.10413907251E+02  0.26895291688E+02  0.51100000000E-03 0. -1.
        -11    1    3    3    0    0 -0.12074504959E+02  0.99747096987E+01 -0.12068314753E+02  0.19772018734E+02  0.51100000000E-03 0.  1.
         12    1    3    3    0    0  0.89011183466E+01 -0.16286208797E+02  0.17912875228E+02  0.25794216478E+02  0.00000000000E+00 0. -1.
</event>
<event>
 7    1  0.3508738E-013  0.7246160E+02  0.7816164E-02  0.1226708E+00
        -11   -1    0    0    0    0  0.00000000000E+00  0.00000000000E+00  0.45593999997E+02  0.45594000000E+02  0.51100000000E-03 0.  1.
         11   -1    0    0    0    0 -0.00000000000E+00 -0.00000000000E+00 -0.45593999997E+02  0.45594000000E+02  0.51100000000E-03 0. -1.
    9900012    2    1    2    0    0 -0.98904956917E+01  0.11143231066E+02 -0.11343917828E+02  0.72461602181E+02  0.70000041538E+02 0.  0.
        -12    1    1    2    0    0  0.98904956917E+01 -0.11143231066E+02  0.11343917828E+02  0.18726397819E+02  0.00000000000E+00 0.  1.
         11    1    3    3    0    0 -0.12721863322E+01 -0.21189147590E+01 -0.48685804160E+01  0.54599755812E+01  0.51100000000E-03 0. -1.
        -11    1    3    3    0    0 -0.36559491987E+02  0.11459320382E+02 -0.22886969942E+00  0.38314029539E+02  0.51100000000E-03 0.  1.
         12    1    3    3    0    0  0.27941182627E+02  0.18028254424E+01 -0.62464677123E+01  0.28687597060E+02  0.00000000000E+00 0. -1.
</event>
<event>
 7    1  0.3508738E-013  0.7246154E+02  0.7816164E-02  0.1226708E+00
        -11   -1    0    0    0    0  0.00000000000E+00  0.00000000000E+00  0.45593999997E+02  0.45594000000E+02  0.51100000000E-03 0.  1.
         11   -1    0    0    0    0 -0.00000000000E+00 -0.00000000000E+00 -0.45593999997E+02  0.45594000000E+02  0.51100000000E-03 0. -1.
    9900012    2    1    2    0    0 -0.13528757474E+02 -0.60359937330E+01 -0.11455113791E+02  0.72461544620E+02  0.69999966554E+02 0.  0.
        -12    1    1    2    0    0  0.13528757474E+02  0.60359937330E+01  0.11455113791E+02  0.18726455380E+02  0.00000000000E+00 0.  1.
         11    1    3    3    0    0 -0.28230311093E+02 -0.29755648295E+01  0.11579706592E+02  0.30657691620E+02  0.51100000000E-03 0. -1.
        -11    1    3    3    0    0 -0.40271841227E+01  0.60837204293E+01  0.34758158973E+01  0.80815321959E+01  0.51100000000E-03 0.  1.
        -12    1    3    3    0    0  0.18728737741E+02 -0.91441493327E+01 -0.26510636281E+02  0.33722320804E+02  0.00000000000E+00 0.  1.
</event>
<event>
 7    1  0.3508738E-013  0.7246178E+02  0.7816164E-02  0.1226707E+00
        -11   -1    0    0    0    0  0.00000000000E+00  0.00000000000E+00  0.45593999997E+02  0.45594000000E+02  0.51100000000E-03 0. -1.
         11   -1    0    0    0    0 -0.00000000000E+00 -0.00000000000E+00 -0.45593999997E+02  0.45594000000E+02  0.51100000000E-03 0.  1.
    9900012    2    1    2    0    0  0.14013738153E+02  0.12410864935E+02  0.50692235530E+00  0.72461777858E+02  0.70000270389E+02 0.  0.
        -12    1    1    2    0    0 -0.14013738153E+02 -0.12410864935E+02 -0.50692235530E+00  0.18726222142E+02  0.00000000000E+00 0.  1.
         11    1    3    3    0    0 -0.22383418150E+01  0.15084125634E+01 -0.19429936219E+01  0.33257641254E+01  0.51100000000E-03 0. -1.
        -11    1    3    3    0    0  0.21045885377E+02  0.25695394361E+02 -0.22229089295E+02  0.39966423330E+02  0.51100000000E-03 0.  1.
         12    1    3    3    0    0 -0.47938054095E+01 -0.14792941990E+02  0.24679005272E+02  0.29169590402E+02  0.00000000000E+00 0. -1.
</event>
<event>
 7    1  0.3508738E-013  0.7246170E+02  0.7816164E-02  0.1226708E+00
        -11   -1    0    0    0    0  0.00000000000E+00  0.00000000000E+00  0.45593999997E+02  0.45594000000E+02  0.51100000000E-03 0. -1.
         11   -1    0    0    0    0 -0.00000000000E+00 -0.00000000000E+00 -0.45593999997E+02  0.45594000000E+02  0.51100000000E-03 0.  1.
    9900012    2    1    2    0    0 -0.12435807576E+02  0.10563532552E+02  0.91889434694E+01  0.72461702658E+02  0.70000172428E+02 0.  0.
        -12    1    1    2    0    0  0.12435807576E+02 -0.10563532552E+02 -0.91889434694E+01  0.18726297342E+02  0.00000000000E+00 0.  1.
         11    1    3    3    0    0 -0.16130575047E+02  0.16166230237E+02 -0.84311043353E+01  0.24343910368E+02  0.51100000000E-03 0. -1.
        -11    1    3    3    0    0  0.24260056083E+01  0.16860653512E+02 -0.33509565039E+01  0.17360761787E+02  0.51100000000E-03 0.  1.
         12    1    3    3    0    0  0.12687618620E+01 -0.22463351197E+02  0.20971004309E+02  0.30757030503E+02  0.00000000000E+00 0. -1.
</event>
<event>
 7    1  0.3508738E-013  0.7246159E+02  0.7816164E-02  0.1226708E+00
        -11   -1    0    0    0    0  0.00000000000E+00  0.00000000000E+00  0.45593999997E+02  0.45594000000E+02  0.51100000000E-03 0. -1.
         11   -1    0    0    0    0 -0.00000000000E+00 -0.00000000000E+00 -0.45593999997E+02  0.45594000000E+02  0.51100000000E-03 0.  1.
    9900012    2    1    2    0    0 -0.13286013911E+02  0.49097625918E+01  0.12249677312E+02  0.72461587407E+02  0.70000022293E+02 0.  0.
        -12    1    1    2    0    0  0.13286013911E+02 -0.49097625918E+01 -0.12249677312E+02  0.18726412593E+02  0.00000000000E+00 0.  1.
         11    1    3    3    0    0  0.85911301641E+01  0.58883805822E+01  0.87286724947E+01  0.13589343883E+02  0.51100000000E-03 0. -1.
        -11    1    3    3    0    0  0.15066300315E+02 -0.88060460239E+01  0.10646515049E+02  0.20442312362E+02  0.51100000000E-03 0.  1.
        -12    1    3    3    0    0 -0.36943444391E+02  0.78274280334E+01 -0.71255102321E+01  0.38429931162E+02  0.00000000000E+00 0.  1.
</event>
<event>
 7    1  0.3508738E-013  0.7246159E+02  0.7816164E-02  0.1226708E+00
        -11   -1    0    0    0    0  0.00000000000E+00  0.00000000000E+00  0.45593999997E+02  0.45594000000E+02  0.51100000000E-03 0.  1.
         11   -1    0    0    0    0 -0.00000000000E+00 -0.00000000000E+00 -0.45593999997E+02  0.45594000000E+02  0.51100000000E-03 0. -1.
    9900012    2    1    2    0    0  0.17334172710E+02 -0.67572525710E+01  0.21317769205E+01  0.72461588740E+02  0.70000024029E+02 0.  0.
        -12    1    1    2    0    0 -0.17334172710E+02  0.67572525710E+01 -0.21317769205E+01  0.18726411260E+02  0.00000000000E+00 0.  1.
         11    1    3    3    0    0  0.27696981426E+02 -0.15141865729E+02  0.23647085530E+02  0.39440886555E+02  0.51100000000E-03 0. -1.
        -11    1    3    3    0    0  0.53116577270E+01 -0.15839764901E+01 -0.15611642012E+01  0.57584653558E+01  0.51100000000E-03 0.  1.
        -12    1    3    3    0    0 -0.15674466443E+02  0.99685896482E+01 -0.19954144409E+02  0.27262236829E+02  0.00000000000E+00 0.  1.
</event>
<event>
 7    1  0.3508738E-013  0.7246156E+02  0.7816164E-02  0.1226708E+00
        -11   -1    0    0    0    0  0.00000000000E+00  0.00000000000E+00  0.45593999997E+02  0.45594000000E+02  0.51100000000E-03 0.  1.
         11   -1    0    0    0    0 -0.00000000000E+00 -0.00000000000E+00 -0.45593999997E+02  0.45594000000E+02  0.51100000000E-03 0. -1.
    9900012    2    1    2    0    0 -0.76120878072E+00  0.93733666315E+00 -0.18687466034E+02  0.72461563457E+02  0.69999991094E+02 0.  0.
        -12    1    1    2    0    0  0.76120878072E+00 -0.93733666315E+00  0.18687466034E+02  0.18726436543E+02  0.00000000000E+00 0.  1.
         11    1    3    3    0    0 -0.26686138272E+01 -0.18070835816E+01 -0.26958207893E+00  0.32341499019E+01  0.51100000000E-03 0. -1.
        -11    1    3    3    0    0  0.45520633342E+01  0.14812381120E+02  0.22030388679E+02  0.26934474947E+02  0.51100000000E-03 0.  1.
         12    1    3    3    0    0 -0.26446582878E+01 -0.12067960875E+02 -0.40448272633E+02  0.42292938609E+02  0.00000000000E+00 0. -1.
</event>
<event>
 7    1  0.3508738E-013  0.7246157E+02  0.7816164E-02  0.1226708E+00
        -11   -1    0    0    0    0  0.00000000000E+00  0.00000000000E+00  0.45593999997E+02  0.45594000000E+02  0.51100000000E-03 0.  1.
         11   -1    0    0    0    0 -0.00000000000E+00 -0.00000000000E+00 -0.45593999997E+02  0.45594000000E+02  0.51100000000E-03 0. -1.
    9900012    2    1    2    0    0  0.18656631206E+02 -0.15268127331E+01  0.52743637203E+00  0.72461568567E+02  0.69999997750E+02 0.  0.
        -12    1    1    2    0    0 -0.18656631206E+02  0.15268127331E+01 -0.52743637203E+00  0.18726431433E+02  0.00000000000E+00 0.  1.
         11    1    3    3    0    0  0.10846961050E+02  0.28706273299E+02 -0.85610827297E+01  0.31859046258E+02  0.51100000000E-03 0. -1.
        -11    1    3    3    0    0  0.45461526420E+01 -0.74912589384E+00 -0.58036400198E+01  0.74101910359E+01  0.51100000000E-03 0.  1.
        -12    1    3    3    0    0  0.32635175145E+01 -0.29483960138E+02  0.14892159122E+02  0.33192331272E+02  0.00000000000E+00 0.  1.
</event>
<event>
 7    1  0.3508738E-013  0.7246160E+02  0.7816164E-02  0.1226708E+00
        -11   -1    0    0    0    0  0.00000000000E+00  0.00000000000E+00  0.45593999997E+02  0.45594000000E+02  0.51100000000E-03 0.  1.
         11   -1    0    0    0    0 -0.00000000000E+00 -0.00000000000E+00 -0.45593999997E+02  0.45594000000E+02  0.51100000000E-03 0. -1.
    9900012    2    1    2    0    0 -0.17407055351E+02 -0.37646284079E+01 -0.57879227120E+01  0.72461600123E+02  0.70000038857E+02 0.  0.
        -12    1    1    2    0    0  0.17407055351E+02  0.37646284079E+01  0.57879227120E+01  0.18726399877E+02  0.00000000000E+00 0.  1.
         11    1    3    3    0    0 -0.10226623856E+02  0.11933181862E+02 -0.20912779877E+02  0.26159683242E+02  0.51100000000E-03 0. -1.
        -11    1    3    3    0    0 -0.64297710343E+01 -0.59386449823E+01 -0.13478009025E+02  0.16070662317E+02  0.51100000000E-03 0.  1.
        -12    1    3    3    0    0 -0.75066046018E+00 -0.97591652877E+01  0.28602866190E+02  0.30231254564E+02  0.00000000000E+00 0.  1.
</event>
<event>
 7    1  0.4011123E-013  0.7246155E+02  0.7816164E-02  0.1226708E+00
        -11   -1    0    0    0    0  0.00000000000E+00  0.00000000000E+00  0.45593999997E+02  0.45594000000E+02  0.51100000000E-03 0.  1.
         11   -1    0    0    0    0 -0.00000000000E+00 -0.00000000000E+00 -0.45593999997E+02  0.45594000000E+02  0.51100000000E-03 0. -1.
    9900012    2    1    2    0    0 -0.10119355151E+02  0.58909433795E+01 -0.14614213961E+02  0.72461553133E+02  0.69999977644E+02 0.  0.
        -12    1    1    2    0    0  0.10119355151E+02 -0.58909433795E+01  0.14614213961E+02  0.18726446867E+02  0.00000000000E+00 0.  1.
         11    1    3    3    0    0  0.18080225362E+02  0.10428979338E+01 -0.17051759238E+02  0.24874578964E+02  0.51100000000E-03 0. -1.
        -11    1    3    3    0    0  0.15282184756E+01  0.93638165834E+01 -0.11107650264E+02  0.14608093899E+02  0.51100000000E-03 0.  1.
        -12    1    3    3    0    0 -0.29727798989E+02 -0.45157711377E+01  0.13545195541E+02  0.32978880271E+02  0.00000000000E+00 0.  1.
</event>
<event>
 7    1  0.3508738E-013  0.7246155E+02  0.7816164E-02  0.1226708E+00
        -11   -1    0    0    0    0  0.00000000000E+00  0.00000000000E+00  0.45593999997E+02  0.45594000000E+02  0.51100000000E-03 0.  1.
         11   -1    0    0    0    0 -0.00000000000E+00 -0.00000000000E+00 -0.45593999997E+02  0.45594000000E+02  0.51100000000E-03 0. -1.
    9900012    2    1    2    0    0  0.12893644515E+02  0.12533765986E+02 -0.52286154824E+01  0.72461554034E+02  0.69999978818E+02 0.  0.
        -12    1    1    2    0    0 -0.12893644515E+02 -0.12533765986E+02  0.52286154824E+01  0.18726445966E+02  0.00000000000E+00 0.  1.
         11    1    3    3    0    0  0.25652265150E+02  0.85796067002E+01 -0.56972678782E+01  0.27642489396E+02  0.51100000000E-03 0. -1.
        -11    1    3    3    0    0  0.10511906273E+02  0.11731986479E+02 -0.94326141433E+01  0.18360661483E+02  0.51100000000E-03 0.  1.
        -12    1    3    3    0    0 -0.23270526908E+02 -0.77778271939E+01  0.99012665391E+01  0.26458403155E+02  0.00000000000E+00 0.  1.
</event>
<event>
 7    1  0.4450679E-013  0.7246158E+02  0.7816164E-02  0.1226708E+00
        -11   -1    0    0    0    0  0.00000000000E+00  0.00000000000E+00  0.45593999997E+02  0.45594000000E+02  0.51100000000E-03 0. -1.
         11   -1    0    0    0    0 -0.00000000000E+00 -0.00000000000E+00 -0.45593999997E+02  0.45594000000E+02  0.51100000000E-03 0.  1.
    9900012    2    1    2    0    0 -0.25041842121E+01  0.73009903755E+01  0.17061749247E+02  0.72461583194E+02  0.70000016804E+02 0.  0.
        -12    1    1    2    0    0  0.25041842121E+01 -0.73009903755E+01 -0.17061749247E+02  0.18726416806E+02  0.00000000000E+00 0.  1.
         11    1    3    3    0    0  0.21259848187E+02 -0.62721763145E+01  0.28214251169E+02  0.35879873327E+02  0.51100000000E-03 0. -1.
        -11    1    3    3    0    0 -0.64258419818E+01  0.46124678654E+00  0.60674410132E+01  0.88497477073E+01  0.51100000000E-03 0.  1.
        -12    1    3    3    0    0 -0.17338190418E+02  0.13111919903E+02 -0.17219942935E+02  0.27731962159E+02  0.00000000000E+00 0.  1.
</event>
<event>
 7    1  0.3508738E-013  0.7246155E+02  0.7816164E-02  0.1226708E+00
        -11   -1    0    0    0    0  0.00000000000E+00  0.00000000000E+00  0.45593999997E+02  0.45594000000E+02  0.51100000000E-03 0.  1.
         11   -1    0    0    0    0 -0.00000000000E+00 -0.00000000000E+00 -0.45593999997E+02  0.45594000000E+02  0.51100000000E-03 0. -1.
    9900012    2    1    2    0    0  0.12215402630E+02  0.13946096642E+02 -0.26401343043E+01  0.72461548598E+02  0.69999971736E+02 0.  0.
        -12    1    1    2    0    0 -0.12215402630E+02 -0.13946096642E+02  0.26401343043E+01  0.18726451402E+02  0.00000000000E+00 0.  1.
         11    1    3    3    0    0 -0.30781648532E+01 -0.87692365765E+01 -0.14663995747E+02  0.17361088115E+02  0.51100000000E-03 0. -1.
        -11    1    3    3    0    0  0.34429369405E+01  0.31481000266E+02 -0.55626805420E+01  0.32153547356E+02  0.51100000000E-03 0.  1.
         12    1    3    3    0    0  0.11850630543E+02 -0.87656670476E+01  0.17586541985E+02  0.22946913127E+02  0.00000000000E+00 0. -1.
</event>
<event>
 7    1  0.3508738E-013  0.7246155E+02  0.7816164E-02  0.1226708E+00
        -11   -1    0    0    0    0  0.00000000000E+00  0.00000000000E+00  0.45593999997E+02  0.45594000000E+02  0.51100000000E-03 0. -1.
         11   -1    0    0    0    0 -0.00000000000E+00 -0.00000000000E+00 -0.45593999997E+02  0.45594000000E+02  0.51100000000E-03 0.  1.
    9900012    2    1    2    0    0  0.78766089701E+01 -0.24595235815E+01  0.16810405041E+02  0.72461549649E+02  0.69999973106E+02 0.  0.
        -12    1    1    2    0    0 -0.78766089701E+01  0.24595235815E+01 -0.16810405041E+02  0.18726450351E+02  0.00000000000E+00 0.  1.
         11    1    3    3    0    0  0.29209914466E+02  0.16084296901E+02  0.13011486228E+02  0.35794168296E+02  0.51100000000E-03 0. -1.
        -11    1    3    3    0    0  0.43668162146E+01 -0.70989593317E+01  0.10396886545E+01  0.83991225854E+01  0.51100000000E-03 0.  1.
        -12    1    3    3    0    0 -0.25700121710E+02 -0.11444861151E+02  0.27592301582E+01  0.28268258767E+02  0.00000000000E+00 0.  1.
</event>
<event>
 7    1  0.3508738E-013  0.7246162E+02  0.7816164E-02  0.1226708E+00
        -11   -1    0    0    0    0  0.00000000000E+00  0.00000000000E+00  0.45593999997E+02  0.45594000000E+02  0.51100000000E-03 0.  1.
         11   -1    0    0    0    0 -0.00000000000E+00 -0.00000000000E+00 -0.45593999997E+02  0.45594000000E+02  0.51100000000E-03 0. -1.
    9900012    2    1    2    0    0 -0.18703551845E+02  0.91866223319E+00 -0.10201370192E+00  0.72461622915E+02  0.70000068548E+02 0.  0.
        -12    1    1    2    0    0  0.18703551845E+02 -0.91866223319E+00  0.10201370192E+00  0.18726377085E+02  0.00000000000E+00 0.  1.
         11    1    3    3    0    0  0.13228619697E+02  0.89921583008E+01 -0.66397572263E+01  0.17318824045E+02  0.51100000000E-03 0. -1.
        -11    1    3    3    0    0 -0.23711482560E+02 -0.11762855928E+02 -0.15959616010E+02  0.30908065747E+02  0.51100000000E-03 0.  1.
        -12    1    3    3    0    0 -0.82206889828E+01  0.36893598601E+01  0.22497359535E+02  0.24234733123E+02  0.00000000000E+00 0.  1.
</event>
<event>
 7    1  0.3508738E-013  0.7246163E+02  0.7816164E-02  0.1226708E+00
        -11   -1    0    0    0    0  0.00000000000E+00  0.00000000000E+00  0.45593999997E+02  0.45594000000E+02  0.51100000000E-03 0.  1.
         11   -1    0    0    0    0 -0.00000000000E+00 -0.00000000000E+00 -0.45593999997E+02  0.45594000000E+02  0.51100000000E-03 0. -1.
    9900012    2    1    2    0    0  0.95295431154E+01 -0.11177540935E+02 -0.11615819310E+02  0.72461631650E+02  0.70000079927E+02 0.  0.
        -12    1    1    2    0    0 -0.95295431154E+01  0.11177540935E+02  0.11615819310E+02  0.18726368350E+02  0.00000000000E+00 0.  1.
         11    1    3    3    0    0  0.58970341304E+00 -0.46464900873E+01 -0.32079889672E+01  0.56770426915E+01  0.51100000000E-03 0. -1.
        -11    1    3    3    0    0  0.36098038667E+02 -0.62409859889E+01  0.41392647325E+01  0.36866676206E+02  0.51100000000E-03 0.  1.
         12    1    3    3    0    0 -0.27158198965E+02 -0.29006485917E+00 -0.12547095075E+02  0.29917912752E+02  0.00000000000E+00 0. -1.
</event>
<event>
 7    1  0.3508738E-013  0.7246157E+02  0.7816164E-02  0.1226708E+00
        -11   -1    0    0    0    0  0.00000000000E+00  0.00000000000E+00  0.45593999997E+02  0.45594000000E+02  0.51100000000E-03 0.  1.
         11   -1    0    0    0    0 -0.00000000000E+00 -0.00000000000E+00 -0.45593999997E+02  0.45594000000E+02  0.51100000000E-03 0. -1.
    9900012    2    1    2    0    0 -0.90107505671E+01 -0.47266175054E+01 -0.15720831961E+02  0.72461572247E+02  0.70000002544E+02 0.  0.
        -12    1    1    2    0    0  0.90107505671E+01  0.47266175054E+01  0.15720831961E+02  0.18726427753E+02  0.00000000000E+00 0.  1.
         11    1    3    3    0    0  0.11617165138E+02  0.78614015033E+01 -0.13299372603E+01  0.14090028134E+02  0.51100000000E-03 0. -1.
        -11    1    3    3    0    0  0.15541475000E+02  0.42647564824E+01 -0.51283869557E+00  0.16124161896E+02  0.51100000000E-03 0.  1.
        -12    1    3    3    0    0 -0.36169390706E+02 -0.16852775491E+02 -0.13878056005E+02  0.42247382218E+02  0.00000000000E+00 0.  1.
</event>
<event>
 7    1  0.3508738E-013  0.7246155E+02  0.7816164E-02  0.1226708E+00
        -11   -1    0    0    0    0  0.00000000000E+00  0.00000000000E+00  0.45593999997E+02  0.45594000000E+02  0.51100000000E-03 0. -1.
         11   -1    0    0    0    0 -0.00000000000E+00 -0.00000000000E+00 -0.45593999997E+02  0.45594000000E+02  0.51100000000E-03 0.  1.
    9900012    2    1    2    0    0 -0.17226403530E+02  0.14310091066E+00 -0.73423869818E+01  0.72461545369E+02  0.69999967530E+02 0.  0.
        -12    1    1    2    0    0  0.17226403530E+02 -0.14310091066E+00  0.73423869818E+01  0.18726454631E+02  0.00000000000E+00 0.  1.
         11    1    3    3    0    0  0.25816700277E+01 -0.38083833259E+00 -0.15791143161E+02  0.16005319758E+02  0.51100000000E-03 0. -1.
        -11    1    3    3    0    0 -0.61188599948E+01  0.25681067561E+02  0.87560107248E+01  0.27814122362E+02  0.51100000000E-03 0.  1.
         12    1    3    3    0    0 -0.13689213563E+02 -0.25157128318E+02 -0.30725454601E+00  0.28642103249E+02  0.00000000000E+00 0. -1.
</event>
<event>
 7    1  0.3508738E-013  0.7246155E+02  0.7816164E-02  0.1226708E+00
        -11   -1    0    0    0    0  0.00000000000E+00  0.00000000000E+00  0.45593999997E+02  0.45594000000E+02  0.51100000000E-03 0. -1.
         11   -1    0    0    0    0 -0.00000000000E+00 -0.00000000000E+00 -0.45593999997E+02  0.45594000000E+02  0.51100000000E-03 0.  1.
    9900012    2    1    2    0    0  0.15986287646E+02 -0.91241569048E+01 -0.34450333902E+01  0.72461551138E+02  0.69999975045E+02 0.  0.
        -12    1    1    2    0    0 -0.15986287646E+02  0.91241569048E+01  0.34450333902E+01  0.18726448862E+02  0.00000000000E+00 0.  1.
         11    1    3    3    0    0  0.47199871076E+01  0.18067464343E+02  0.16041539176E+02  0.24617930975E+02  0.51100000000E-03 0. -1.
        -11    1    3    3    0    0 -0.27028553900E+01 -0.77455383879E+01 -0.22275721177E+02  0.23738292828E+02  0.51100000000E-03 0.  1.
        -12    1    3    3    0    0  0.13969155928E+02 -0.19446082860E+02  0.27891486105E+01  0.24105327335E+02  0.00000000000E+00 0.  1.
</event>
<event>
 7    1  0.3508738E-013  0.7246157E+02  0.7816164E-02  0.1226708E+00
        -11   -1    0    0    0    0  0.00000000000E+00  0.00000000000E+00  0.45593999997E+02  0.45594000000E+02  0.51100000000E-03 0. -1.
         11   -1    0    0    0    0 -0.00000000000E+00 -0.00000000000E+00 -0.45593999997E+02  0.45594000000E+02  0.51100000000E-03 0.  1.
    9900012    2    1    2    0    0  0.15567332462E+02  0.10069362476E+02 -0.26353822757E+01  0.72461571073E+02  0.70000001014E+02 0.  0.
        -12    1    1    2    0    0 -0.15567332462E+02 -0.10069362476E+02  0.26353822757E+01  0.18726428927E+02  0.00000000000E+00 0.  1.
         11    1    3    3    0    0  0.17832764750E+02  0.27170711328E+01 -0.89362519124E+01  0.20130737013E+02  0.51100000000E-03 0. -1.
        -11    1    3    3    0    0  0.11311838451E+02  0.24331611412E+02 -0.57963765492E+01  0.27451465980E+02  0.51100000000E-03 0.  1.
        -12    1    3    3    0    0 -0.13577270740E+02 -0.16979320070E+02  0.12097246186E+02  0.24879368080E+02  0.00000000000E+00 0.  1.
</event>
<event>
 7    1  0.3508738E-013  0.7246159E+02  0.7816164E-02  0.1226708E+00
        -11   -1    0    0    0    0  0.00000000000E+00  0.00000000000E+00  0.45593999997E+02  0.45594000000E+02  0.51100000000E-03 0. -1.
         11   -1    0    0    0    0 -0.00000000000E+00 -0.00000000000E+00 -0.45593999997E+02  0.45594000000E+02  0.51100000000E-03 0.  1.
    9900012    2    1    2    0    0 -0.86382308487E+01  0.16411409716E+02  0.25932908517E+01  0.72461586609E+02  0.70000021253E+02 0.  0.
        -12    1    1    2    0    0  0.86382308487E+01 -0.16411409716E+02 -0.25932908517E+01  0.18726413391E+02  0.00000000000E+00 0.  1.
         11    1    3    3    0    0 -0.19304169513E+01  0.19971151493E+02 -0.89754403221E+01  0.21980262301E+02  0.51100000000E-03 0. -1.
        -11    1    3    3    0    0  0.13774511202E+02  0.15053698758E+02 -0.20234838668E+00  0.20405684264E+02  0.51100000000E-03 0.  1.
         12    1    3    3    0    0 -0.20482325100E+02 -0.18613440535E+02  0.11771079560E+02  0.30075640044E+02  0.00000000000E+00 0. -1.
</event>
<event>
 7    1  0.3508738E-013  0.7246155E+02  0.7816164E-02  0.1226708E+00
        -11   -1    0    0    0    0  0.00000000000E+00  0.00000000000E+00  0.45593999997E+02  0.45594000000E+02  0.51100000000E-03 0.  1.
         11   -1    0    0    0    0 -0.00000000000E+00 -0.00000000000E+00 -0.45593999997E+02  0.45594000000E+02  0.51100000000E-03 0. -1.
    9900012    2    1    2    0    0 -0.18345473047E+02 -0.25928756548E-01 -0.37580241376E+01  0.72461553486E+02  0.69999978104E+02 0.  0.
        -12    1    1    2    0    0  0.18345473047E+02  0.25928756548E-01  0.37580241376E+01  0.18726446514E+02  0.00000000000E+00 0.  1.
         11    1    3    3    0    0  0.50481692477E+01 -0.10637405552E+02  0.53850287936E+01  0.12947468672E+02  0.51100000000E-03 0. -1.
        -11    1    3    3    0    0  0.16114942988E+02 -0.39354508853E+01 -0.89827132912E+00  0.16612827960E+02  0.51100000000E-03 0.  1.
         12    1    3    3    0    0 -0.39508585283E+02  0.14546927681E+02 -0.82447816021E+01  0.42901256854E+02  0.00000000000E+00 0. -1.
</event>
<event>
 7    1  0.3508738E-013  0.7246148E+02  0.7816164E-02  0.1226708E+00
        -11   -1    0    0    0    0  0.00000000000E+00  0.00000000000E+00  0.45593999997E+02  0.45594000000E+02  0.51100000000E-03 0.  1.
         11   -1    0    0    0    0 -0.00000000000E+00 -0.00000000000E+00 -0.45593999997E+02  0.45594000000E+02  0.51100000000E-03 0. -1.
    9900012    2    1    2    0    0  0.14945093583E+02  0.66328293300E+00 -0.11264396870E+02  0.72461483952E+02  0.69999887523E+02 0.  0.
        -12    1    1    2    0    0 -0.14945093583E+02 -0.66328293300E+00  0.11264396870E+02  0.18726516048E+02  0.00000000000E+00 0.  1.
         11    1    3    3    0    0  0.25914692785E+02  0.16466300103E+02  0.95727538176E+01  0.32161280402E+02  0.51100000000E-03 0. -1.
        -11    1    3    3    0    0  0.87647398840E+01 -0.11017904920E+02 -0.69612669032E+01  0.15705862957E+02  0.51100000000E-03 0.  1.
        -12    1    3    3    0    0 -0.19734339086E+02 -0.47851122492E+01 -0.13875883784E+02  0.24594340593E+02  0.00000000000E+00 0.  1.
</event>
<event>
 7    1  0.3508738E-013  0.7246160E+02  0.7816164E-02  0.1226708E+00
        -11   -1    0    0    0    0  0.00000000000E+00  0.00000000000E+00  0.45593999997E+02  0.45594000000E+02  0.51100000000E-03 0.  1.
         11   -1    0    0    0    0 -0.00000000000E+00 -0.00000000000E+00 -0.45593999997E+02  0.45594000000E+02  0.51100000000E-03 0. -1.
    9900012    2    1    2    0    0 -0.17557248433E+02  0.50666940081E+01 -0.40926189083E+01  0.72461604451E+02  0.70000044496E+02 0.  0.
        -12    1    1    2    0    0  0.17557248433E+02 -0.50666940081E+01  0.40926189083E+01  0.18726395549E+02  0.00000000000E+00 0.  1.
         11    1    3    3    0    0 -0.31240034651E+02 -0.10941029841E+02  0.22385073615E+01  0.33176148276E+02  0.51100000000E-03 0. -1.
        -11    1    3    3    0    0  0.59280886801E+01  0.12827846184E+01  0.12657793616E+02  0.14035936423E+02  0.51100000000E-03 0.  1.
         12    1    3    3    0    0  0.77546975379E+01  0.14724939231E+02 -0.18988919886E+02  0.25249519752E+02  0.00000000000E+00 0. -1.
</event>
<event>
 7    1  0.3508738E-013  0.7246158E+02  0.7816164E-02  0.1226708E+00
        -11   -1    0    0    0    0  0.00000000000E+00  0.00000000000E+00  0.45593999997E+02  0.45594000000E+02  0.51100000000E-03 0. -1.
         11   -1    0    0    0    0 -0.00000000000E+00 -0.00000000000E+00 -0.45593999997E+02  0.45594000000E+02  0.51100000000E-03 0.  1.
    9900012    2    1    2    0    0  0.10070701315E+02 -0.11572255171E+02  0.10739771880E+02  0.72461579767E+02  0.70000012340E+02 0.  0.
        -12    1    1    2    0    0 -0.10070701315E+02  0.11572255171E+02 -0.10739771880E+02  0.18726420233E+02  0.00000000000E+00 0.  1.
         11    1    3    3    0    0 -0.42620300374E+01 -0.14284055566E+02 -0.16776668776E+02  0.22442276153E+02  0.51100000000E-03 0. -1.
        -11    1    3    3    0    0 -0.84380807829E+01 -0.10646359718E+02  0.28318130426E+01  0.13876791701E+02  0.51100000000E-03 0.  1.
         12    1    3    3    0    0  0.22770812135E+02  0.13358160113E+02  0.24684627614E+02  0.36142511912E+02  0.00000000000E+00 0. -1.
</event>
<event>
 7    1  0.3508738E-013  0.7246158E+02  0.7816164E-02  0.1226708E+00
        -11   -1    0    0    0    0  0.00000000000E+00  0.00000000000E+00  0.45593999997E+02  0.45594000000E+02  0.51100000000E-03 0.  1.
         11   -1    0    0    0    0 -0.00000000000E+00 -0.00000000000E+00 -0.45593999997E+02  0.45594000000E+02  0.51100000000E-03 0. -1.
    9900012    2    1    2    0    0 -0.40135425755E-01 -0.14217515581E+02 -0.12187677804E+02  0.72461578815E+02  0.70000011100E+02 0.  0.
        -12    1    1    2    0    0  0.40135425755E-01  0.14217515581E+02  0.12187677804E+02  0.18726421185E+02  0.00000000000E+00 0.  1.
         11    1    3    3    0    0  0.67774278771E+01 -0.38087460104E+01 -0.34011315443E+02  0.34888531830E+02  0.51100000000E-03 0. -1.
        -11    1    3    3    0    0 -0.74046298427E+01  0.80523425718E+01  0.33286619694E+01  0.11434542176E+02  0.51100000000E-03 0.  1.
         12    1    3    3    0    0  0.58706653980E+00 -0.18461112142E+02  0.18494975670E+02  0.26138504809E+02  0.00000000000E+00 0. -1.
</event>
<event>
 7    1  0.3508738E-013  0.7246157E+02  0.7816164E-02  0.1226708E+00
        -11   -1    0    0    0    0  0.00000000000E+00  0.00000000000E+00  0.45593999997E+02  0.45594000000E+02  0.51100000000E-03 0. -1.
         11   -1    0    0    0    0 -0.00000000000E+00 -0.00000000000E+00 -0.45593999997E+02  0.45594000000E+02  0.51100000000E-03 0.  1.
    9900012    2    1    2    0    0  0.10291073041E+02  0.39609235793E+01  0.15135523359E+02  0.72461570353E+02  0.70000000077E+02 0.  0.
        -12    1    1    2    0    0 -0.10291073041E+02 -0.39609235793E+01 -0.15135523359E+02  0.18726429647E+02  0.00000000000E+00 0.  1.
         11    1    3    3    0    0  0.51291435720E+01 -0.10833524628E+02  0.64028750328E+01  0.13589340624E+02  0.51100000000E-03 0. -1.
        -11    1    3    3    0    0 -0.20541749331E+01 -0.15182124488E+02 -0.13850830482E+02  0.20653378511E+02  0.51100000000E-03 0.  1.
         12    1    3    3    0    0  0.72161044026E+01  0.29976572696E+02  0.22583478808E+02  0.38218851218E+02  0.00000000000E+00 0. -1.
</event>
<event>
 7    1  0.3508738E-013  0.7246154E+02  0.7816164E-02  0.1226708E+00
        -11   -1    0    0    0    0  0.00000000000E+00  0.00000000000E+00  0.45593999997E+02  0.45594000000E+02  0.51100000000E-03 0. -1.
         11   -1    0    0    0    0 -0.00000000000E+00 -0.00000000000E+00 -0.45593999997E+02  0.45594000000E+02  0.51100000000E-03 0.  1.
    9900012    2    1    2    0    0 -0.12619426615E+02  0.70077700206E+01 -0.11929860296E+02  0.72461539164E+02  0.69999959447E+02 0.  0.
        -12    1    1    2    0    0  0.12619426615E+02 -0.70077700206E+01  0.11929860296E+02  0.18726460836E+02  0.00000000000E+00 0.  1.
         11    1    3    3    0    0 -0.80312521383E+01  0.31632826580E+02 -0.24470977844E+02  0.40791733051E+02  0.51100000000E-03 0. -1.
        -11    1    3    3    0    0 -0.26465278284E+01  0.13906492520E+01  0.14322662647E+01  0.33150266669E+01  0.51100000000E-03 0.  1.
        -12    1    3    3    0    0 -0.19416466487E+01 -0.26015705812E+02  0.11108851284E+02  0.28354779446E+02  0.00000000000E+00 0.  1.
</event>
<event>
 7    1  0.3508738E-013  0.7246162E+02  0.7816164E-02  0.1226708E+00
        -11   -1    0    0    0    0  0.00000000000E+00  0.00000000000E+00  0.45593999997E+02  0.45594000000E+02  0.51100000000E-03 0.  1.
         11   -1    0    0    0    0 -0.00000000000E+00 -0.00000000000E+00 -0.45593999997E+02  0.45594000000E+02  0.51100000000E-03 0. -1.
    9900012    2    1    2    0    0 -0.93666766390E+00  0.71599651363E+01 -0.17278156399E+02  0.72461624600E+02  0.70000070744E+02 0.  0.
        -12    1    1    2    0    0  0.93666766390E+00 -0.71599651363E+01  0.17278156399E+02  0.18726375400E+02  0.00000000000E+00 0.  1.
         11    1    3    3    0    0  0.62817606716E+01 -0.30641233220E+00 -0.13555755450E+02  0.14943657910E+02  0.51100000000E-03 0. -1.
        -11    1    3    3    0    0 -0.90383788440E+01  0.28572648393E+02 -0.15006598174E+02  0.33515466837E+02  0.51100000000E-03 0.  1.
        -12    1    3    3    0    0  0.18199505085E+01 -0.21106270924E+02  0.11284197226E+02  0.24002499853E+02  0.00000000000E+00 0.  1.
</event>
<event>
 7    1  0.3508738E-013  0.7246157E+02  0.7816164E-02  0.1226708E+00
        -11   -1    0    0    0    0  0.00000000000E+00  0.00000000000E+00  0.45593999997E+02  0.45594000000E+02  0.51100000000E-03 0.  1.
         11   -1    0    0    0    0 -0.00000000000E+00 -0.00000000000E+00 -0.45593999997E+02  0.45594000000E+02  0.51100000000E-03 0. -1.
    9900012    2    1    2    0    0 -0.17216085800E+02 -0.56090947965E+00 -0.73464976411E+01  0.72461567950E+02  0.69999996946E+02 0.  0.
        -12    1    1    2    0    0  0.17216085800E+02  0.56090947965E+00  0.73464976411E+01  0.18726432050E+02  0.00000000000E+00 0.  1.
         11    1    3    3    0    0 -0.54423860701E+01 -0.61350194215E+01 -0.25674479428E+01  0.85935917193E+01  0.51100000000E-03 0. -1.
        -11    1    3    3    0    0  0.96517493081E+01 -0.10534221367E+02 -0.26008353831E+02  0.29674240576E+02  0.51100000000E-03 0.  1.
         12    1    3    3    0    0 -0.21425449038E+02  0.16108331309E+02  0.21229304133E+02  0.34193735655E+02  0.00000000000E+00 0. -1.
</event>
<event>
 7    1  0.3508738E-013  0.7246157E+02  0.7816164E-02  0.1226708E+00
        -11   -1    0    0    0    0  0.00000000000E+00  0.00000000000E+00  0.45593999997E+02  0.45594000000E+02  0.51100000000E-03 0.  1.
         11   -1    0    0    0    0 -0.00000000000E+00 -0.00000000000E+00 -0.45593999997E+02  0.45594000000E+02  0.51100000000E-03 0. -1.
    9900012    2    1    2    0    0 -0.14764689612E+02 -0.94659484712E+00 -0.11479852720E+02  0.72461571627E+02  0.70000001736E+02 0.  0.
        -12    1    1    2    0    0  0.14764689612E+02  0.94659484712E+00  0.11479852720E+02  0.18726428373E+02  0.00000000000E+00 0.  1.
         11    1    3    3    0    0 -0.11657455951E+02  0.26968046701E+02 -0.76813194495E+00  0.29389825605E+02  0.51100000000E-03 0.  1.
        -11    1    3    3    0    0 -0.19531567852E+01 -0.53495607965E+00 -0.15172511994E+02  0.15307061113E+02  0.51100000000E-03 0. -1.
         12    1    3    3    0    0 -0.11540768761E+01 -0.27379685469E+02  0.44607912191E+01  0.27764684909E+02  0.00000000000E+00 0. -1.
</event>
<event>
 7    1  0.3508738E-013  0.7246155E+02  0.7816164E-02  0.1226708E+00
        -11   -1    0    0    0    0  0.00000000000E+00  0.00000000000E+00  0.45593999997E+02  0.45594000000E+02  0.51100000000E-03 0. -1.
         11   -1    0    0    0    0 -0.00000000000E+00 -0.00000000000E+00 -0.45593999997E+02  0.45594000000E+02  0.51100000000E-03 0.  1.
    9900012    2    1    2    0    0 -0.13130720306E+02 -0.10410046131E+02  0.83603190894E+01  0.72461553153E+02  0.69999977671E+02 0.  0.
        -12    1    1    2    0    0  0.13130720306E+02  0.10410046131E+02 -0.83603190894E+01  0.18726446847E+02  0.00000000000E+00 0.  1.
         11    1    3    3    0    0 -0.16366340798E+02  0.11854607339E+02  0.19752017412E+02  0.28258291144E+02  0.51100000000E-03 0. -1.
        -11    1    3    3    0    0  0.10723959574E+02 -0.11576166759E+01  0.88983061702E+01  0.13982962429E+02  0.51100000000E-03 0.  1.
        -12    1    3    3    0    0 -0.74883390830E+01 -0.21107036795E+02 -0.20290004492E+02  0.30220299581E+02  0.00000000000E+00 0.  1.
</event>
<event>
 7    1  0.3508738E-013  0.7246118E+02  0.7816164E-02  0.1226709E+00
        -11   -1    0    0    0    0  0.00000000000E+00  0.00000000000E+00  0.45593999997E+02  0.45594000000E+02  0.51100000000E-03 0. -1.
         11   -1    0    0    0    0 -0.00000000000E+00 -0.00000000000E+00 -0.45593999997E+02  0.45594000000E+02  0.51100000000E-03 0.  1.
    9900012    2    1    2    0    0 -0.14648376341E+02  0.23126683021E-01  0.11666980487E+02  0.72461177046E+02  0.69999487719E+02 0.  0.
        -12    1    1    2    0    0  0.14648376341E+02 -0.23126683021E-01 -0.11666980487E+02  0.18726822954E+02  0.00000000000E+00 0.  1.
         11    1    3    3    0    0  0.17728860954E+01  0.84028322872E+01 -0.10277132582E+02  0.13392914915E+02  0.51100000000E-03 0.  1.
        -11    1    3    3    0    0  0.10384835343E+02  0.11994305286E+02  0.19741153505E+02  0.25326296736E+02  0.51100000000E-03 0. -1.
        -12    1    3    3    0    0 -0.26806097779E+02 -0.20374010890E+02  0.22029595635E+01  0.33741965395E+02  0.00000000000E+00 0.  1.
</event>
<event>
 7    1  0.3508738E-013  0.7246149E+02  0.7816164E-02  0.1226708E+00
        -11   -1    0    0    0    0  0.00000000000E+00  0.00000000000E+00  0.45593999997E+02  0.45594000000E+02  0.51100000000E-03 0.  1.
         11   -1    0    0    0    0 -0.00000000000E+00 -0.00000000000E+00 -0.45593999997E+02  0.45594000000E+02  0.51100000000E-03 0. -1.
    9900012    2    1    2    0    0  0.12809959395E+02  0.73868355333E+01 -0.11490068776E+02  0.72461492601E+02  0.69999898789E+02 0.  0.
        -12    1    1    2    0    0 -0.12809959395E+02 -0.73868355333E+01  0.11490068776E+02  0.18726507399E+02  0.00000000000E+00 0.  1.
         11    1    3    3    0    0  0.17863234321E+01  0.77895725665E+01  0.17607377203E+01  0.81834338607E+01  0.51100000000E-03 0. -1.
        -11    1    3    3    0    0  0.19489601799E+02  0.11552283983E+02  0.18539598587E+02  0.29274845167E+02  0.51100000000E-03 0.  1.
         12    1    3    3    0    0 -0.84659658363E+01 -0.11955021016E+02 -0.31790405084E+02  0.35003213573E+02  0.00000000000E+00 0. -1.
</event>
<event>
 7    1  0.3508738E-013  0.7246155E+02  0.7816164E-02  0.1226708E+00
        -11   -1    0    0    0    0  0.00000000000E+00  0.00000000000E+00  0.45593999997E+02  0.45594000000E+02  0.51100000000E-03 0. -1.
         11   -1    0    0    0    0 -0.00000000000E+00 -0.00000000000E+00 -0.45593999997E+02  0.45594000000E+02  0.51100000000E-03 0.  1.
    9900012    2    1    2    0    0 -0.14802787360E+01 -0.15082061896E+02  0.11000917617E+02  0.72461547998E+02  0.69999970955E+02 0.  0.
        -12    1    1    2    0    0  0.14802787360E+01  0.15082061896E+02 -0.11000917617E+02  0.18726452002E+02  0.00000000000E+00 0.  1.
         11    1    3    3    0    0 -0.18630721109E+02 -0.11731736753E+02  0.28233137542E+02  0.35802897536E+02  0.51100000000E-03 0. -1.
        -11    1    3    3    0    0 -0.46855619604E+01  0.67670240634E+01 -0.34414426134E+01  0.89213582532E+01  0.51100000000E-03 0.  1.
        -12    1    3    3    0    0  0.21836004333E+02 -0.10117349207E+02 -0.13790777312E+02  0.27737292209E+02  0.00000000000E+00 0.  1.
</event>
<event>
 7    1  0.3508738E-013  0.7246158E+02  0.7816164E-02  0.1226708E+00
        -11   -1    0    0    0    0  0.00000000000E+00  0.00000000000E+00  0.45593999997E+02  0.45594000000E+02  0.51100000000E-03 0. -1.
         11   -1    0    0    0    0 -0.00000000000E+00 -0.00000000000E+00 -0.45593999997E+02  0.45594000000E+02  0.51100000000E-03 0.  1.
    9900012    2    1    2    0    0  0.20486229824E+01  0.18145896559E+02  0.41482775568E+01  0.72461584840E+02  0.70000018948E+02 0.  0.
        -12    1    1    2    0    0 -0.20486229824E+01 -0.18145896559E+02 -0.41482775568E+01  0.18726415160E+02  0.00000000000E+00 0.  1.
         11    1    3    3    0    0  0.85919349282E+01  0.42764824294E+01  0.26506840274E+02  0.28190818174E+02  0.51100000000E-03 0. -1.
        -11    1    3    3    0    0  0.11828362774E+02  0.96826290111E-01 -0.16970486397E+02  0.20686153583E+02  0.51100000000E-03 0.  1.
         12    1    3    3    0    0 -0.18371674720E+02  0.13772587840E+02 -0.53880763195E+01  0.23584613082E+02  0.00000000000E+00 0. -1.
</event>
<event>
 7    1  0.3508738E-013  0.7246155E+02  0.7816164E-02  0.1226708E+00
        -11   -1    0    0    0    0  0.00000000000E+00  0.00000000000E+00  0.45593999997E+02  0.45594000000E+02  0.51100000000E-03 0.  1.
         11   -1    0    0    0    0 -0.00000000000E+00 -0.00000000000E+00 -0.45593999997E+02  0.45594000000E+02  0.51100000000E-03 0. -1.
    9900012    2    1    2    0    0 -0.67375780039E+00  0.21273889125E+01 -0.18593009944E+02  0.72461554744E+02  0.69999979742E+02 0.  0.
        -12    1    1    2    0    0  0.67375780039E+00 -0.21273889125E+01  0.18593009944E+02  0.18726445256E+02  0.00000000000E+00 0.  1.
         11    1    3    3    0    0  0.16969305334E+02  0.39246607017E+01 -0.31376659489E+02  0.35886697342E+02  0.51100000000E-03 0. -1.
        -11    1    3    3    0    0  0.48444900397E+01  0.46438436022E+01 -0.39746903958E+01  0.77995212129E+01  0.51100000000E-03 0.  1.
        -12    1    3    3    0    0 -0.22487553174E+02 -0.64411153915E+01  0.16758339941E+02  0.28775336189E+02  0.00000000000E+00 0.  1.
</event>
<event>
 7    1  0.3508738E-013  0.7246155E+02  0.7816164E-02  0.1226708E+00
        -11   -1    0    0    0    0  0.00000000000E+00  0.00000000000E+00  0.45593999997E+02  0.45594000000E+02  0.51100000000E-03 0. -1.
         11   -1    0    0    0    0 -0.00000000000E+00 -0.00000000000E+00 -0.45593999997E+02  0.45594000000E+02  0.51100000000E-03 0.  1.
    9900012    2    1    2    0    0 -0.94775813553E+01 -0.12653466342E+02  0.10037181002E+02  0.72461554494E+02  0.69999979417E+02 0.  0.
        -12    1    1    2    0    0  0.94775813553E+01  0.12653466342E+02 -0.10037181002E+02  0.18726445506E+02  0.00000000000E+00 0.  1.
         11    1    3    3    0    0 -0.17352303615E+02 -0.59909135546E+01  0.18984748154E+02  0.26408599900E+02  0.51100000000E-03 0. -1.
        -11    1    3    3    0    0  0.19928167902E+02 -0.19231628041E+02 -0.67045115847E+01  0.28494523489E+02  0.51100000000E-03 0.  1.
         12    1    3    3    0    0 -0.12053445642E+02  0.12569075253E+02 -0.22430555668E+01  0.17558431105E+02  0.00000000000E+00 0. -1.
</event>
<event>
 7    1  0.3508738E-013  0.7246151E+02  0.7816164E-02  0.1226708E+00
        -11   -1    0    0    0    0  0.00000000000E+00  0.00000000000E+00  0.45593999997E+02  0.45594000000E+02  0.51100000000E-03 0.  1.
         11   -1    0    0    0    0 -0.00000000000E+00 -0.00000000000E+00 -0.45593999997E+02  0.45594000000E+02  0.51100000000E-03 0. -1.
    9900012    2    1    2    0    0  0.15531686968E+02 -0.16339491643E+01 -0.10333358608E+02  0.72461511005E+02  0.69999922765E+02 0.  0.
        -12    1    1    2    0    0 -0.15531686968E+02  0.16339491643E+01  0.10333358608E+02  0.18726488995E+02  0.00000000000E+00 0.  1.
         11    1    3    3    0    0 -0.10318308945E+02 -0.81296554239E+01  0.24140973412E+02  0.27483547703E+02  0.51100000000E-03 0.  1.
        -11    1    3    3    0    0  0.18414014186E+02  0.10481978378E+01 -0.16364155053E+02  0.24656849109E+02  0.51100000000E-03 0. -1.
        -12    1    3    3    0    0  0.74359817277E+01  0.54475084217E+01 -0.18110176968E+02  0.20321114193E+02  0.00000000000E+00 0.  1.
</event>
<event>
 7    1  0.3508738E-013  0.7246157E+02  0.7816164E-02  0.1226708E+00
        -11   -1    0    0    0    0  0.00000000000E+00  0.00000000000E+00  0.45593999997E+02  0.45594000000E+02  0.51100000000E-03 0.  1.
         11   -1    0    0    0    0 -0.00000000000E+00 -0.00000000000E+00 -0.45593999997E+02  0.45594000000E+02  0.51100000000E-03 0. -1.
    9900012    2    1    2    0    0 -0.36119196887E+01  0.10176998241E+02 -0.15299080146E+02  0.72461571874E+02  0.70000002058E+02 0.  0.
        -12    1    1    2    0    0  0.36119196887E+01 -0.10176998241E+02  0.15299080146E+02  0.18726428126E+02  0.00000000000E+00 0.  1.
         11    1    3    3    0    0 -0.20667689137E+02  0.18665686941E+02  0.51056975287E+00  0.27853580110E+02  0.51100000000E-03 0. -1.
        -11    1    3    3    0    0  0.22891577730E+01  0.14299083833E+02 -0.42141104418E+01  0.15081868878E+02  0.51100000000E-03 0.  1.
        -12    1    3    3    0    0  0.14766611675E+02 -0.22787772533E+02 -0.11595539457E+02  0.29526122886E+02  0.00000000000E+00 0.  1.
</event>
<event>
 7    1  0.3508738E-013  0.7246162E+02  0.7816164E-02  0.1226708E+00
        -11   -1    0    0    0    0  0.00000000000E+00  0.00000000000E+00  0.45593999997E+02  0.45594000000E+02  0.51100000000E-03 0. -1.
         11   -1    0    0    0    0 -0.00000000000E+00 -0.00000000000E+00 -0.45593999997E+02  0.45594000000E+02  0.51100000000E-03 0.  1.
    9900012    2    1    2    0    0  0.44307089166E+01 -0.88092578361E+01  0.15919894712E+02  0.72461621472E+02  0.70000066668E+02 0.  0.
        -12    1    1    2    0    0 -0.44307089166E+01  0.88092578361E+01 -0.15919894712E+02  0.18726378528E+02  0.00000000000E+00 0.  1.
         11    1    3    3    0    0  0.72816618224E+01 -0.38425714877E+01  0.65525489830E+01  0.10522540234E+02  0.51100000000E-03 0. -1.
        -11    1    3    3    0    0  0.15852888759E+02 -0.27196697203E+02  0.95170109923E+01  0.32886895859E+02  0.51100000000E-03 0.  1.
         12    1    3    3    0    0 -0.18703841665E+02  0.22230010855E+02 -0.14966526308E+00  0.29052185379E+02  0.00000000000E+00 0. -1.
</event>
<event>
 7    1  0.3508738E-013  0.7246166E+02  0.7816164E-02  0.1226708E+00
        -11   -1    0    0    0    0  0.00000000000E+00  0.00000000000E+00  0.45593999997E+02  0.45594000000E+02  0.51100000000E-03 0.  1.
         11   -1    0    0    0    0 -0.00000000000E+00 -0.00000000000E+00 -0.45593999997E+02  0.45594000000E+02  0.51100000000E-03 0. -1.
    9900012    2    1    2    0    0  0.10238403259E+02  0.43272765254E+01 -0.15070684635E+02  0.72461661362E+02  0.70000118633E+02 0.  0.
        -12    1    1    2    0    0 -0.10238403259E+02 -0.43272765254E+01  0.15070684635E+02  0.18726338638E+02  0.00000000000E+00 0.  1.
         11    1    3    3    0    0  0.68510492259E+01  0.14392231894E+02 -0.94353307021E+01  0.18522923098E+02  0.51100000000E-03 0. -1.
        -11    1    3    3    0    0 -0.95029698068E+01  0.14519309939E+02  0.11958316149E+02  0.21074110222E+02  0.51100000000E-03 0.  1.
         12    1    3    3    0    0  0.12890323840E+02 -0.24584265308E+02 -0.17593670082E+02  0.32864628042E+02  0.00000000000E+00 0. -1.
</event>
<event>
 7    1  0.3508738E-013  0.7246152E+02  0.7816164E-02  0.1226708E+00
        -11   -1    0    0    0    0  0.00000000000E+00  0.00000000000E+00  0.45593999997E+02  0.45594000000E+02  0.51100000000E-03 0.  1.
         11   -1    0    0    0    0 -0.00000000000E+00 -0.00000000000E+00 -0.45593999997E+02  0.45594000000E+02  0.51100000000E-03 0. -1.
    9900012    2    1    2    0    0  0.18102912266E+02  0.37312500284E+01 -0.30072072310E+01  0.72461522632E+02  0.69999937910E+02 0.  0.
        -12    1    1    2    0    0 -0.18102912266E+02 -0.37312500284E+01  0.30072072310E+01  0.18726477368E+02  0.00000000000E+00 0.  1.
         11    1    3    3    0    0  0.16591479281E+02  0.11971955664E+02  0.15230965640E+02  0.25506611334E+02  0.51100000000E-03 0. -1.
        -11    1    3    3    0    0  0.11044676607E+02 -0.48638406537E+00  0.10780480717E+02  0.15441509498E+02  0.51100000000E-03 0.  1.
         12    1    3    3    0    0 -0.95332436213E+01 -0.77543215704E+01 -0.29018653588E+02  0.31513401800E+02  0.00000000000E+00 0. -1.
</event>
<event>
 7    1  0.4382105E-013  0.7246147E+02  0.7816164E-02  0.1226708E+00
        -11   -1    0    0    0    0  0.00000000000E+00  0.00000000000E+00  0.45593999997E+02  0.45594000000E+02  0.51100000000E-03 0.  1.
         11   -1    0    0    0    0 -0.00000000000E+00 -0.00000000000E+00 -0.45593999997E+02  0.45594000000E+02  0.51100000000E-03 0. -1.
    9900012    2    1    2    0    0 -0.77908784008E+01  0.16962464998E+02  0.15032687272E+01  0.72461472775E+02  0.69999872962E+02 0.  0.
        -12    1    1    2    0    0  0.77908784008E+01 -0.16962464998E+02 -0.15032687272E+01  0.18726527225E+02  0.00000000000E+00 0.  1.
         11    1    3    3    0    0 -0.44690670921E+01  0.11636119172E+02 -0.27404594564E+02  0.30106205898E+02  0.51100000000E-03 0. -1.
        -11    1    3    3    0    0 -0.93243997142E+01  0.15963352460E+02  0.14699476618E+02  0.23618798972E+02  0.51100000000E-03 0.  1.
        -12    1    3    3    0    0  0.60025884055E+01 -0.10637006634E+02  0.14208386673E+02  0.18736467905E+02  0.00000000000E+00 0.  1.
</event>
<event>
 7    1  0.4329462E-013  0.7246158E+02  0.7816164E-02  0.1226708E+00
        -11   -1    0    0    0    0  0.00000000000E+00  0.00000000000E+00  0.45593999997E+02  0.45594000000E+02  0.51100000000E-03 0.  1.
         11   -1    0    0    0    0 -0.00000000000E+00 -0.00000000000E+00 -0.45593999997E+02  0.45594000000E+02  0.51100000000E-03 0. -1.
    9900012    2    1    2    0    0 -0.16823535653E+02  0.61541618579E+00 -0.82017510929E+01  0.72461579896E+02  0.70000012507E+02 0.  0.
        -12    1    1    2    0    0  0.16823535653E+02 -0.61541618579E+00  0.82017510929E+01  0.18726420104E+02  0.00000000000E+00 0.  1.
         11    1    3    3    0    0 -0.63969067888E+01  0.77368143082E+01 -0.29234089551E+02  0.30909718605E+02  0.51100000000E-03 0. -1.
        -11    1    3    3    0    0 -0.44742435344E+01 -0.17880599454E+02  0.15279210123E+01  0.18495113812E+02  0.51100000000E-03 0.  1.
        -12    1    3    3    0    0 -0.59523853295E+01  0.10759201332E+02  0.19504417445E+02  0.23056747479E+02  0.00000000000E+00 0.  1.
</event>
<event>
 7    1  0.3508738E-013  0.7246149E+02  0.7816164E-02  0.1226708E+00
        -11   -1    0    0    0    0  0.00000000000E+00  0.00000000000E+00  0.45593999997E+02  0.45594000000E+02  0.51100000000E-03 0.  1.
         11   -1    0    0    0    0 -0.00000000000E+00 -0.00000000000E+00 -0.45593999997E+02  0.45594000000E+02  0.51100000000E-03 0. -1.
    9900012    2    1    2    0    0  0.16289174478E+02 -0.39974559208E+01 -0.83285946196E+01  0.72461485446E+02  0.69999889469E+02 0.  0.
        -12    1    1    2    0    0 -0.16289174478E+02  0.39974559208E+01  0.83285946196E+01  0.18726514554E+02  0.00000000000E+00 0.  1.
         11    1    3    3    0    0  0.32522361235E+00  0.10370173232E+02 -0.74821320192E+01  0.12791738079E+02  0.51100000000E-03 0.  1.
        -11    1    3    3    0    0  0.14369828012E+02 -0.33698587685E+02 -0.10352285283E+02  0.38069102694E+02  0.51100000000E-03 0. -1.
         12    1    3    3    0    0  0.15941228535E+01  0.19330958533E+02  0.95058226823E+01  0.21600644674E+02  0.00000000000E+00 0. -1.
</event>
<event>
 7    1  0.3508738E-013  0.7246172E+02  0.7816164E-02  0.1226708E+00
        -11   -1    0    0    0    0  0.00000000000E+00  0.00000000000E+00  0.45593999997E+02  0.45594000000E+02  0.51100000000E-03 0.  1.
         11   -1    0    0    0    0 -0.00000000000E+00 -0.00000000000E+00 -0.45593999997E+02  0.45594000000E+02  0.51100000000E-03 0. -1.
    9900012    2    1    2    0    0 -0.95823240480E+01 -0.15565186203E+02 -0.40715728189E+01  0.72461717376E+02  0.70000191601E+02 0.  0.
        -12    1    1    2    0    0  0.95823240480E+01  0.15565186203E+02  0.40715728189E+01  0.18726282624E+02  0.00000000000E+00 0.  1.
         11    1    3    3    0    0  0.10329292281E+02  0.92161096080E+01  0.12124178067E+02  0.18401811036E+02  0.51100000000E-03 0. -1.
        -11    1    3    3    0    0 -0.89592059482E+01  0.96339771661E+01  0.25004958559E+01  0.13391540876E+02  0.51100000000E-03 0.  1.
         12    1    3    3    0    0 -0.10952410381E+02 -0.34415272977E+02 -0.18696246741E+02  0.40668365464E+02  0.00000000000E+00 0. -1.
</event>
<event>
 7    1  0.3508738E-013  0.7246151E+02  0.7816164E-02  0.1226708E+00
        -11   -1    0    0    0    0  0.00000000000E+00  0.00000000000E+00  0.45593999997E+02  0.45594000000E+02  0.51100000000E-03 0.  1.
         11   -1    0    0    0    0 -0.00000000000E+00 -0.00000000000E+00 -0.45593999997E+02  0.45594000000E+02  0.51100000000E-03 0. -1.
    9900012    2    1    2    0    0 -0.71241628148E+01  0.97658593493E+01 -0.14302299336E+02  0.72461508846E+02  0.69999919952E+02 0.  0.
        -12    1    1    2    0    0  0.71241628148E+01 -0.97658593493E+01  0.14302299336E+02  0.18726491154E+02  0.00000000000E+00 0.  1.
         11    1    3    3    0    0 -0.27679533529E+02 -0.52673669270E+01  0.11095727893E+02  0.30282287041E+02  0.51100000000E-03 0. -1.
        -11    1    3    3    0    0 -0.35448535788E+01 -0.13832795810E+01 -0.61737697815E+01  0.72522329575E+01  0.51100000000E-03 0.  1.
        -12    1    3    3    0    0  0.24100224293E+02  0.16416505857E+02 -0.19224257447E+02  0.34926988847E+02  0.00000000000E+00 0.  1.
</event>
<event>
 7    1  0.3508738E-013  0.7246159E+02  0.7816164E-02  0.1226708E+00
        -11   -1    0    0    0    0  0.00000000000E+00  0.00000000000E+00  0.45593999997E+02  0.45594000000E+02  0.51100000000E-03 0.  1.
         11   -1    0    0    0    0 -0.00000000000E+00 -0.00000000000E+00 -0.45593999997E+02  0.45594000000E+02  0.51100000000E-03 0. -1.
    9900012    2    1    2    0    0 -0.89099607402E+01  0.15745313200E+02 -0.48348887038E+01  0.72461589855E+02  0.70000025481E+02 0.  0.
        -12    1    1    2    0    0  0.89099607402E+01 -0.15745313200E+02  0.48348887038E+01  0.18726410145E+02  0.00000000000E+00 0.  1.
         11    1    3    3    0    0 -0.16003745703E+02 -0.87704192230E+01 -0.26174701336E+02  0.31908543060E+02  0.51100000000E-03 0. -1.
        -11    1    3    3    0    0  0.16065186551E+01 -0.45264796835E+01  0.18375421964E+01  0.51426143254E+01  0.51100000000E-03 0.  1.
        -12    1    3    3    0    0  0.54872663075E+01  0.29042212106E+02  0.19502270436E+02  0.35410432470E+02  0.00000000000E+00 0.  1.
</event>
<event>
 7    1  0.3508738E-013  0.7246154E+02  0.7816164E-02  0.1226708E+00
        -11   -1    0    0    0    0  0.00000000000E+00  0.00000000000E+00  0.45593999997E+02  0.45594000000E+02  0.51100000000E-03 0.  1.
         11   -1    0    0    0    0 -0.00000000000E+00 -0.00000000000E+00 -0.45593999997E+02  0.45594000000E+02  0.51100000000E-03 0. -1.
    9900012    2    1    2    0    0  0.11971884302E+02  0.78514833046E+01 -0.12070983122E+02  0.72461536443E+02  0.69999955902E+02 0.  0.
        -12    1    1    2    0    0 -0.11971884302E+02 -0.78514833046E+01  0.12070983122E+02  0.18726463557E+02  0.00000000000E+00 0.  1.
         11    1    3    3    0    0  0.33580842712E+02  0.23118411172E+01 -0.29846442085E+01  0.33792391272E+02  0.51100000000E-03 0. -1.
        -11    1    3    3    0    0  0.50007999842E+01 -0.33722630470E+01  0.44665538357E+01  0.75053488905E+01  0.51100000000E-03 0.  1.
        -12    1    3    3    0    0 -0.26609758394E+02  0.89119052345E+01 -0.13552892750E+02  0.31163796280E+02  0.00000000000E+00 0.  1.
</event>
<event>
 7    1  0.3508738E-013  0.7246159E+02  0.7816164E-02  0.1226708E+00
        -11   -1    0    0    0    0  0.00000000000E+00  0.00000000000E+00  0.45593999997E+02  0.45594000000E+02  0.51100000000E-03 0. -1.
         11   -1    0    0    0    0 -0.00000000000E+00 -0.00000000000E+00 -0.45593999997E+02  0.45594000000E+02  0.51100000000E-03 0.  1.
    9900012    2    1    2    0    0 -0.60755579392E+01 -0.12916860130E+02  0.12121082380E+02  0.72461593031E+02  0.70000029619E+02 0.  0.
        -12    1    1    2    0    0  0.60755579392E+01  0.12916860130E+02 -0.12121082380E+02  0.18726406969E+02  0.00000000000E+00 0.  1.
         11    1    3    3    0    0  0.18205547924E+00 -0.51010263596E+01  0.12086719196E+02  0.13120304695E+02  0.51100000000E-03 0. -1.
        -11    1    3    3    0    0  0.10443943504E+02 -0.15521382709E+02  0.23173302518E+02  0.29782397938E+02  0.51100000000E-03 0.  1.
         12    1    3    3    0    0 -0.16701556923E+02  0.77055489383E+01 -0.23138939333E+02  0.29558890398E+02  0.00000000000E+00 0. -1.
</event>
<event>
 7    1  0.3508738E-013  0.7246157E+02  0.7816164E-02  0.1226708E+00
        -11   -1    0    0    0    0  0.00000000000E+00  0.00000000000E+00  0.45593999997E+02  0.45594000000E+02  0.51100000000E-03 0.  1.
         11   -1    0    0    0    0 -0.00000000000E+00 -0.00000000000E+00 -0.45593999997E+02  0.45594000000E+02  0.51100000000E-03 0. -1.
    9900012    2    1    2    0    0  0.70182812659E+00 -0.14207511124E+02 -0.12179213147E+02  0.72461570337E+02  0.70000000056E+02 0.  0.
        -12    1    1    2    0    0 -0.70182812659E+00  0.14207511124E+02  0.12179213147E+02  0.18726429663E+02  0.00000000000E+00 0.  1.
         11    1    3    3    0    0  0.54557431510E+01 -0.16287025949E+02 -0.88565086271E+01  0.19325374328E+02  0.51100000000E-03 0. -1.
        -11    1    3    3    0    0 -0.13780195575E+02 -0.22757204141E+02 -0.14396964500E+01  0.26643139014E+02  0.51100000000E-03 0.  1.
         12    1    3    3    0    0  0.90262805502E+01  0.24836718966E+02 -0.18830080696E+01  0.26493056995E+02  0.00000000000E+00 0. -1.
</event>
<event>
 7    1  0.3508738E-013  0.7246158E+02  0.7816164E-02  0.1226708E+00
        -11   -1    0    0    0    0  0.00000000000E+00  0.00000000000E+00  0.45593999997E+02  0.45594000000E+02  0.51100000000E-03 0.  1.
         11   -1    0    0    0    0 -0.00000000000E+00 -0.00000000000E+00 -0.45593999997E+02  0.45594000000E+02  0.51100000000E-03 0. -1.
    9900012    2    1    2    0    0 -0.23230619904E+01  0.16476125143E+02 -0.85918178015E+01  0.72461584169E+02  0.70000018074E+02 0.  0.
        -12    1    1    2    0    0  0.23230619904E+01 -0.16476125143E+02  0.85918178015E+01  0.18726415831E+02  0.00000000000E+00 0.  1.
         11    1    3    3    0    0  0.19913510137E+02 -0.94375341602E+01 -0.90204646554E-01  0.22036857175E+02  0.51100000000E-03 0. -1.
        -11    1    3    3    0    0  0.80226861749E+01  0.94568129484E+01  0.50764839979E+01  0.13400205023E+02  0.51100000000E-03 0.  1.
        -12    1    3    3    0    0 -0.30259258302E+02  0.16456846355E+02 -0.13578097153E+02  0.37024521972E+02  0.00000000000E+00 0.  1.
</event>
<event>
 7    1  0.3508738E-013  0.7246158E+02  0.7816164E-02  0.1226708E+00
        -11   -1    0    0    0    0  0.00000000000E+00  0.00000000000E+00  0.45593999997E+02  0.45594000000E+02  0.51100000000E-03 0.  1.
         11   -1    0    0    0    0 -0.00000000000E+00 -0.00000000000E+00 -0.45593999997E+02  0.45594000000E+02  0.51100000000E-03 0. -1.
    9900012    2    1    2    0    0 -0.12409211873E+01 -0.18684819695E+02 -0.12803242201E+00  0.72461581103E+02  0.70000014080E+02 0.  0.
        -12    1    1    2    0    0  0.12409211873E+01  0.18684819695E+02  0.12803242201E+00  0.18726418897E+02  0.00000000000E+00 0.  1.
         11    1    3    3    0    0  0.19295742266E+01 -0.46706369251E+01  0.24381594341E+00  0.50594023815E+01  0.51100000000E-03 0. -1.
        -11    1    3    3    0    0 -0.17716485258E+02 -0.30359797212E+02 -0.17826017754E+02  0.39412663522E+02  0.51100000000E-03 0.  1.
         12    1    3    3    0    0  0.14545989844E+02  0.16345614443E+02  0.17454169388E+02  0.27989515199E+02  0.00000000000E+00 0. -1.
</event>
<event>
 7    1  0.3508738E-013  0.7246146E+02  0.7816164E-02  0.1226708E+00
        -11   -1    0    0    0    0  0.00000000000E+00  0.00000000000E+00  0.45593999997E+02  0.45594000000E+02  0.51100000000E-03 0. -1.
         11   -1    0    0    0    0 -0.00000000000E+00 -0.00000000000E+00 -0.45593999997E+02  0.45594000000E+02  0.51100000000E-03 0.  1.
    9900012    2    1    2    0    0  0.38670155230E+01  0.50641523957E+01  0.17609193314E+02  0.72461464343E+02  0.69999861978E+02 0.  0.
        -12    1    1    2    0    0 -0.38670155230E+01 -0.50641523957E+01 -0.17609193314E+02  0.18726535657E+02  0.00000000000E+00 0.  1.
         11    1    3    3    0    0 -0.11118168872E+02 -0.13470217152E+02  0.22056062460E+02  0.28134148657E+02  0.51100000000E-03 0. -1.
        -11    1    3    3    0    0  0.18649347481E+02 -0.46273689887E+01 -0.76064329557E+01  0.20665636399E+02  0.51100000000E-03 0.  1.
         12    1    3    3    0    0 -0.36641630861E+01  0.23161738537E+02  0.31595638105E+01  0.23661679286E+02  0.00000000000E+00 0. -1.
</event>
<event>
 7    1  0.3508738E-013  0.7246158E+02  0.7816164E-02  0.1226708E+00
        -11   -1    0    0    0    0  0.00000000000E+00  0.00000000000E+00  0.45593999997E+02  0.45594000000E+02  0.51100000000E-03 0. -1.
         11   -1    0    0    0    0 -0.00000000000E+00 -0.00000000000E+00 -0.45593999997E+02  0.45594000000E+02  0.51100000000E-03 0.  1.
    9900012    2    1    2    0    0 -0.10826258067E+02 -0.11344308891E+02  0.10236094479E+02  0.72461579142E+02  0.70000011526E+02 0.  0.
        -12    1    1    2    0    0  0.10826258067E+02  0.11344308891E+02 -0.10236094479E+02  0.18726420858E+02  0.00000000000E+00 0.  1.
         11    1    3    3    0    0 -0.20793464940E+02  0.26559912631E+01  0.14775965321E+02  0.25646668891E+02  0.51100000000E-03 0. -1.
        -11    1    3    3    0    0 -0.12421303023E+02 -0.12040545546E+02 -0.14172520757E+02  0.22363448989E+02  0.51100000000E-03 0.  1.
        -12    1    3    3    0    0  0.22388509895E+02 -0.19597546083E+01  0.96326499145E+01  0.24451461262E+02  0.00000000000E+00 0.  1.
</event>
<event>
 7    1  0.3508738E-013  0.7246156E+02  0.7816164E-02  0.1226708E+00
        -11   -1    0    0    0    0  0.00000000000E+00  0.00000000000E+00  0.45593999997E+02  0.45594000000E+02  0.51100000000E-03 0.  1.
         11   -1    0    0    0    0 -0.00000000000E+00 -0.00000000000E+00 -0.45593999997E+02  0.45594000000E+02  0.51100000000E-03 0. -1.
    9900012    2    1    2    0    0 -0.32722238532E+01 -0.10360893576E+02 -0.15252014644E+02  0.72461561061E+02  0.69999987972E+02 0.  0.
        -12    1    1    2    0    0  0.32722238532E+01  0.10360893576E+02  0.15252014644E+02  0.18726438939E+02  0.00000000000E+00 0.  1.
         11    1    3    3    0    0 -0.83579655932E+01  0.46643590835E+01 -0.66424449262E+01  0.11650489662E+02  0.51100000000E-03 0. -1.
        -11    1    3    3    0    0 -0.10862136731E+02 -0.21487017750E+02  0.17342831969E+02  0.29672407504E+02  0.51100000000E-03 0.  1.
         12    1    3    3    0    0  0.15947878471E+02  0.64617650903E+01 -0.25952401687E+02  0.31138663894E+02  0.00000000000E+00 0. -1.
</event>
<event>
 7    1  0.3508738E-013  0.7246159E+02  0.7816164E-02  0.1226708E+00
        -11   -1    0    0    0    0  0.00000000000E+00  0.00000000000E+00  0.45593999997E+02  0.45594000000E+02  0.51100000000E-03 0.  1.
         11   -1    0    0    0    0 -0.00000000000E+00 -0.00000000000E+00 -0.45593999997E+02  0.45594000000E+02  0.51100000000E-03 0. -1.
    9900012    2    1    2    0    0 -0.86036017344E+01 -0.12023577553E+01 -0.16589484135E+02  0.72461585211E+02  0.70000019431E+02 0.  0.
        -12    1    1    2    0    0  0.86036017344E+01  0.12023577553E+01  0.16589484135E+02  0.18726414789E+02  0.00000000000E+00 0.  1.
         11    1    3    3    0    0 -0.51373503666E+01  0.43726123377E+01 -0.48314742289E+00  0.67635448649E+01  0.51100000000E-03 0. -1.
        -11    1    3    3    0    0 -0.15610835548E+02 -0.11203617049E+01  0.21120677551E+02  0.26287571537E+02  0.51100000000E-03 0.  1.
         12    1    3    3    0    0  0.12144584180E+02 -0.44546083882E+01 -0.37227014263E+02  0.39410468809E+02  0.00000000000E+00 0. -1.
</event>
<event>
 7    1  0.3508738E-013  0.7246151E+02  0.7816164E-02  0.1226708E+00
        -11   -1    0    0    0    0  0.00000000000E+00  0.00000000000E+00  0.45593999997E+02  0.45594000000E+02  0.51100000000E-03 0.  1.
         11   -1    0    0    0    0 -0.00000000000E+00 -0.00000000000E+00 -0.45593999997E+02  0.45594000000E+02  0.51100000000E-03 0. -1.
    9900012    2    1    2    0    0  0.26579293195E+01 -0.79003568213E+01 -0.16769060243E+02  0.72461505197E+02  0.69999915199E+02 0.  0.
        -12    1    1    2    0    0 -0.26579293195E+01  0.79003568213E+01  0.16769060243E+02  0.18726494803E+02  0.00000000000E+00 0.  1.
         11    1    3    3    0    0 -0.14107245181E+01 -0.13535122857E+02  0.12949957962E+01  0.13669919853E+02  0.51100000000E-03 0. -1.
        -11    1    3    3    0    0  0.16905417448E+02  0.74876664834E+01  0.14656754404E+02  0.23594040315E+02  0.51100000000E-03 0.  1.
         12    1    3    3    0    0 -0.12836763610E+02 -0.18529004481E+01 -0.32720810443E+02  0.35197545030E+02  0.00000000000E+00 0. -1.
</event>
<event>
 7    1  0.3508738E-013  0.7246159E+02  0.7816164E-02  0.1226708E+00
        -11   -1    0    0    0    0  0.00000000000E+00  0.00000000000E+00  0.45593999997E+02  0.45594000000E+02  0.51100000000E-03 0. -1.
         11   -1    0    0    0    0 -0.00000000000E+00 -0.00000000000E+00 -0.45593999997E+02  0.45594000000E+02  0.51100000000E-03 0.  1.
    9900012    2    1    2    0    0 -0.81742580341E+00  0.18440360065E+02 -0.31564654653E+01  0.72461592482E+02  0.70000028904E+02 0.  0.
        -12    1    1    2    0    0  0.81742580341E+00 -0.18440360065E+02  0.31564654653E+01  0.18726407518E+02  0.00000000000E+00 0.  1.
         11    1    3    3    0    0  0.40090516602E+01 -0.16462202903E+02 -0.12696316223E+02  0.21172460072E+02  0.51100000000E-03 0. -1.
        -11    1    3    3    0    0  0.12958637159E+02  0.68580409162E+01 -0.43494771224E+01  0.15293036119E+02  0.51100000000E-03 0.  1.
         12    1    3    3    0    0 -0.17785114623E+02  0.28044522052E+02  0.13889327880E+02  0.35996096291E+02  0.00000000000E+00 0. -1.
</event>
<event>
 7    1  0.3508738E-013  0.7246163E+02  0.7816164E-02  0.1226708E+00
        -11   -1    0    0    0    0  0.00000000000E+00  0.00000000000E+00  0.45593999997E+02  0.45594000000E+02  0.51100000000E-03 0. -1.
         11   -1    0    0    0    0 -0.00000000000E+00 -0.00000000000E+00 -0.45593999997E+02  0.45594000000E+02  0.51100000000E-03 0.  1.
    9900012    2    1    2    0    0  0.16804783298E+02 -0.26430194151E+01  0.78288312249E+01  0.72461631114E+02  0.70000079229E+02 0.  0.
        -12    1    1    2    0    0 -0.16804783298E+02  0.26430194151E+01 -0.78288312249E+01  0.18726368886E+02  0.00000000000E+00 0.  1.
         11    1    3    3    0    0  0.55415005113E+00 -0.23081201063E+02 -0.17976559746E+01  0.23157730719E+02  0.51100000000E-03 0. -1.
        -11    1    3    3    0    0  0.10628666729E+02 -0.10918711869E+02 -0.20491208597E+01  0.15374840548E+02  0.51100000000E-03 0.  1.
        -12    1    3    3    0    0  0.56219665172E+01  0.31356893517E+02  0.11675608059E+02  0.33929059847E+02  0.00000000000E+00 0.  1.
</event>
<event>
 7    1  0.3508738E-013  0.7246150E+02  0.7816164E-02  0.1226708E+00
        -11   -1    0    0    0    0  0.00000000000E+00  0.00000000000E+00  0.45593999997E+02  0.45594000000E+02  0.51100000000E-03 0.  1.
         11   -1    0    0    0    0 -0.00000000000E+00 -0.00000000000E+00 -0.45593999997E+02  0.45594000000E+02  0.51100000000E-03 0. -1.
    9900012    2    1    2    0    0  0.14445718148E+02  0.10120356313E+02 -0.62913653380E+01  0.72461503731E+02  0.69999913288E+02 0.  0.
        -12    1    1    2    0    0 -0.14445718148E+02 -0.10120356313E+02  0.62913653380E+01  0.18726496269E+02  0.00000000000E+00 0.  1.
         11    1    3    3    0    0  0.50115669374E+01  0.15198931214E+02  0.17187251001E+02  0.23484567495E+02  0.51100000000E-03 0. -1.
        -11    1    3    3    0    0 -0.13886805545E+02  0.19545969239E+01  0.14804587071E+01  0.14101616064E+02  0.51100000000E-03 0.  1.
        -12    1    3    3    0    0  0.23320956755E+02 -0.70331718253E+01 -0.24959075046E+02  0.34875320171E+02  0.00000000000E+00 0.  1.
</event>
<event>
 7    1  0.3508738E-013  0.7246156E+02  0.7816164E-02  0.1226708E+00
        -11   -1    0    0    0    0  0.00000000000E+00  0.00000000000E+00  0.45593999997E+02  0.45594000000E+02  0.51100000000E-03 0. -1.
         11   -1    0    0    0    0 -0.00000000000E+00 -0.00000000000E+00 -0.45593999997E+02  0.45594000000E+02  0.51100000000E-03 0.  1.
    9900012    2    1    2    0    0 -0.29980906685E+01 -0.18448423011E+02 -0.11604361413E+01  0.72461562237E+02  0.69999989504E+02 0.  0.
        -12    1    1    2    0    0  0.29980906685E+01  0.18448423011E+02  0.11604361413E+01  0.18726437763E+02  0.00000000000E+00 0.  1.
         11    1    3    3    0    0 -0.14401137031E+02  0.16588526012E+02  0.76838171235E+01  0.23272580194E+02  0.51100000000E-03 0. -1.
        -11    1    3    3    0    0 -0.90168326536E+01 -0.22927432274E+02 -0.40025074163E+01  0.24959777396E+02  0.51100000000E-03 0.  1.
        -12    1    3    3    0    0  0.20419879017E+02 -0.12109516749E+02 -0.48417458485E+01  0.24229204647E+02  0.00000000000E+00 0.  1.
</event>
<event>
 7    1  0.3508738E-013  0.7246163E+02  0.7816164E-02  0.1226708E+00
        -11   -1    0    0    0    0  0.00000000000E+00  0.00000000000E+00  0.45593999997E+02  0.45594000000E+02  0.51100000000E-03 0. -1.
         11   -1    0    0    0    0 -0.00000000000E+00 -0.00000000000E+00 -0.45593999997E+02  0.45594000000E+02  0.51100000000E-03 0.  1.
    9900012    2    1    2    0    0 -0.16825106781E+02 -0.48828551550E+01  0.66144048341E+01  0.72461632388E+02  0.70000080888E+02 0.  0.
        -12    1    1    2    0    0  0.16825106781E+02  0.48828551550E+01 -0.66144048341E+01  0.18726367612E+02  0.00000000000E+00 0.  1.
         11    1    3    3    0    0 -0.21981833157E-01 -0.19369537449E+02  0.39030112668E+01  0.19758870448E+02  0.51100000000E-03 0. -1.
        -11    1    3    3    0    0 -0.11498206790E+02  0.93883118430E+01 -0.22212243383E+02  0.26715780262E+02  0.51100000000E-03 0.  1.
         12    1    3    3    0    0 -0.53049181575E+01  0.50983704507E+01  0.24923636950E+02  0.25986981678E+02  0.00000000000E+00 0. -1.
</event>
<event>
 7    1  0.3508738E-013  0.7246157E+02  0.7816164E-02  0.1226708E+00
        -11   -1    0    0    0    0  0.00000000000E+00  0.00000000000E+00  0.45593999997E+02  0.45594000000E+02  0.51100000000E-03 0.  1.
         11   -1    0    0    0    0 -0.00000000000E+00 -0.00000000000E+00 -0.45593999997E+02  0.45594000000E+02  0.51100000000E-03 0. -1.
    9900012    2    1    2    0    0 -0.80915838367E+01  0.11087501834E+02 -0.12738629346E+02  0.72461572057E+02  0.70000002296E+02 0.  0.
        -12    1    1    2    0    0  0.80915838367E+01 -0.11087501834E+02  0.12738629346E+02  0.18726427943E+02  0.00000000000E+00 0.  1.
         11    1    3    3    0    0  0.16435564978E+01 -0.54431221061E+01  0.12134054099E+02  0.13400153931E+02  0.51100000000E-03 0. -1.
        -11    1    3    3    0    0 -0.38344879670E+01  0.95774536478E+01  0.14974373669E+02  0.18184135486E+02  0.51100000000E-03 0.  1.
         12    1    3    3    0    0 -0.59006523675E+01  0.69531702920E+01 -0.39847057113E+02  0.40877282640E+02  0.00000000000E+00 0. -1.
</event>
<event>
 7    1  0.3508738E-013  0.7246159E+02  0.7816164E-02  0.1226708E+00
        -11   -1    0    0    0    0  0.00000000000E+00  0.00000000000E+00  0.45593999997E+02  0.45594000000E+02  0.51100000000E-03 0.  1.
         11   -1    0    0    0    0 -0.00000000000E+00 -0.00000000000E+00 -0.45593999997E+02  0.45594000000E+02  0.51100000000E-03 0. -1.
    9900012    2    1    2    0    0  0.27014973211E+01  0.68716860381E+01 -0.17209305130E+02  0.72461592447E+02  0.70000028858E+02 0.  0.
        -12    1    1    2    0    0 -0.27014973211E+01 -0.68716860381E+01  0.17209305130E+02  0.18726407553E+02  0.00000000000E+00 0.  1.
         11    1    3    3    0    0  0.22152432016E+01  0.23950657263E+02 -0.18245209999E+02  0.30189881980E+02  0.51100000000E-03 0. -1.
        -11    1    3    3    0    0 -0.88022967210E+01  0.94943094126E+01 -0.42564606348E+01  0.13628638824E+02  0.51100000000E-03 0.  1.
        -12    1    3    3    0    0  0.92885508406E+01 -0.26573280638E+02  0.52923655039E+01  0.28643071644E+02  0.00000000000E+00 0.  1.
</event>
<event>
 7    1  0.3508738E-013  0.7246165E+02  0.7816164E-02  0.1226708E+00
        -11   -1    0    0    0    0  0.00000000000E+00  0.00000000000E+00  0.45593999997E+02  0.45594000000E+02  0.51100000000E-03 0.  1.
         11   -1    0    0    0    0 -0.00000000000E+00 -0.00000000000E+00 -0.45593999997E+02  0.45594000000E+02  0.51100000000E-03 0. -1.
    9900012    2    1    2    0    0 -0.17134197681E+02 -0.56452425088E+01 -0.50226278091E+01  0.72461647358E+02  0.70000100390E+02 0.  0.
        -12    1    1    2    0    0  0.17134197681E+02  0.56452425088E+01  0.50226278091E+01  0.18726352642E+02  0.00000000000E+00 0.  1.
         11    1    3    3    0    0 -0.48678017236E+01 -0.14833516931E+02 -0.21549936279E+02  0.26610683420E+02  0.51100000000E-03 0. -1.
        -11    1    3    3    0    0  0.50613323686E+01  0.20180060538E+02  0.24109622982E+01  0.20944323053E+02  0.51100000000E-03 0.  1.
         12    1    3    3    0    0 -0.17327728326E+02 -0.10991786116E+02  0.14116346172E+02  0.24906640886E+02  0.00000000000E+00 0. -1.
</event>
<event>
 7    1  0.3508738E-013  0.7246158E+02  0.7816164E-02  0.1226708E+00
        -11   -1    0    0    0    0  0.00000000000E+00  0.00000000000E+00  0.45593999997E+02  0.45594000000E+02  0.51100000000E-03 0.  1.
         11   -1    0    0    0    0 -0.00000000000E+00 -0.00000000000E+00 -0.45593999997E+02  0.45594000000E+02  0.51100000000E-03 0. -1.
    9900012    2    1    2    0    0  0.13684827229E+02 -0.75472658328E+01 -0.10317118406E+02  0.72461584165E+02  0.70000018069E+02 0.  0.
        -12    1    1    2    0    0 -0.13684827229E+02  0.75472658328E+01  0.10317118406E+02  0.18726415835E+02  0.00000000000E+00 0.  1.
         11    1    3    3    0    0  0.89117529170E+01 -0.33912040080E+01 -0.46114924587E+01  0.10591764142E+02  0.51100000000E-03 0. -1.
        -11    1    3    3    0    0 -0.11969774163E+02 -0.23824957094E+02 -0.19076383322E+02  0.32784332767E+02  0.51100000000E-03 0.  1.
         12    1    3    3    0    0  0.16742848474E+02  0.19668895269E+02  0.13370757375E+02  0.29085487256E+02  0.00000000000E+00 0. -1.
</event>
<event>
 7    1  0.3508738E-013  0.7246154E+02  0.7816164E-02  0.1226708E+00
        -11   -1    0    0    0    0  0.00000000000E+00  0.00000000000E+00  0.45593999997E+02  0.45594000000E+02  0.51100000000E-03 0.  1.
         11   -1    0    0    0    0 -0.00000000000E+00 -0.00000000000E+00 -0.45593999997E+02  0.45594000000E+02  0.51100000000E-03 0. -1.
    9900012    2    1    2    0    0  0.80238540809E+01  0.14146754859E+02 -0.92826417417E+01  0.72461538907E+02  0.69999959113E+02 0.  0.
        -12    1    1    2    0    0 -0.80238540809E+01 -0.14146754859E+02  0.92826417417E+01  0.18726461093E+02  0.00000000000E+00 0.  1.
         11    1    3    3    0    0 -0.10362477230E+02 -0.12025871881E+01 -0.19369371245E+02  0.21999993022E+02  0.51100000000E-03 0. -1.
        -11    1    3    3    0    0 -0.10840456845E+02  0.58508268297E+01 -0.81082825246E+01  0.14747607432E+02  0.51100000000E-03 0.  1.
         12    1    3    3    0    0  0.29226788156E+02  0.94985152173E+01  0.18195012028E+02  0.35713938454E+02  0.00000000000E+00 0. -1.
</event>
<event>
 7    1  0.3508738E-013  0.7246159E+02  0.7816164E-02  0.1226708E+00
        -11   -1    0    0    0    0  0.00000000000E+00  0.00000000000E+00  0.45593999997E+02  0.45594000000E+02  0.51100000000E-03 0. -1.
         11   -1    0    0    0    0 -0.00000000000E+00 -0.00000000000E+00 -0.45593999997E+02  0.45594000000E+02  0.51100000000E-03 0.  1.
    9900012    2    1    2    0    0 -0.42480139023E+01 -0.35336353523E+01 -0.17892627026E+02  0.72461593436E+02  0.70000030146E+02 0.  0.
        -12    1    1    2    0    0  0.42480139023E+01  0.35336353523E+01  0.17892627026E+02  0.18726406564E+02  0.00000000000E+00 0.  1.
         11    1    3    3    0    0  0.12215299970E+02 -0.16522134407E+01 -0.17612039719E+01  0.12451714834E+02  0.51100000000E-03 0. -1.
        -11    1    3    3    0    0 -0.61973013253E+01 -0.23389216084E+02  0.85858494478E+01  0.25674477283E+02  0.51100000000E-03 0.  1.
         12    1    3    3    0    0 -0.10266012547E+02  0.21507794172E+02 -0.24717272502E+02  0.34335401319E+02  0.00000000000E+00 0. -1.
</event>
<event>
 7    1  0.3508738E-013  0.7246153E+02  0.7816164E-02  0.1226708E+00
        -11   -1    0    0    0    0  0.00000000000E+00  0.00000000000E+00  0.45593999997E+02  0.45594000000E+02  0.51100000000E-03 0.  1.
         11   -1    0    0    0    0 -0.00000000000E+00 -0.00000000000E+00 -0.45593999997E+02  0.45594000000E+02  0.51100000000E-03 0. -1.
    9900012    2    1    2    0    0  0.14064296847E+02 -0.12835744679E+01 -0.12297510355E+02  0.72461527557E+02  0.69999944327E+02 0.  0.
        -12    1    1    2    0    0 -0.14064296847E+02  0.12835744679E+01  0.12297510355E+02  0.18726472443E+02  0.00000000000E+00 0.  1.
         11    1    3    3    0    0 -0.15680368535E+02 -0.15469356202E+02 -0.33091052067E+01  0.22273866216E+02  0.51100000000E-03 0. -1.
        -11    1    3    3    0    0  0.20864843775E+01 -0.41778946360E+01 -0.15645353765E+02  0.16327440563E+02  0.51100000000E-03 0.  1.
        -12    1    3    3    0    0  0.27658181004E+02  0.18363676370E+02  0.66569486163E+01  0.33860220778E+02  0.00000000000E+00 0.  1.
</event>
<event>
 7    1  0.3508738E-013  0.7246154E+02  0.7816164E-02  0.1226708E+00
        -11   -1    0    0    0    0  0.00000000000E+00  0.00000000000E+00  0.45593999997E+02  0.45594000000E+02  0.51100000000E-03 0. -1.
         11   -1    0    0    0    0 -0.00000000000E+00 -0.00000000000E+00 -0.45593999997E+02  0.45594000000E+02  0.51100000000E-03 0.  1.
    9900012    2    1    2    0    0 -0.81410180223E+00  0.15679085867E+02  0.10207050650E+02  0.72461538019E+02  0.69999957955E+02 0.  0.
        -12    1    1    2    0    0  0.81410180223E+00 -0.15679085867E+02 -0.10207050650E+02  0.18726461981E+02  0.00000000000E+00 0.  1.
         11    1    3    3    0    0  0.12411586662E+02 -0.30925964446E+01  0.10216005445E+02  0.16370045930E+02  0.51100000000E-03 0. -1.
        -11    1    3    3    0    0  0.15301482572E+00  0.30992243443E+02  0.13181202488E+02  0.33679172591E+02  0.51100000000E-03 0.  1.
        -12    1    3    3    0    0 -0.13378703290E+02 -0.12220561131E+02 -0.13190157283E+02  0.22412319497E+02  0.00000000000E+00 0.  1.
</event>
<event>
 7    1  0.3508738E-013  0.7246158E+02  0.7816164E-02  0.1226708E+00
        -11   -1    0    0    0    0  0.00000000000E+00  0.00000000000E+00  0.45593999997E+02  0.45594000000E+02  0.51100000000E-03 0.  1.
         11   -1    0    0    0    0 -0.00000000000E+00 -0.00000000000E+00 -0.45593999997E+02  0.45594000000E+02  0.51100000000E-03 0. -1.
    9900012    2    1    2    0    0  0.16306982842E+02  0.67738177000E+01  0.62350942167E+01  0.72461582950E+02  0.70000016486E+02 0.  0.
        -12    1    1    2    0    0 -0.16306982842E+02 -0.67738177000E+01 -0.62350942167E+01  0.18726417050E+02  0.00000000000E+00 0.  1.
         11    1    3    3    0    0  0.11803709350E+02 -0.71493735595E+00  0.92771040421E+01  0.15030081487E+02  0.51100000000E-03 0.  1.
        -11    1    3    3    0    0  0.27843401742E+02  0.15553061118E+02 -0.63440663544E+01  0.32517686093E+02  0.51100000000E-03 0. -1.
         12    1    3    3    0    0 -0.23340128250E+02 -0.80643060617E+01  0.33020565290E+01  0.24913815370E+02  0.00000000000E+00 0. -1.
</event>
<event>
 7    1  0.4033421E-013  0.7246166E+02  0.7816164E-02  0.1226708E+00
        -11   -1    0    0    0    0  0.00000000000E+00  0.00000000000E+00  0.45593999997E+02  0.45594000000E+02  0.51100000000E-03 0.  1.
         11   -1    0    0    0    0 -0.00000000000E+00 -0.00000000000E+00 -0.45593999997E+02  0.45594000000E+02  0.51100000000E-03 0. -1.
    9900012    2    1    2    0    0  0.16169331216E+02  0.77735756493E+01  0.53665541277E+01  0.72461664172E+02  0.70000122293E+02 0.  0.
        -12    1    1    2    0    0 -0.16169331216E+02 -0.77735756493E+01 -0.53665541277E+01  0.18726335828E+02  0.00000000000E+00 0.  1.
         11    1    3    3    0    0  0.35023022480E+02  0.92296897774E+01 -0.75523332614E+01  0.36997797434E+02  0.51100000000E-03 0. -1.
        -11    1    3    3    0    0  0.70069124117E+01  0.58864134107E+00  0.35994673338E+01  0.78993344987E+01  0.51100000000E-03 0.  1.
        -12    1    3    3    0    0 -0.25860603676E+02 -0.20447554691E+01  0.93194200552E+01  0.27564532239E+02  0.00000000000E+00 0.  1.
</event>
<event>
 7    1  0.3508738E-013  0.7246174E+02  0.7816164E-02  0.1226708E+00
        -11   -1    0    0    0    0  0.00000000000E+00  0.00000000000E+00  0.45593999997E+02  0.45594000000E+02  0.51100000000E-03 0. -1.
         11   -1    0    0    0    0 -0.00000000000E+00 -0.00000000000E+00 -0.45593999997E+02  0.45594000000E+02  0.51100000000E-03 0.  1.
    9900012    2    1    2    0    0  0.16670593805E+02 -0.46298172969E+01  0.71644258629E+01  0.72461737587E+02  0.70000217929E+02 0.  0.
        -12    1    1    2    0    0 -0.16670593805E+02  0.46298172969E+01 -0.71644258629E+01  0.18726262413E+02  0.00000000000E+00 0.  1.
         11    1    3    3    0    0  0.11338754404E+02 -0.10253632037E+02  0.16533551539E+02  0.22518051606E+02  0.51100000000E-03 0. -1.
        -11    1    3    3    0    0  0.25716433961E+02  0.74867213846E+01  0.13874513291E+01  0.26819973792E+02  0.51100000000E-03 0.  1.
        -12    1    3    3    0    0 -0.20384594560E+02 -0.18629066449E+01 -0.10756577005E+02  0.23123712189E+02  0.00000000000E+00 0.  1.
</event>
<event>
 7    1  0.3508738E-013  0.7246158E+02  0.7816164E-02  0.1226708E+00
        -11   -1    0    0    0    0  0.00000000000E+00  0.00000000000E+00  0.45593999997E+02  0.45594000000E+02  0.51100000000E-03 0.  1.
         11   -1    0    0    0    0 -0.00000000000E+00 -0.00000000000E+00 -0.45593999997E+02  0.45594000000E+02  0.51100000000E-03 0. -1.
    9900012    2    1    2    0    0  0.10336189084E+02 -0.60415714129E+01  0.14399354094E+02  0.72461580474E+02  0.70000013261E+02 0.  0.
        -12    1    1    2    0    0 -0.10336189084E+02  0.60415714129E+01 -0.14399354094E+02  0.18726419526E+02  0.00000000000E+00 0.  1.
         11    1    3    3    0    0  0.13070030391E+02  0.23127599288E+02  0.12087211833E+02  0.29185822473E+02  0.51100000000E-03 0. -1.
        -11    1    3    3    0    0  0.48633926846E+00  0.63431183654E+01 -0.33196370299E+01  0.71757694189E+01  0.51100000000E-03 0.  1.
        -12    1    3    3    0    0 -0.32201805746E+01 -0.35512289067E+02  0.56317792908E+01  0.36099988583E+02  0.00000000000E+00 0.  1.
</event>
<event>
 7    1  0.3508738E-013  0.7246155E+02  0.7816164E-02  0.1226708E+00
        -11   -1    0    0    0    0  0.00000000000E+00  0.00000000000E+00  0.45593999997E+02  0.45594000000E+02  0.51100000000E-03 0. -1.
         11   -1    0    0    0    0 -0.00000000000E+00 -0.00000000000E+00 -0.45593999997E+02  0.45594000000E+02  0.51100000000E-03 0.  1.
    9900012    2    1    2    0    0  0.65913745474E+01  0.12296410690E+02  0.12491284246E+02  0.72461545012E+02  0.69999967066E+02 0.  0.
        -12    1    1    2    0    0 -0.65913745474E+01 -0.12296410690E+02 -0.12491284246E+02  0.18726454988E+02  0.00000000000E+00 0.  1.
         11    1    3    3    0    0 -0.28515753127E+01  0.22277819259E+01  0.31986979140E+01  0.48297166252E+01  0.51100000000E-03 0. -1.
        -11    1    3    3    0    0 -0.75739513402E+01  0.33956631326E+02 -0.47504155755E+01  0.35113871879E+02  0.51100000000E-03 0.  1.
         12    1    3    3    0    0  0.17016901200E+02 -0.23888002562E+02  0.14043001908E+02  0.32517956508E+02  0.00000000000E+00 0. -1.
</event>
<event>
 7    1  0.3508738E-013  0.7246161E+02  0.7816164E-02  0.1226708E+00
        -11   -1    0    0    0    0  0.00000000000E+00  0.00000000000E+00  0.45593999997E+02  0.45594000000E+02  0.51100000000E-03 0.  1.
         11   -1    0    0    0    0 -0.00000000000E+00 -0.00000000000E+00 -0.45593999997E+02  0.45594000000E+02  0.51100000000E-03 0. -1.
    9900012    2    1    2    0    0  0.82137762855E+01  0.16826760351E+02  0.26763968525E+00  0.72461611780E+02  0.70000054043E+02 0.  0.
        -12    1    1    2    0    0 -0.82137762855E+01 -0.16826760351E+02 -0.26763968525E+00  0.18726388220E+02  0.00000000000E+00 0.  1.
         11    1    3    3    0    0  0.31629802875E+02  0.25162563686E+01  0.19457732948E+01  0.31789337993E+02  0.51100000000E-03 0. -1.
        -11    1    3    3    0    0 -0.34255248060E+01  0.57981865122E+01 -0.14113522527E+02  0.15637925227E+02  0.51100000000E-03 0.  1.
        -12    1    3    3    0    0 -0.19990501784E+02  0.85123174699E+01  0.12435388918E+02  0.25034348560E+02  0.00000000000E+00 0.  1.
</event>
<event>
 7    1  0.3508738E-013  0.7246151E+02  0.7816164E-02  0.1226708E+00
        -11   -1    0    0    0    0  0.00000000000E+00  0.00000000000E+00  0.45593999997E+02  0.45594000000E+02  0.51100000000E-03 0.  1.
         11   -1    0    0    0    0 -0.00000000000E+00 -0.00000000000E+00 -0.45593999997E+02  0.45594000000E+02  0.51100000000E-03 0. -1.
    9900012    2    1    2    0    0  0.18606678658E+02  0.94875309848E+00 -0.18902055041E+01  0.72461508070E+02  0.69999918942E+02 0.  0.
        -12    1    1    2    0    0 -0.18606678658E+02 -0.94875309848E+00  0.18902055041E+01  0.18726491930E+02  0.00000000000E+00 0.  1.
         11    1    3    3    0    0  0.30791055358E+01 -0.15010123519E+02  0.44158059043E-01  0.15322749399E+02  0.51100000000E-03 0. -1.
        -11    1    3    3    0    0 -0.14338028245E+02  0.11695455170E+02  0.13829435009E+02  0.23100129837E+02  0.51100000000E-03 0.  1.
         12    1    3    3    0    0  0.29865601367E+02  0.42634214471E+01 -0.15763798572E+02  0.34038628834E+02  0.00000000000E+00 0. -1.
</event>
<event>
 7    1  0.3508738E-013  0.7246144E+02  0.7816164E-02  0.1226708E+00
        -11   -1    0    0    0    0  0.00000000000E+00  0.00000000000E+00  0.45593999997E+02  0.45594000000E+02  0.51100000000E-03 0.  1.
         11   -1    0    0    0    0 -0.00000000000E+00 -0.00000000000E+00 -0.45593999997E+02  0.45594000000E+02  0.51100000000E-03 0. -1.
    9900012    2    1    2    0    0  0.18057005952E+02  0.42124114919E+01 -0.26237706902E+01  0.72461440060E+02  0.69999830346E+02 0.  0.
        -12    1    1    2    0    0 -0.18057005952E+02 -0.42124114919E+01  0.26237706902E+01  0.18726559940E+02  0.00000000000E+00 0.  1.
         11    1    3    3    0    0  0.77135507345E+00 -0.12198115180E+02 -0.15978870446E+02  0.20117487507E+02  0.51100000000E-03 0. -1.
        -11    1    3    3    0    0 -0.35667114693E+01 -0.30656412991E+01 -0.12800160199E+02  0.13636850394E+02  0.51100000000E-03 0.  1.
        -12    1    3    3    0    0  0.20852362348E+02  0.19476167971E+02  0.26155259955E+02  0.38707102160E+02  0.00000000000E+00 0.  1.
</event>
<event>
 7    1  0.3508738E-013  0.7246160E+02  0.7816164E-02  0.1226708E+00
        -11   -1    0    0    0    0  0.00000000000E+00  0.00000000000E+00  0.45593999997E+02  0.45594000000E+02  0.51100000000E-03 0.  1.
         11   -1    0    0    0    0 -0.00000000000E+00 -0.00000000000E+00 -0.45593999997E+02  0.45594000000E+02  0.51100000000E-03 0. -1.
    9900012    2    1    2    0    0 -0.58722977155E+01  0.15282806907E+02  0.90901108885E+01  0.72461596624E+02  0.70000034300E+02 0.  0.
        -12    1    1    2    0    0  0.58722977155E+01 -0.15282806907E+02 -0.90901108885E+01  0.18726403376E+02  0.00000000000E+00 0.  1.
         11    1    3    3    0    0 -0.10583517084E+02  0.26070951184E+02 -0.45810563643E+01  0.28507742934E+02  0.51100000000E-03 0. -1.
        -11    1    3    3    0    0 -0.15433877599E+02 -0.14053258927E+02  0.35470077759E+01  0.21172622148E+02  0.51100000000E-03 0.  1.
         12    1    3    3    0    0  0.20145096967E+02  0.32651146502E+01  0.10124159477E+02  0.22781231543E+02  0.00000000000E+00 0. -1.
</event>
<event>
 7    1  0.3508738E-013  0.7246149E+02  0.7816164E-02  0.1226708E+00
        -11   -1    0    0    0    0  0.00000000000E+00  0.00000000000E+00  0.45593999997E+02  0.45594000000E+02  0.51100000000E-03 0.  1.
         11   -1    0    0    0    0 -0.00000000000E+00 -0.00000000000E+00 -0.45593999997E+02  0.45594000000E+02  0.51100000000E-03 0. -1.
    9900012    2    1    2    0    0 -0.13986397760E+02  0.11676270892E+02  0.43275312721E+01  0.72461490685E+02  0.69999896294E+02 0.  0.
        -12    1    1    2    0    0  0.13986397760E+02 -0.11676270892E+02 -0.43275312721E+01  0.18726509315E+02  0.00000000000E+00 0.  1.
         11    1    3    3    0    0 -0.15391573705E+02 -0.22141928185E+01 -0.76510223902E+01  0.17330358762E+02  0.51100000000E-03 0. -1.
        -11    1    3    3    0    0  0.64648941221E+01  0.81209227195E+01 -0.19844837954E+02  0.22395576249E+02  0.51100000000E-03 0.  1.
         12    1    3    3    0    0 -0.50597181773E+01  0.57695409905E+01  0.31823391617E+02  0.32735555674E+02  0.00000000000E+00 0. -1.
</event>
<event>
 7    1  0.3508738E-013  0.7246141E+02  0.7816164E-02  0.1226708E+00
        -11   -1    0    0    0    0  0.00000000000E+00  0.00000000000E+00  0.45593999997E+02  0.45594000000E+02  0.51100000000E-03 0. -1.
         11   -1    0    0    0    0 -0.00000000000E+00 -0.00000000000E+00 -0.45593999997E+02  0.45594000000E+02  0.51100000000E-03 0.  1.
    9900012    2    1    2    0    0  0.17147089309E+02 -0.62118610368E+01  0.42514824648E+01  0.72461414821E+02  0.69999797466E+02 0.  0.
        -12    1    1    2    0    0 -0.17147089309E+02  0.62118610368E+01 -0.42514824648E+01  0.18726585179E+02  0.00000000000E+00 0.  1.
         11    1    3    3    0    0  0.19874525883E+02  0.12927867174E+02 -0.22988768135E+02  0.33024384769E+02  0.51100000000E-03 0.  1.
        -11    1    3    3    0    0 -0.64467744145E+01  0.22884771824E-01  0.15178606446E+02  0.16490952609E+02  0.51100000000E-03 0. -1.
        -12    1    3    3    0    0  0.37193378406E+01 -0.19162612982E+02  0.12061644154E+02  0.22946077442E+02  0.00000000000E+00 0.  1.
</event>
<event>
 7    1  0.3508738E-013  0.7246131E+02  0.7816164E-02  0.1226709E+00
        -11   -1    0    0    0    0  0.00000000000E+00  0.00000000000E+00  0.45593999997E+02  0.45594000000E+02  0.51100000000E-03 0.  1.
         11   -1    0    0    0    0 -0.00000000000E+00 -0.00000000000E+00 -0.45593999997E+02  0.45594000000E+02  0.51100000000E-03 0. -1.
    9900012    2    1    2    0    0  0.95532609782E+01 -0.92816058852E+01 -0.13163434806E+02  0.72461307312E+02  0.69999657416E+02 0.  0.
        -12    1    1    2    0    0 -0.95532609782E+01  0.92816058852E+01  0.13163434806E+02  0.18726692688E+02  0.00000000000E+00 0.  1.
         11    1    3    3    0    0  0.33696501030E+02 -0.11264231800E+02  0.38022915452E+01  0.35732261627E+02  0.51100000000E-03 0.  1.
        -11    1    3    3    0    0  0.18089127977E+00 -0.63363349028E+01 -0.61729496338E+01  0.88480036787E+01  0.51100000000E-03 0. -1.
        -12    1    3    3    0    0 -0.24324131331E+02  0.83189608179E+01 -0.10792776718E+02  0.27881042007E+02  0.00000000000E+00 0.  1.
</event>
<event>
 7    1  0.3631138E-013  0.7246153E+02  0.7816164E-02  0.1226708E+00
        -11   -1    0    0    0    0  0.00000000000E+00  0.00000000000E+00  0.45593999997E+02  0.45594000000E+02  0.51100000000E-03 0. -1.
         11   -1    0    0    0    0 -0.00000000000E+00 -0.00000000000E+00 -0.45593999997E+02  0.45594000000E+02  0.51100000000E-03 0.  1.
    9900012    2    1    2    0    0  0.16860059653E+02  0.34588507569E+01  0.73793979668E+01  0.72461527443E+02  0.69999944178E+02 0.  0.
        -12    1    1    2    0    0 -0.16860059653E+02 -0.34588507569E+01 -0.73793979668E+01  0.18726472557E+02  0.00000000000E+00 0.  1.
         11    1    3    3    0    0  0.11881568943E+01  0.22148407983E+01  0.25892591181E+02  0.26014294434E+02  0.51100000000E-03 0. -1.
        -11    1    3    3    0    0  0.10951772333E+02 -0.66609685775E+01  0.10144491120E+02  0.16346881047E+02  0.51100000000E-03 0.  1.
        -12    1    3    3    0    0  0.47201304259E+01  0.79049785361E+01 -0.28657684334E+02  0.30100351963E+02  0.00000000000E+00 0.  1.
</event>
<event>
 7    1  0.3508738E-013  0.7246167E+02  0.7816164E-02  0.1226708E+00
        -11   -1    0    0    0    0  0.00000000000E+00  0.00000000000E+00  0.45593999997E+02  0.45594000000E+02  0.51100000000E-03 0.  1.
         11   -1    0    0    0    0 -0.00000000000E+00 -0.00000000000E+00 -0.45593999997E+02  0.45594000000E+02  0.51100000000E-03 0. -1.
    9900012    2    1    2    0    0  0.15495963520E+02  0.62513899705E+00 -0.10495701715E+02  0.72461669909E+02  0.70000129767E+02 0.  0.
        -12    1    1    2    0    0 -0.15495963520E+02 -0.62513899705E+00  0.10495701715E+02  0.18726330091E+02  0.00000000000E+00 0.  1.
         11    1    3    3    0    0 -0.14688593371E+02  0.61637018560E+01  0.26547318838E+01  0.16149105158E+02  0.51100000000E-03 0. -1.
        -11    1    3    3    0    0  0.28535654504E+02  0.12477973757E+02  0.39794508960E+01  0.31397761651E+02  0.51100000000E-03 0.  1.
         12    1    3    3    0    0  0.16489023870E+01 -0.18016536616E+02 -0.17129884494E+02  0.24914803100E+02  0.00000000000E+00 0. -1.
</event>
<event>
 7    1  0.3508738E-013  0.7246159E+02  0.7816164E-02  0.1226708E+00
        -11   -1    0    0    0    0  0.00000000000E+00  0.00000000000E+00  0.45593999997E+02  0.45594000000E+02  0.51100000000E-03 0.  1.
         11   -1    0    0    0    0 -0.00000000000E+00 -0.00000000000E+00 -0.45593999997E+02  0.45594000000E+02  0.51100000000E-03 0. -1.
    9900012    2    1    2    0    0 -0.12572525441E+02  0.13683952842E+02  0.23150145597E+01  0.72461594745E+02  0.70000031852E+02 0.  0.
        -12    1    1    2    0    0  0.12572525441E+02 -0.13683952842E+02 -0.23150145597E+01  0.18726405255E+02  0.00000000000E+00 0.  1.
         11    1    3    3    0    0 -0.54417619841E+01  0.17053417671E+02  0.34769671380E+01  0.18235161872E+02  0.51100000000E-03 0. -1.
        -11    1    3    3    0    0 -0.11279455958E+02  0.10806731477E+02  0.21863488558E+02  0.26870498769E+02  0.51100000000E-03 0.  1.
         12    1    3    3    0    0  0.41486925008E+01 -0.14176196306E+02 -0.23025441136E+02  0.27355934104E+02  0.00000000000E+00 0. -1.
</event>
<event>
 7    1  0.3508738E-013  0.7246157E+02  0.7816164E-02  0.1226708E+00
        -11   -1    0    0    0    0  0.00000000000E+00  0.00000000000E+00  0.45593999997E+02  0.45594000000E+02  0.51100000000E-03 0.  1.
         11   -1    0    0    0    0 -0.00000000000E+00 -0.00000000000E+00 -0.45593999997E+02  0.45594000000E+02  0.51100000000E-03 0. -1.
    9900012    2    1    2    0    0 -0.40577463191E+01  0.63864054411E+01 -0.17129727761E+02  0.72461573410E+02  0.70000004059E+02 0.  0.
        -12    1    1    2    0    0  0.40577463191E+01 -0.63864054411E+01  0.17129727761E+02  0.18726426590E+02  0.00000000000E+00 0.  1.
         11    1    3    3    0    0 -0.17966810466E+02 -0.11848507443E+02  0.13600781454E+02  0.25459274604E+02  0.51100000000E-03 0. -1.
        -11    1    3    3    0    0  0.26900717345E+01  0.37490141670E+01  0.50271268213E+01  0.68237524500E+01  0.51100000000E-03 0.  1.
         12    1    3    3    0    0  0.11218992412E+02  0.14485898717E+02 -0.35757636036E+02  0.40178546356E+02  0.00000000000E+00 0. -1.
</event>
<event>
 7    1  0.3508738E-013  0.7246155E+02  0.7816164E-02  0.1226708E+00
        -11   -1    0    0    0    0  0.00000000000E+00  0.00000000000E+00  0.45593999997E+02  0.45594000000E+02  0.51100000000E-03 0. -1.
         11   -1    0    0    0    0 -0.00000000000E+00 -0.00000000000E+00 -0.45593999997E+02  0.45594000000E+02  0.51100000000E-03 0.  1.
    9900012    2    1    2    0    0 -0.79719422906E+01  0.13959955493E+02  0.96045654543E+01  0.72461550822E+02  0.69999974634E+02 0.  0.
        -12    1    1    2    0    0  0.79719422906E+01 -0.13959955493E+02 -0.96045654543E+01  0.18726449178E+02  0.00000000000E+00 0.  1.
         11    1    3    3    0    0 -0.31191533545E+01  0.14566419284E+02  0.15142911851E+02  0.21241880049E+02  0.51100000000E-03 0. -1.
        -11    1    3    3    0    0 -0.22037675385E+02  0.15407511272E+02 -0.66637234809E+01  0.27702991731E+02  0.51100000000E-03 0.  1.
        -12    1    3    3    0    0  0.17184886449E+02 -0.16013975063E+02  0.11253770841E+01  0.23516679042E+02  0.00000000000E+00 0.  1.
</event>
<event>
 7    1  0.3508738E-013  0.7246161E+02  0.7816164E-02  0.1226708E+00
        -11   -1    0    0    0    0  0.00000000000E+00  0.00000000000E+00  0.45593999997E+02  0.45594000000E+02  0.51100000000E-03 0. -1.
         11   -1    0    0    0    0 -0.00000000000E+00 -0.00000000000E+00 -0.45593999997E+02  0.45594000000E+02  0.51100000000E-03 0.  1.
    9900012    2    1    2    0    0 -0.81284689687E+01  0.88739265515E+01 -0.14347786006E+02  0.72461613710E+02  0.70000056557E+02 0.  0.
        -12    1    1    2    0    0  0.81284689687E+01 -0.88739265515E+01  0.14347786006E+02  0.18726386290E+02  0.00000000000E+00 0.  1.
         11    1    3    3    0    0 -0.16326166294E+02  0.72191828340E+01 -0.14608575666E+02  0.23066659704E+02  0.51100000000E-03 0. -1.
        -11    1    3    3    0    0 -0.19756923731E+02 -0.54300523336E+01  0.13690617975E+01  0.20535233968E+02  0.51100000000E-03 0.  1.
         12    1    3    3    0    0  0.27954621057E+02  0.70847960511E+01 -0.11082721379E+01  0.28859720038E+02  0.00000000000E+00 0. -1.
</event>
<event>
 7    1  0.3508738E-013  0.7246167E+02  0.7816164E-02  0.1226708E+00
        -11   -1    0    0    0    0  0.00000000000E+00  0.00000000000E+00  0.45593999997E+02  0.45594000000E+02  0.51100000000E-03 0. -1.
         11   -1    0    0    0    0 -0.00000000000E+00 -0.00000000000E+00 -0.45593999997E+02  0.45594000000E+02  0.51100000000E-03 0.  1.
    9900012    2    1    2    0    0 -0.15372975673E+01 -0.11826893648E+02  0.14437334630E+02  0.72461672854E+02  0.70000133603E+02 0.  0.
        -12    1    1    2    0    0  0.15372975673E+01  0.11826893648E+02 -0.14437334630E+02  0.18726327146E+02  0.00000000000E+00 0.  1.
         11    1    3    3    0    0 -0.10848108503E+02 -0.11562881867E+02  0.19975864843E+02  0.25503271783E+02  0.51100000000E-03 0. -1.
        -11    1    3    3    0    0 -0.15956867133E+02  0.75209372074E+01  0.52456740908E+01  0.18403890950E+02  0.51100000000E-03 0.  1.
         12    1    3    3    0    0  0.25267678069E+02 -0.77849489885E+01 -0.10784204304E+02  0.28554510121E+02  0.00000000000E+00 0. -1.
</event>
<event>
 7    1  0.3508738E-013  0.7246153E+02  0.7816164E-02  0.1226708E+00
        -11   -1    0    0    0    0  0.00000000000E+00  0.00000000000E+00  0.45593999997E+02  0.45594000000E+02  0.51100000000E-03 0.  1.
         11   -1    0    0    0    0 -0.00000000000E+00 -0.00000000000E+00 -0.45593999997E+02  0.45594000000E+02  0.51100000000E-03 0. -1.
    9900012    2    1    2    0    0 -0.25507936206E+01 -0.18228957948E+02  0.34466512062E+01  0.72461525145E+02  0.69999941184E+02 0.  0.
        -12    1    1    2    0    0  0.25507936206E+01  0.18228957948E+02 -0.34466512062E+01  0.18726474855E+02  0.00000000000E+00 0.  1.
         11    1    3    3    0    0  0.16689887227E+02  0.13622859735E+01  0.31304483386E+01  0.17035488422E+02  0.51100000000E-03 0. -1.
        -11    1    3    3    0    0 -0.99808902683E+01 -0.35206945771E+02  0.42795072445E+01  0.36843742801E+02  0.51100000000E-03 0.  1.
         12    1    3    3    0    0 -0.92597905794E+01  0.15615701849E+02 -0.39633043770E+01  0.18582293922E+02  0.00000000000E+00 0. -1.
</event>
<event>
 7    1  0.3508738E-013  0.7246155E+02  0.7816164E-02  0.1226708E+00
        -11   -1    0    0    0    0  0.00000000000E+00  0.00000000000E+00  0.45593999997E+02  0.45594000000E+02  0.51100000000E-03 0.  1.
         11   -1    0    0    0    0 -0.00000000000E+00 -0.00000000000E+00 -0.45593999997E+02  0.45594000000E+02  0.51100000000E-03 0. -1.
    9900012    2    1    2    0    0  0.11182254788E+02  0.38832757998E+01 -0.14510589937E+02  0.72461551501E+02  0.69999975518E+02 0.  0.
        -12    1    1    2    0    0 -0.11182254788E+02 -0.38832757998E+01  0.14510589937E+02  0.18726448499E+02  0.00000000000E+00 0.  1.
         11    1    3    3    0    0 -0.10142579279E+02 -0.65072247060E+00  0.95506895080E+00  0.10208208028E+02  0.51100000000E-03 0. -1.
        -11    1    3    3    0    0 -0.54584888918E+00  0.56462181356E+01  0.19880046031E+02  0.20673508670E+02  0.51100000000E-03 0.  1.
         12    1    3    3    0    0  0.21870682956E+02 -0.11122198652E+01 -0.35345704920E+02  0.41579834803E+02  0.00000000000E+00 0. -1.
</event>
<event>
 7    1  0.3508738E-013  0.7246158E+02  0.7816164E-02  0.1226708E+00
        -11   -1    0    0    0    0  0.00000000000E+00  0.00000000000E+00  0.45593999997E+02  0.45594000000E+02  0.51100000000E-03 0.  1.
         11   -1    0    0    0    0 -0.00000000000E+00 -0.00000000000E+00 -0.45593999997E+02  0.45594000000E+02  0.51100000000E-03 0. -1.
    9900012    2    1    2    0    0  0.17088789404E+02  0.19587670910E+01  0.74037334728E+01  0.72461581198E+02  0.70000014204E+02 0.  0.
        -12    1    1    2    0    0 -0.17088789404E+02 -0.19587670910E+01 -0.74037334728E+01  0.18726418802E+02  0.00000000000E+00 0.  1.
         11    1    3    3    0    0 -0.28905869604E+01 -0.67043929906E+00  0.17226887181E+00  0.29723153693E+01  0.51100000000E-03 0. -1.
        -11    1    3    3    0    0 -0.12934637106E+02  0.14493473756E+02  0.23846504993E+02  0.30757461196E+02  0.51100000000E-03 0.  1.
         12    1    3    3    0    0  0.32914013470E+02 -0.11864267366E+02 -0.16615040392E+02  0.38731804632E+02  0.00000000000E+00 0. -1.
</event>
<event>
 7    1  0.3508738E-013  0.7246148E+02  0.7816164E-02  0.1226708E+00
        -11   -1    0    0    0    0  0.00000000000E+00  0.00000000000E+00  0.45593999997E+02  0.45594000000E+02  0.51100000000E-03 0.  1.
         11   -1    0    0    0    0 -0.00000000000E+00 -0.00000000000E+00 -0.45593999997E+02  0.45594000000E+02  0.51100000000E-03 0. -1.
    9900012    2    1    2    0    0  0.15626518540E+02 -0.16281320955E+01 -0.10190376936E+02  0.72461476621E+02  0.69999877972E+02 0.  0.
        -12    1    1    2    0    0 -0.15626518540E+02  0.16281320955E+01  0.10190376936E+02  0.18726523379E+02  0.00000000000E+00 0.  1.
         11    1    3    3    0    0 -0.92980651542E+00 -0.20779735493E+02  0.41967918637E+01  0.21219684483E+02  0.51100000000E-03 0. -1.
        -11    1    3    3    0    0  0.22326356904E+02  0.53595906467E+01  0.80061548633E+01  0.24316454110E+02  0.51100000000E-03 0.  1.
         12    1    3    3    0    0 -0.57700318493E+01  0.13792012751E+02 -0.22393323663E+02  0.26925338028E+02  0.00000000000E+00 0. -1.
</event>
<event>
 7    1  0.3508738E-013  0.7246158E+02  0.7816164E-02  0.1226708E+00
        -11   -1    0    0    0    0  0.00000000000E+00  0.00000000000E+00  0.45593999997E+02  0.45594000000E+02  0.51100000000E-03 0.  1.
         11   -1    0    0    0    0 -0.00000000000E+00 -0.00000000000E+00 -0.45593999997E+02  0.45594000000E+02  0.51100000000E-03 0. -1.
    9900012    2    1    2    0    0 -0.88608818504E+01 -0.43126177161E+01 -0.15923726294E+02  0.72461575947E+02  0.70000007364E+02 0.  0.
        -12    1    1    2    0    0  0.88608818504E+01  0.43126177161E+01  0.15923726294E+02  0.18726424053E+02  0.00000000000E+00 0.  1.
         11    1    3    3    0    0 -0.58870593737E+00 -0.69132872037E+01 -0.63769484729E+01  0.94236716162E+01  0.51100000000E-03 0. -1.
        -11    1    3    3    0    0  0.25688883744E+02  0.99665598022E+01 -0.38019839717E+01  0.27815573779E+02  0.51100000000E-03 0.  1.
         12    1    3    3    0    0 -0.33961059657E+02 -0.73658903145E+01 -0.57447938490E+01  0.35222330552E+02  0.00000000000E+00 0. -1.
</event>
<event>
 7    1  0.3508738E-013  0.7246152E+02  0.7816164E-02  0.1226708E+00
        -11   -1    0    0    0    0  0.00000000000E+00  0.00000000000E+00  0.45593999997E+02  0.45594000000E+02  0.51100000000E-03 0.  1.
         11   -1    0    0    0    0 -0.00000000000E+00 -0.00000000000E+00 -0.45593999997E+02  0.45594000000E+02  0.51100000000E-03 0. -1.
    9900012    2    1    2    0    0 -0.10614481463E+02  0.51504747649E+00  0.15419092815E+02  0.72461523720E+02  0.69999939329E+02 0.  0.
        -12    1    1    2    0    0  0.10614481463E+02 -0.51504747649E+00 -0.15419092815E+02  0.18726476280E+02  0.00000000000E+00 0.  1.
         11    1    3    3    0    0 -0.26633810701E+02  0.17355651458E+02  0.21264398330E+02  0.38245955951E+02  0.51100000000E-03 0. -1.
        -11    1    3    3    0    0  0.44912416011E-01 -0.21323376945E+01  0.81217277716E+01  0.83971032758E+01  0.51100000000E-03 0.  1.
         12    1    3    3    0    0  0.15974416822E+02 -0.14708266287E+02 -0.13967033287E+02  0.25818464494E+02  0.00000000000E+00 0. -1.
</event>
<event>
 7    1  0.3508738E-013  0.7246155E+02  0.7816164E-02  0.1226708E+00
        -11   -1    0    0    0    0  0.00000000000E+00  0.00000000000E+00  0.45593999997E+02  0.45594000000E+02  0.51100000000E-03 0.  1.
         11   -1    0    0    0    0 -0.00000000000E+00 -0.00000000000E+00 -0.45593999997E+02  0.45594000000E+02  0.51100000000E-03 0. -1.
    9900012    2    1    2    0    0 -0.39396478613E+01  0.12776531582E+02 -0.13111801404E+02  0.72461550241E+02  0.69999973876E+02 0.  0.
        -12    1    1    2    0    0  0.39396478613E+01 -0.12776531582E+02  0.13111801404E+02  0.18726449759E+02  0.00000000000E+00 0.  1.
         11    1    3    3    0    0 -0.39526333674E+01  0.34238517063E+01 -0.37112125758E+02  0.37478739968E+02  0.51100000000E-03 0. -1.
        -11    1    3    3    0    0  0.52730492754E+01 -0.31737789771E+01 -0.12771099450E+01  0.62856130750E+01  0.51100000000E-03 0.  1.
         12    1    3    3    0    0 -0.52600637693E+01  0.12526458853E+02  0.25277434299E+02  0.28697197198E+02  0.00000000000E+00 0. -1.
</event>
<event>
 7    1  0.3508738E-013  0.7246157E+02  0.7816164E-02  0.1226708E+00
        -11   -1    0    0    0    0  0.00000000000E+00  0.00000000000E+00  0.45593999997E+02  0.45594000000E+02  0.51100000000E-03 0. -1.
         11   -1    0    0    0    0 -0.00000000000E+00 -0.00000000000E+00 -0.45593999997E+02  0.45594000000E+02  0.51100000000E-03 0.  1.
    9900012    2    1    2    0    0 -0.96323516642E+01  0.16058713824E+02 -0.12120049804E+00  0.72461570073E+02  0.69999999711E+02 0.  0.
        -12    1    1    2    0    0  0.96323516642E+01 -0.16058713824E+02  0.12120049804E+00  0.18726429927E+02  0.00000000000E+00 0.  1.
         11    1    3    3    0    0 -0.24000465105E+01  0.32456148308E+01 -0.13274645137E+01  0.42492824310E+01  0.51100000000E-03 0. -1.
        -11    1    3    3    0    0  0.14144253565E+02  0.34440915190E+02  0.50035904336E+01  0.37566906521E+02  0.51100000000E-03 0.  1.
         12    1    3    3    0    0 -0.21376558719E+02 -0.21627816197E+02 -0.37973264179E+01  0.30645381121E+02  0.00000000000E+00 0. -1.
</event>
<event>
 7    1  0.3508738E-013  0.7246157E+02  0.7816164E-02  0.1226708E+00
        -11   -1    0    0    0    0  0.00000000000E+00  0.00000000000E+00  0.45593999997E+02  0.45594000000E+02  0.51100000000E-03 0.  1.
         11   -1    0    0    0    0 -0.00000000000E+00 -0.00000000000E+00 -0.45593999997E+02  0.45594000000E+02  0.51100000000E-03 0. -1.
    9900012    2    1    2    0    0 -0.16909164905E+01 -0.14513298638E+02 -0.11712560594E+02  0.72461571841E+02  0.70000002014E+02 0.  0.
        -12    1    1    2    0    0  0.16909164905E+01  0.14513298638E+02  0.11712560594E+02  0.18726428159E+02  0.00000000000E+00 0.  1.
         11    1    3    3    0    0 -0.14967625243E+02  0.88022866575E+01  0.12979143082E+02  0.21678750223E+02  0.51100000000E-03 0. -1.
        -11    1    3    3    0    0  0.98283207199E+01 -0.57855350420E+01  0.77208632417E+01  0.13772437451E+02  0.51100000000E-03 0.  1.
        -12    1    3    3    0    0  0.34483880327E+01 -0.17530050254E+02 -0.32412566918E+02  0.37010384166E+02  0.00000000000E+00 0.  1.
</event>
<event>
 7    1  0.3508738E-013  0.7246140E+02  0.7816164E-02  0.1226708E+00
        -11   -1    0    0    0    0  0.00000000000E+00  0.00000000000E+00  0.45593999997E+02  0.45594000000E+02  0.51100000000E-03 0. -1.
         11   -1    0    0    0    0 -0.00000000000E+00 -0.00000000000E+00 -0.45593999997E+02  0.45594000000E+02  0.51100000000E-03 0.  1.
    9900012    2    1    2    0    0 -0.80678438119E+01 -0.15490668347E+02  0.67553393493E+01  0.72461400754E+02  0.69999779142E+02 0.  0.
        -12    1    1    2    0    0  0.80678438119E+01  0.15490668347E+02 -0.67553393493E+01  0.18726599246E+02  0.00000000000E+00 0.  1.
         11    1    3    3    0    0 -0.65819313908E+01 -0.32267745181E+02  0.33147507705E+01  0.33098591705E+02  0.51100000000E-03 0. -1.
        -11    1    3    3    0    0  0.42554877538E+01 -0.68599049415E+01 -0.89597829744E+01  0.12060065632E+02  0.51100000000E-03 0.  1.
        -12    1    3    3    0    0 -0.57414001749E+01  0.23636981776E+02  0.12400371553E+02  0.27302743417E+02  0.00000000000E+00 0.  1.
</event>
<event>
 7    1  0.3508738E-013  0.7246154E+02  0.7816164E-02  0.1226708E+00
        -11   -1    0    0    0    0  0.00000000000E+00  0.00000000000E+00  0.45593999997E+02  0.45594000000E+02  0.51100000000E-03 0.  1.
         11   -1    0    0    0    0 -0.00000000000E+00 -0.00000000000E+00 -0.45593999997E+02  0.45594000000E+02  0.51100000000E-03 0. -1.
    9900012    2    1    2    0    0  0.52665204639E+01 -0.95094816403E+01 -0.15248400849E+02  0.72461542585E+02  0.69999963903E+02 0.  0.
        -12    1    1    2    0    0 -0.52665204639E+01  0.95094816403E+01  0.15248400849E+02  0.18726457415E+02  0.00000000000E+00 0.  1.
         11    1    3    3    0    0 -0.37619000737E+01 -0.55115989274E+01 -0.15848296103E+02  0.17195874637E+02  0.51100000000E-03 0. -1.
        -11    1    3    3    0    0 -0.23012794555E+02 -0.23122426780E+01 -0.88749480259E+00  0.23145687000E+02  0.51100000000E-03 0.  1.
         12    1    3    3    0    0  0.32041215092E+02 -0.16856400349E+01  0.14873900563E+01  0.32119980948E+02  0.00000000000E+00 0. -1.
</event>
<event>
 7    1  0.3508738E-013  0.7246152E+02  0.7816164E-02  0.1226708E+00
        -11   -1    0    0    0    0  0.00000000000E+00  0.00000000000E+00  0.45593999997E+02  0.45594000000E+02  0.51100000000E-03 0.  1.
         11   -1    0    0    0    0 -0.00000000000E+00 -0.00000000000E+00 -0.45593999997E+02  0.45594000000E+02  0.51100000000E-03 0. -1.
    9900012    2    1    2    0    0 -0.11292983496E+01  0.11098002907E+02 -0.15041274668E+02  0.72461523371E+02  0.69999938874E+02 0.  0.
        -12    1    1    2    0    0  0.11292983496E+01 -0.11098002907E+02  0.15041274668E+02  0.18726476629E+02  0.00000000000E+00 0.  1.
         11    1    3    3    0    0  0.61967529180E+01 -0.20698973594E+01  0.13072767298E+01  0.66628218132E+01  0.51100000000E-03 0. -1.
        -11    1    3    3    0    0  0.14153663971E+02  0.82055324060E+01  0.18416015554E+02  0.24633444643E+02  0.51100000000E-03 0.  1.
         12    1    3    3    0    0 -0.21479715238E+02  0.49623678608E+01 -0.34764566952E+02  0.41165256914E+02  0.00000000000E+00 0. -1.
</event>
<event>
 7    1  0.3508738E-013  0.7246156E+02  0.7816164E-02  0.1226708E+00
        -11   -1    0    0    0    0  0.00000000000E+00  0.00000000000E+00  0.45593999997E+02  0.45594000000E+02  0.51100000000E-03 0. -1.
         11   -1    0    0    0    0 -0.00000000000E+00 -0.00000000000E+00 -0.45593999997E+02  0.45594000000E+02  0.51100000000E-03 0.  1.
    9900012    2    1    2    0    0 -0.14380528730E+02  0.11027297086E+02 -0.47200292806E+01  0.72461559762E+02  0.69999986280E+02 0.  0.
        -12    1    1    2    0    0  0.14380528730E+02 -0.11027297086E+02  0.47200292806E+01  0.18726440238E+02  0.00000000000E+00 0.  1.
         11    1    3    3    0    0 -0.11963128507E+02  0.27616593257E+02 -0.25374518761E+01  0.30203167534E+02  0.51100000000E-03 0. -1.
        -11    1    3    3    0    0  0.61487521821E+01  0.11347442170E+02 -0.18328284543E+01  0.13035753051E+02  0.51100000000E-03 0.  1.
        -12    1    3    3    0    0 -0.85661524055E+01 -0.27936738341E+02 -0.34974895024E+00  0.29222639178E+02  0.00000000000E+00 0.  1.
</event>
<event>
 7    1  0.3508738E-013  0.7246173E+02  0.7816164E-02  0.1226708E+00
        -11   -1    0    0    0    0  0.00000000000E+00  0.00000000000E+00  0.45593999997E+02  0.45594000000E+02  0.51100000000E-03 0.  1.
         11   -1    0    0    0    0 -0.00000000000E+00 -0.00000000000E+00 -0.45593999997E+02  0.45594000000E+02  0.51100000000E-03 0. -1.
    9900012    2    1    2    0    0  0.56064299380E+01  0.38493368214E+01 -0.17447738641E+02  0.72461734107E+02  0.70000213397E+02 0.  0.
        -12    1    1    2    0    0 -0.56064299380E+01 -0.38493368214E+01  0.17447738641E+02  0.18726265893E+02  0.00000000000E+00 0.  1.
         11    1    3    3    0    0  0.58356231603E+01 -0.64214654122E+01  0.57055271372E+01  0.10384736679E+02  0.51100000000E-03 0. -1.
        -11    1    3    3    0    0  0.25136698763E+02  0.68538138353E+01  0.20772392267E+01  0.26137010385E+02  0.51100000000E-03 0.  1.
         12    1    3    3    0    0 -0.25365891985E+02  0.34169883983E+01 -0.25230505004E+02  0.35939987044E+02  0.00000000000E+00 0. -1.
</event>
<event>
 7    1  0.3508738E-013  0.7246156E+02  0.7816164E-02  0.1226708E+00
        -11   -1    0    0    0    0  0.00000000000E+00  0.00000000000E+00  0.45593999997E+02  0.45594000000E+02  0.51100000000E-03 0.  1.
         11   -1    0    0    0    0 -0.00000000000E+00 -0.00000000000E+00 -0.45593999997E+02  0.45594000000E+02  0.51100000000E-03 0. -1.
    9900012    2    1    2    0    0  0.36010956456E+01  0.53485297919E+01 -0.17581378322E+02  0.72461560817E+02  0.69999987654E+02 0.  0.
        -12    1    1    2    0    0 -0.36010956456E+01 -0.53485297919E+01  0.17581378322E+02  0.18726439183E+02  0.00000000000E+00 0.  1.
         11    1    3    3    0    0  0.17514817781E+02  0.92487695948E+01 -0.19292558581E+02  0.27649799236E+02  0.51100000000E-03 0. -1.
        -11    1    3    3    0    0 -0.19853380890E+01  0.18197667931E+02 -0.46900440310E+01  0.18896909766E+02  0.51100000000E-03 0.  1.
         12    1    3    3    0    0 -0.11928384046E+02 -0.22097907734E+02  0.64012242908E+01  0.25914851815E+02  0.00000000000E+00 0. -1.
</event>
<event>
 7    1  0.3508738E-013  0.7246159E+02  0.7816164E-02  0.1226708E+00
        -11   -1    0    0    0    0  0.00000000000E+00  0.00000000000E+00  0.45593999997E+02  0.45594000000E+02  0.51100000000E-03 0.  1.
         11   -1    0    0    0    0 -0.00000000000E+00 -0.00000000000E+00 -0.45593999997E+02  0.45594000000E+02  0.51100000000E-03 0. -1.
    9900012    2    1    2    0    0  0.87126346986E+01 -0.13305519867E+02 -0.98859294647E+01  0.72461589140E+02  0.70000024550E+02 0.  0.
        -12    1    1    2    0    0 -0.87126346986E+01  0.13305519867E+02  0.98859294647E+01  0.18726410860E+02  0.00000000000E+00 0.  1.
         11    1    3    3    0    0 -0.11704474046E+02 -0.46599755913E+01 -0.43932724755E+01  0.13342073621E+02  0.51100000000E-03 0. -1.
        -11    1    3    3    0    0  0.18608970192E+02  0.51657663001E+01  0.21404654803E+02  0.28829466880E+02  0.51100000000E-03 0.  1.
         12    1    3    3    0    0  0.18081385522E+01 -0.13811310576E+02 -0.26897311792E+02  0.30290048638E+02  0.00000000000E+00 0. -1.
</event>
<event>
 7    1  0.3508738E-013  0.7246157E+02  0.7816164E-02  0.1226708E+00
        -11   -1    0    0    0    0  0.00000000000E+00  0.00000000000E+00  0.45593999997E+02  0.45594000000E+02  0.51100000000E-03 0. -1.
         11   -1    0    0    0    0 -0.00000000000E+00 -0.00000000000E+00 -0.45593999997E+02  0.45594000000E+02  0.51100000000E-03 0.  1.
    9900012    2    1    2    0    0 -0.92817268062E+01 -0.47489586627E+01  0.15555581200E+02  0.72461570352E+02  0.70000000075E+02 0.  0.
        -12    1    1    2    0    0  0.92817268062E+01  0.47489586627E+01 -0.15555581200E+02  0.18726429648E+02  0.00000000000E+00 0.  1.
         11    1    3    3    0    0  0.17013527165E+02  0.58791156661E+01  0.30076173546E+02  0.35051395451E+02  0.51100000000E-03 0. -1.
        -11    1    3    3    0    0 -0.10273947344E+02  0.40646546689E+01  0.37977416138E+00  0.11055299194E+02  0.51100000000E-03 0.  1.
        -12    1    3    3    0    0 -0.16021306628E+02 -0.14692728998E+02 -0.14900366508E+02  0.26354875707E+02  0.00000000000E+00 0.  1.
</event>
<event>
 7    1  0.3508738E-013  0.7246157E+02  0.7816164E-02  0.1226708E+00
        -11   -1    0    0    0    0  0.00000000000E+00  0.00000000000E+00  0.45593999997E+02  0.45594000000E+02  0.51100000000E-03 0.  1.
         11   -1    0    0    0    0 -0.00000000000E+00 -0.00000000000E+00 -0.45593999997E+02  0.45594000000E+02  0.51100000000E-03 0. -1.
    9900012    2    1    2    0    0  0.52922447413E+01 -0.23226186891E+01 -0.17812260082E+02  0.72461574255E+02  0.70000005159E+02 0.  0.
        -12    1    1    2    0    0 -0.52922447413E+01  0.23226186891E+01  0.17812260082E+02  0.18726425745E+02  0.00000000000E+00 0.  1.
         11    1    3    3    0    0  0.16121208160E+01  0.15132814492E+01  0.61119150410E+01  0.64995738322E+01  0.51100000000E-03 0. -1.
        -11    1    3    3    0    0 -0.17086401205E+02  0.20793771065E+02 -0.19951369008E+02  0.33501987206E+02  0.51100000000E-03 0.  1.
         12    1    3    3    0    0  0.20766525130E+02 -0.24629671203E+02 -0.39728061153E+01  0.32460013216E+02  0.00000000000E+00 0. -1.
</event>
<event>
 7    1  0.3508738E-013  0.7246161E+02  0.7816164E-02  0.1226708E+00
        -11   -1    0    0    0    0  0.00000000000E+00  0.00000000000E+00  0.45593999997E+02  0.45594000000E+02  0.51100000000E-03 0.  1.
         11   -1    0    0    0    0 -0.00000000000E+00 -0.00000000000E+00 -0.45593999997E+02  0.45594000000E+02  0.51100000000E-03 0. -1.
    9900012    2    1    2    0    0  0.25371445431E+00  0.18639114612E+02 -0.17879692437E+01  0.72461606899E+02  0.70000047684E+02 0.  0.
        -12    1    1    2    0    0 -0.25371445431E+00 -0.18639114612E+02  0.17879692437E+01  0.18726393101E+02  0.00000000000E+00 0.  1.
         11    1    3    3    0    0  0.64550957092E+00 -0.95185576744E+00 -0.46854901298E+01  0.48245756317E+01  0.51100000000E-03 0. -1.
        -11    1    3    3    0    0  0.43452024042E+01 -0.22696756630E+02 -0.66097845084E+01  0.24035656782E+02  0.51100000000E-03 0.  1.
         12    1    3    3    0    0 -0.47369975208E+01  0.42287727009E+02  0.95073053945E+01  0.43601374485E+02  0.00000000000E+00 0. -1.
</event>
<event>
 7    1  0.3508738E-013  0.7246156E+02  0.7816164E-02  0.1226708E+00
        -11   -1    0    0    0    0  0.00000000000E+00  0.00000000000E+00  0.45593999997E+02  0.45594000000E+02  0.51100000000E-03 0. -1.
         11   -1    0    0    0    0 -0.00000000000E+00 -0.00000000000E+00 -0.45593999997E+02  0.45594000000E+02  0.51100000000E-03 0.  1.
    9900012    2    1    2    0    0  0.10337405073E+02  0.15094130100E+02  0.39980906382E+01  0.72461563183E+02  0.69999990736E+02 0.  0.
        -12    1    1    2    0    0 -0.10337405073E+02 -0.15094130100E+02 -0.39980906382E+01  0.18726436817E+02  0.00000000000E+00 0.  1.
         11    1    3    3    0    0  0.92129043453E+01  0.25762181913E+02  0.18281205010E+01  0.27420970957E+02  0.51100000000E-03 0. -1.
        -11    1    3    3    0    0 -0.80627939839E+01  0.43642479647E+01 -0.16807965157E+02  0.19145835059E+02  0.51100000000E-03 0.  1.
         12    1    3    3    0    0  0.91872947111E+01 -0.15032299778E+02  0.18977935294E+02  0.25894757167E+02  0.00000000000E+00 0. -1.
</event>
<event>
 7    1  0.3508738E-013  0.7246155E+02  0.7816164E-02  0.1226708E+00
        -11   -1    0    0    0    0  0.00000000000E+00  0.00000000000E+00  0.45593999997E+02  0.45594000000E+02  0.51100000000E-03 0. -1.
         11   -1    0    0    0    0 -0.00000000000E+00 -0.00000000000E+00 -0.45593999997E+02  0.45594000000E+02  0.51100000000E-03 0.  1.
    9900012    2    1    2    0    0  0.31416729524E+01  0.35817480453E+01  0.18110239166E+02  0.72461553710E+02  0.69999978396E+02 0.  0.
        -12    1    1    2    0    0 -0.31416729524E+01 -0.35817480453E+01 -0.18110239166E+02  0.18726446290E+02  0.00000000000E+00 0.  1.
         11    1    3    3    0    0  0.25539072170E+01  0.91888209558E+00 -0.96540729398E+01  0.10028355347E+02  0.51100000000E-03 0. -1.
        -11    1    3    3    0    0 -0.68882637172E+01  0.21529375322E+02 -0.56856670080E+01  0.23308560410E+02  0.51100000000E-03 0.  1.
         12    1    3    3    0    0  0.74760294526E+01 -0.18866509372E+02  0.33449979114E+02  0.39124637953E+02  0.00000000000E+00 0. -1.
</event>
<event>
 7    1  0.3508738E-013  0.7246132E+02  0.7816164E-02  0.1226709E+00
        -11   -1    0    0    0    0  0.00000000000E+00  0.00000000000E+00  0.45593999997E+02  0.45594000000E+02  0.51100000000E-03 0.  1.
         11   -1    0    0    0    0 -0.00000000000E+00 -0.00000000000E+00 -0.45593999997E+02  0.45594000000E+02  0.51100000000E-03 0. -1.
    9900012    2    1    2    0    0  0.73347612385E+01  0.16933401918E+02 -0.31858700761E+01  0.72461318738E+02  0.69999672301E+02 0.  0.
        -12    1    1    2    0    0 -0.73347612385E+01 -0.16933401918E+02  0.31858700761E+01  0.18726681262E+02  0.00000000000E+00 0.  1.
         11    1    3    3    0    0  0.15249814583E+01  0.83410066612E+01  0.98536809355E+01  0.12999730336E+02  0.51100000000E-03 0. -1.
        -11    1    3    3    0    0  0.16869678845E+01 -0.24296738156E+02 -0.16430776643E+01  0.24410592990E+02  0.51100000000E-03 0.  1.
         12    1    3    3    0    0  0.41228118957E+01  0.32889133413E+02 -0.11396473347E+02  0.35050995412E+02  0.00000000000E+00 0. -1.
</event>
<event>
 7    1  0.3508738E-013  0.7246157E+02  0.7816164E-02  0.1226708E+00
        -11   -1    0    0    0    0  0.00000000000E+00  0.00000000000E+00  0.45593999997E+02  0.45594000000E+02  0.51100000000E-03 0.  1.
         11   -1    0    0    0    0 -0.00000000000E+00 -0.00000000000E+00 -0.45593999997E+02  0.45594000000E+02  0.51100000000E-03 0. -1.
    9900012    2    1    2    0    0 -0.88331023413E+01  0.10347166687E+02 -0.12868241012E+02  0.72461569957E+02  0.69999999561E+02 0.  0.
        -12    1    1    2    0    0  0.88331023413E+01 -0.10347166687E+02  0.12868241012E+02  0.18726430043E+02  0.00000000000E+00 0.  1.
         11    1    3    3    0    0 -0.13666656370E+02  0.10329697464E+02 -0.22209604215E+02  0.28049004718E+02  0.51100000000E-03 0. -1.
        -11    1    3    3    0    0 -0.12418304862E+02  0.15626724716E+02  0.64050750143E+01  0.20962676528E+02  0.51100000000E-03 0.  1.
         12    1    3    3    0    0  0.17251858890E+02 -0.15609255494E+02  0.29362881890E+01  0.23449888712E+02  0.00000000000E+00 0. -1.
</event>
<event>
 7    1  0.3508738E-013  0.7246159E+02  0.7816164E-02  0.1226708E+00
        -11   -1    0    0    0    0  0.00000000000E+00  0.00000000000E+00  0.45593999997E+02  0.45594000000E+02  0.51100000000E-03 0.  1.
         11   -1    0    0    0    0 -0.00000000000E+00 -0.00000000000E+00 -0.45593999997E+02  0.45594000000E+02  0.51100000000E-03 0. -1.
    9900012    2    1    2    0    0  0.18142943362E+02 -0.42614376905E+01  0.18309018749E+01  0.72461589594E+02  0.70000025141E+02 0.  0.
        -12    1    1    2    0    0 -0.18142943362E+02  0.42614376905E+01 -0.18309018749E+01  0.18726410406E+02  0.00000000000E+00 0.  1.
         11    1    3    3    0    0 -0.28216209798E+01  0.12949766175E+02  0.16458726609E+02  0.21131674586E+02  0.51100000000E-03 0. -1.
        -11    1    3    3    0    0  0.19066093889E+02 -0.40447226273E+01  0.11054344526E+02  0.22407013422E+02  0.51100000000E-03 0.  1.
         12    1    3    3    0    0  0.18984704530E+01 -0.13166481239E+02 -0.25682169260E+02  0.28922901586E+02  0.00000000000E+00 0. -1.
</event>
<event>
 7    1  0.3890465E-013  0.7246155E+02  0.7816164E-02  0.1226708E+00
        -11   -1    0    0    0    0  0.00000000000E+00  0.00000000000E+00  0.45593999997E+02  0.45594000000E+02  0.51100000000E-03 0. -1.
         11   -1    0    0    0    0 -0.00000000000E+00 -0.00000000000E+00 -0.45593999997E+02  0.45594000000E+02  0.51100000000E-03 0.  1.
    9900012    2    1    2    0    0  0.57882730048E+01 -0.14706557637E+02  0.10044557208E+02  0.72461546213E+02  0.69999968630E+02 0.  0.
        -12    1    1    2    0    0 -0.57882730048E+01  0.14706557637E+02 -0.10044557208E+02  0.18726453787E+02  0.00000000000E+00 0.  1.
         11    1    3    3    0    0 -0.59362631505E+01 -0.17642453011E+02  0.23161303335E+02  0.29714328881E+02  0.51100000000E-03 0. -1.
        -11    1    3    3    0    0  0.48664894707E+01  0.17882509093E+02  0.40548146159E+01  0.18971251225E+02  0.51100000000E-03 0.  1.
        -12    1    3    3    0    0  0.68580466845E+01 -0.14946613719E+02 -0.17171560742E+02  0.23775966107E+02  0.00000000000E+00 0.  1.
</event>
<event>
 7    1  0.3508738E-013  0.7246156E+02  0.7816164E-02  0.1226708E+00
        -11   -1    0    0    0    0  0.00000000000E+00  0.00000000000E+00  0.45593999997E+02  0.45594000000E+02  0.51100000000E-03 0. -1.
         11   -1    0    0    0    0 -0.00000000000E+00 -0.00000000000E+00 -0.45593999997E+02  0.45594000000E+02  0.51100000000E-03 0.  1.
    9900012    2    1    2    0    0 -0.31116519115E+01 -0.18457053936E+02 -0.57828503871E+00  0.72461557968E+02  0.69999983942E+02 0.  0.
        -12    1    1    2    0    0  0.31116519115E+01  0.18457053936E+02  0.57828503871E+00  0.18726442032E+02  0.00000000000E+00 0.  1.
         11    1    3    3    0    0  0.70243814015E+00  0.14384610190E+02 -0.51422552577E+01  0.15292260103E+02  0.51100000000E-03 0. -1.
        -11    1    3    3    0    0 -0.18582334294E+02 -0.24218624733E+01 -0.89333752778E+01  0.20759907509E+02  0.51100000000E-03 0.  1.
         12    1    3    3    0    0  0.14768244242E+02 -0.30419801653E+02  0.13497345497E+02  0.36409390356E+02  0.00000000000E+00 0. -1.
</event>
<event>
 7    1  0.3508738E-013  0.7246160E+02  0.7816164E-02  0.1226708E+00
        -11   -1    0    0    0    0  0.00000000000E+00  0.00000000000E+00  0.45593999997E+02  0.45594000000E+02  0.51100000000E-03 0. -1.
         11   -1    0    0    0    0 -0.00000000000E+00 -0.00000000000E+00 -0.45593999997E+02  0.45594000000E+02  0.51100000000E-03 0.  1.
    9900012    2    1    2    0    0  0.96877654975E+01  0.11312934929E+02  0.11350886644E+02  0.72461603533E+02  0.70000043299E+02 0.  0.
        -12    1    1    2    0    0 -0.96877654975E+01 -0.11312934929E+02 -0.11350886644E+02  0.18726396467E+02  0.00000000000E+00 0.  1.
         11    1    3    3    0    0 -0.17139741120E+02  0.18380590078E+01 -0.13044147040E+01  0.17287298359E+02  0.51100000000E-03 0. -1.
        -11    1    3    3    0    0 -0.10094342436E+01  0.13484498590E+02 -0.11767760741E+02  0.17925703692E+02  0.51100000000E-03 0.  1.
        -12    1    3    3    0    0  0.27836940861E+02 -0.40096226691E+01  0.24423062090E+02  0.37248601481E+02  0.00000000000E+00 0.  1.
</event>
<event>
 7    1  0.3508738E-013  0.7246160E+02  0.7816164E-02  0.1226708E+00
        -11   -1    0    0    0    0  0.00000000000E+00  0.00000000000E+00  0.45593999997E+02  0.45594000000E+02  0.51100000000E-03 0.  1.
         11   -1    0    0    0    0 -0.00000000000E+00 -0.00000000000E+00 -0.45593999997E+02  0.45594000000E+02  0.51100000000E-03 0. -1.
    9900012    2    1    2    0    0  0.63680458058E+01 -0.17429416468E+02 -0.25182624126E+01  0.72461595877E+02  0.70000033326E+02 0.  0.
        -12    1    1    2    0    0 -0.63680458058E+01  0.17429416468E+02  0.25182624126E+01  0.18726404123E+02  0.00000000000E+00 0.  1.
         11    1    3    3    0    0  0.37810647644E+01 -0.28651325887E+02 -0.88977592452E+01  0.30238469632E+02  0.51100000000E-03 0. -1.
        -11    1    3    3    0    0 -0.89278778596E+01 -0.12292389250E+02  0.50398165358E+01  0.16006548270E+02  0.51100000000E-03 0.  1.
         12    1    3    3    0    0  0.11514858901E+02  0.23514298669E+02  0.13396802969E+01  0.26216577974E+02  0.00000000000E+00 0. -1.
</event>
<event>
 7    1  0.3508738E-013  0.7246173E+02  0.7816164E-02  0.1226708E+00
        -11   -1    0    0    0    0  0.00000000000E+00  0.00000000000E+00  0.45593999997E+02  0.45594000000E+02  0.51100000000E-03 0.  1.
         11   -1    0    0    0    0 -0.00000000000E+00 -0.00000000000E+00 -0.45593999997E+02  0.45594000000E+02  0.51100000000E-03 0. -1.
    9900012    2    1    2    0    0 -0.15175762190E+02  0.38090488269E+01 -0.10288864255E+02  0.72461725980E+02  0.70000202809E+02 0.  0.
        -12    1    1    2    0    0  0.15175762190E+02 -0.38090488269E+01  0.10288864255E+02  0.18726274020E+02  0.00000000000E+00 0.  1.
         11    1    3    3    0    0  0.87441330968E+01  0.27346467043E+01 -0.10584312242E+02  0.13998779308E+02  0.51100000000E-03 0. -1.
        -11    1    3    3    0    0  0.70935333646E+01  0.15358850842E+02 -0.13492417108E+02  0.21639266033E+02  0.51100000000E-03 0.  1.
         12    1    3    3    0    0 -0.31013428652E+02 -0.14284448719E+02  0.13787865094E+02  0.36823680639E+02  0.00000000000E+00 0. -1.
</event>
<event>
 7    1  0.3508738E-013  0.7246153E+02  0.7816164E-02  0.1226708E+00
        -11   -1    0    0    0    0  0.00000000000E+00  0.00000000000E+00  0.45593999997E+02  0.45594000000E+02  0.51100000000E-03 0.  1.
         11   -1    0    0    0    0 -0.00000000000E+00 -0.00000000000E+00 -0.45593999997E+02  0.45594000000E+02  0.51100000000E-03 0. -1.
    9900012    2    1    2    0    0 -0.15284762590E+02  0.42201567012E+01 -0.99622707256E+01  0.72461534022E+02  0.69999952749E+02 0.  0.
        -12    1    1    2    0    0  0.15284762590E+02 -0.42201567012E+01  0.99622707256E+01  0.18726465978E+02  0.00000000000E+00 0.  1.
         11    1    3    3    0    0 -0.97999459335E+01  0.13551601239E+01  0.71817013205E+01  0.12225065782E+02  0.51100000000E-03 0. -1.
        -11    1    3    3    0    0 -0.11438534471E+02  0.20550227579E+02  0.11398174448E+02  0.26135613737E+02  0.51100000000E-03 0.  1.
         12    1    3    3    0    0  0.59537178150E+01 -0.17685231001E+02 -0.28542146494E+02  0.34100854503E+02  0.00000000000E+00 0. -1.
</event>
<event>
 7    1  0.3508738E-013  0.7246156E+02  0.7816164E-02  0.1226708E+00
        -11   -1    0    0    0    0  0.00000000000E+00  0.00000000000E+00  0.45593999997E+02  0.45594000000E+02  0.51100000000E-03 0. -1.
         11   -1    0    0    0    0 -0.00000000000E+00 -0.00000000000E+00 -0.45593999997E+02  0.45594000000E+02  0.51100000000E-03 0.  1.
    9900012    2    1    2    0    0 -0.40427973666E+01 -0.18088690187E+02  0.26710790835E+01  0.72461559155E+02  0.69999985489E+02 0.  0.
        -12    1    1    2    0    0  0.40427973666E+01  0.18088690187E+02 -0.26710790835E+01  0.18726440845E+02  0.00000000000E+00 0.  1.
         11    1    3    3    0    0  0.17437598197E+02 -0.27394880330E+01  0.22997717091E+02  0.28990854027E+02  0.51100000000E-03 0. -1.
        -11    1    3    3    0    0  0.24306857066E+01  0.49468191225E+01 -0.81234116103E+01  0.98167748719E+01  0.51100000000E-03 0.  1.
         12    1    3    3    0    0 -0.23911081270E+02 -0.20296021277E+02 -0.12203226397E+02  0.33653930256E+02  0.00000000000E+00 0. -1.
</event>
<event>
 7    1  0.3508738E-013  0.7246150E+02  0.7816164E-02  0.1226708E+00
        -11   -1    0    0    0    0  0.00000000000E+00  0.00000000000E+00  0.45593999997E+02  0.45594000000E+02  0.51100000000E-03 0.  1.
         11   -1    0    0    0    0 -0.00000000000E+00 -0.00000000000E+00 -0.45593999997E+02  0.45594000000E+02  0.51100000000E-03 0. -1.
    9900012    2    1    2    0    0  0.10865903506E+02  0.56280372443E+01 -0.14175294152E+02  0.72461504692E+02  0.69999914541E+02 0.  0.
        -12    1    1    2    0    0 -0.10865903506E+02 -0.56280372443E+01  0.14175294152E+02  0.18726495308E+02  0.00000000000E+00 0.  1.
         11    1    3    3    0    0 -0.21111010302E+02 -0.17508756911E+02 -0.15025154066E+02  0.31272776971E+02  0.51100000000E-03 0. -1.
        -11    1    3    3    0    0  0.64304179754E+01  0.50837859309E+00 -0.24549410252E+01  0.69018446686E+01  0.51100000000E-03 0.  1.
        -12    1    3    3    0    0  0.25546495833E+02  0.22628415562E+02  0.33048009396E+01  0.34286883052E+02  0.00000000000E+00 0.  1.
</event>
<event>
 7    1  0.3508738E-013  0.7246157E+02  0.7816164E-02  0.1226708E+00
        -11   -1    0    0    0    0  0.00000000000E+00  0.00000000000E+00  0.45593999997E+02  0.45594000000E+02  0.51100000000E-03 0.  1.
         11   -1    0    0    0    0 -0.00000000000E+00 -0.00000000000E+00 -0.45593999997E+02  0.45594000000E+02  0.51100000000E-03 0. -1.
    9900012    2    1    2    0    0 -0.13609019974E+02  0.22705062081E+01 -0.12661691463E+02  0.72461573384E+02  0.70000004025E+02 0.  0.
        -12    1    1    2    0    0  0.13609019974E+02 -0.22705062081E+01  0.12661691463E+02  0.18726426616E+02  0.00000000000E+00 0.  1.
         11    1    3    3    0    0 -0.18079915889E+02 -0.19591877353E+02 -0.30572962290E+01  0.26834158777E+02  0.51100000000E-03 0. -1.
        -11    1    3    3    0    0 -0.16942060455E+02  0.12253421346E+02 -0.22372644646E+01  0.21028197728E+02  0.51100000000E-03 0.  1.
         12    1    3    3    0    0  0.21412956369E+02  0.96089622146E+01 -0.73671307691E+01  0.24599216880E+02  0.00000000000E+00 0. -1.
</event>
<event>
 7    1  0.3508738E-013  0.7246155E+02  0.7816164E-02  0.1226708E+00
        -11   -1    0    0    0    0  0.00000000000E+00  0.00000000000E+00  0.45593999997E+02  0.45594000000E+02  0.51100000000E-03 0.  1.
         11   -1    0    0    0    0 -0.00000000000E+00 -0.00000000000E+00 -0.45593999997E+02  0.45594000000E+02  0.51100000000E-03 0. -1.
    9900012    2    1    2    0    0  0.99454457990E+01 -0.61083767306E+01 -0.14644305713E+02  0.72461552172E+02  0.69999976392E+02 0.  0.
        -12    1    1    2    0    0 -0.99454457990E+01  0.61083767306E+01  0.14644305713E+02  0.18726447828E+02  0.00000000000E+00 0.  1.
         11    1    3    3    0    0  0.10684098376E+02  0.34609724161E+01  0.31832611435E+01  0.11673107553E+02  0.51100000000E-03 0. -1.
        -11    1    3    3    0    0 -0.77606865532E+01  0.22279009024E+02 -0.15210532775E+02  0.28070318959E+02  0.51100000000E-03 0.  1.
        -12    1    3    3    0    0  0.70220339757E+01 -0.31848358171E+02 -0.26170340815E+01  0.32718125660E+02  0.00000000000E+00 0.  1.
</event>
<event>
 7    1  0.3508738E-013  0.7246157E+02  0.7816164E-02  0.1226708E+00
        -11   -1    0    0    0    0  0.00000000000E+00  0.00000000000E+00  0.45593999997E+02  0.45594000000E+02  0.51100000000E-03 0.  1.
         11   -1    0    0    0    0 -0.00000000000E+00 -0.00000000000E+00 -0.45593999997E+02  0.45594000000E+02  0.51100000000E-03 0. -1.
    9900012    2    1    2    0    0  0.13104537209E+01 -0.16377081585E+02 -0.89862704894E+01  0.72461570882E+02  0.70000000766E+02 0.  0.
        -12    1    1    2    0    0 -0.13104537209E+01  0.16377081585E+02  0.89862704894E+01  0.18726429118E+02  0.00000000000E+00 0.  1.
         11    1    3    3    0    0 -0.23897025886E+01  0.14278543217E+02 -0.28517032685E+02  0.31981379400E+02  0.51100000000E-03 0. -1.
        -11    1    3    3    0    0 -0.45982919860E+00 -0.16543605963E+02  0.67495442008E+00  0.16563752742E+02  0.51100000000E-03 0.  1.
        -12    1    3    3    0    0  0.41599855080E+01 -0.14112018839E+02  0.18855807776E+02  0.23916438740E+02  0.00000000000E+00 0.  1.
</event>
<event>
 7    1  0.3508738E-013  0.7246186E+02  0.7816164E-02  0.1226707E+00
        -11   -1    0    0    0    0  0.00000000000E+00  0.00000000000E+00  0.45593999997E+02  0.45594000000E+02  0.51100000000E-03 0. -1.
         11   -1    0    0    0    0 -0.00000000000E+00 -0.00000000000E+00 -0.45593999997E+02  0.45594000000E+02  0.51100000000E-03 0.  1.
    9900012    2    1    2    0    0 -0.18345755875E+02  0.35651897546E+01 -0.11794563063E+01  0.72461856409E+02  0.70000372716E+02 0.  0.
        -12    1    1    2    0    0  0.18345755875E+02 -0.35651897546E+01  0.11794563063E+01  0.18726143591E+02  0.00000000000E+00 0.  1.
         11    1    3    3    0    0 -0.96064180323E+01  0.20861041002E+02 -0.55052261498E+01  0.23617235535E+02  0.51100000000E-03 0. -1.
        -11    1    3    3    0    0  0.76504457832E+01  0.89996083892E+01 -0.92629068516E+01  0.15010786636E+02  0.51100000000E-03 0.  1.
        -12    1    3    3    0    0 -0.16389783626E+02 -0.26295459637E+02  0.13588676695E+02  0.33833834237E+02  0.00000000000E+00 0.  1.
</event>
<event>
 7    1  0.3508738E-013  0.7246159E+02  0.7816164E-02  0.1226708E+00
        -11   -1    0    0    0    0  0.00000000000E+00  0.00000000000E+00  0.45593999997E+02  0.45594000000E+02  0.51100000000E-03 0.  1.
         11   -1    0    0    0    0 -0.00000000000E+00 -0.00000000000E+00 -0.45593999997E+02  0.45594000000E+02  0.51100000000E-03 0. -1.
    9900012    2    1    2    0    0  0.80085606225E+01 -0.53228716011E+01 -0.16068864788E+02  0.72461590282E+02  0.70000026038E+02 0.  0.
        -12    1    1    2    0    0 -0.80085606225E+01  0.53228716011E+01  0.16068864788E+02  0.18726409718E+02  0.00000000000E+00 0.  1.
         11    1    3    3    0    0  0.21343174952E+01 -0.64587160403E+01  0.62015601121E+01  0.92048721960E+01  0.51100000000E-03 0. -1.
        -11    1    3    3    0    0  0.13617472223E+02  0.14789470807E+02  0.13485017111E+02  0.24207636878E+02  0.51100000000E-03 0.  1.
         12    1    3    3    0    0 -0.77432290957E+01 -0.13653626367E+02 -0.35755442011E+02  0.39049081208E+02  0.00000000000E+00 0. -1.
</event>
<event>
 7    1  0.3508738E-013  0.7246158E+02  0.7816164E-02  0.1226708E+00
        -11   -1    0    0    0    0  0.00000000000E+00  0.00000000000E+00  0.45593999997E+02  0.45594000000E+02  0.51100000000E-03 0.  1.
         11   -1    0    0    0    0 -0.00000000000E+00 -0.00000000000E+00 -0.45593999997E+02  0.45594000000E+02  0.51100000000E-03 0. -1.
    9900012    2    1    2    0    0 -0.13478978328E+02 -0.10439272045E+02 -0.77471016069E+01  0.72461579069E+02  0.70000011430E+02 0.  0.
        -12    1    1    2    0    0  0.13478978328E+02  0.10439272045E+02  0.77471016069E+01  0.18726420931E+02  0.00000000000E+00 0.  1.
         11    1    3    3    0    0 -0.17915172630E+02  0.47162964898E+01 -0.10652605687E+02  0.21369952530E+02  0.51100000000E-03 0. -1.
        -11    1    3    3    0    0  0.44171309859E+01 -0.28370474261E+02 -0.12046289116E+02  0.31136922418E+02  0.51100000000E-03 0.  1.
         12    1    3    3    0    0  0.19063315842E-01  0.13214905726E+02  0.14951793196E+02  0.19954704121E+02  0.00000000000E+00 0. -1.
</event>
<event>
 7    1  0.3508738E-013  0.7246159E+02  0.7816164E-02  0.1226708E+00
        -11   -1    0    0    0    0  0.00000000000E+00  0.00000000000E+00  0.45593999997E+02  0.45594000000E+02  0.51100000000E-03 0. -1.
         11   -1    0    0    0    0 -0.00000000000E+00 -0.00000000000E+00 -0.45593999997E+02  0.45594000000E+02  0.51100000000E-03 0.  1.
    9900012    2    1    2    0    0 -0.10643555742E+02 -0.15035205820E+02  0.33668706649E+01  0.72461587878E+02  0.70000022906E+02 0.  0.
        -12    1    1    2    0    0  0.10643555742E+02  0.15035205820E+02 -0.33668706649E+01  0.18726412122E+02  0.00000000000E+00 0.  1.
         11    1    3    3    0    0  0.29875619177E+01 -0.35983000786E+01  0.12877537562E+01  0.48509380191E+01  0.51100000000E-03 0. -1.
        -11    1    3    3    0    0  0.24551818993E+02 -0.56888379760E+01  0.11747071899E+02  0.27805546063E+02  0.51100000000E-03 0.  1.
         12    1    3    3    0    0 -0.38182936653E+02 -0.57480677656E+01 -0.96679549900E+01  0.39805103796E+02  0.00000000000E+00 0. -1.
</event>
<event>
 7    1  0.3508738E-013  0.7246156E+02  0.7816164E-02  0.1226708E+00
        -11   -1    0    0    0    0  0.00000000000E+00  0.00000000000E+00  0.45593999997E+02  0.45594000000E+02  0.51100000000E-03 0.  1.
         11   -1    0    0    0    0 -0.00000000000E+00 -0.00000000000E+00 -0.45593999997E+02  0.45594000000E+02  0.51100000000E-03 0. -1.
    9900012    2    1    2    0    0 -0.33281758456E+01  0.16044852100E+01 -0.18358337184E+02  0.72461556894E+02  0.69999982543E+02 0.  0.
        -12    1    1    2    0    0  0.33281758456E+01 -0.16044852100E+01  0.18358337184E+02  0.18726443106E+02  0.00000000000E+00 0.  1.
         11    1    3    3    0    0 -0.20232797589E+02  0.11931598423E+02 -0.76599796857E+01  0.24706364124E+02  0.51100000000E-03 0. -1.
        -11    1    3    3    0    0 -0.74438659525E+01  0.47955976811E+01 -0.16300404922E+02  0.18550258713E+02  0.51100000000E-03 0.  1.
         12    1    3    3    0    0  0.24348487696E+02 -0.15122710894E+02  0.56020474242E+01  0.29204934056E+02  0.00000000000E+00 0. -1.
</event>
<event>
 7    1  0.3508738E-013  0.7246159E+02  0.7816164E-02  0.1226708E+00
        -11   -1    0    0    0    0  0.00000000000E+00  0.00000000000E+00  0.45593999997E+02  0.45594000000E+02  0.51100000000E-03 0.  1.
         11   -1    0    0    0    0 -0.00000000000E+00 -0.00000000000E+00 -0.45593999997E+02  0.45594000000E+02  0.51100000000E-03 0. -1.
    9900012    2    1    2    0    0  0.16436282142E+02  0.88487656330E+01  0.14921580356E+01  0.72461586583E+02  0.70000021219E+02 0.  0.
        -12    1    1    2    0    0 -0.16436282142E+02 -0.88487656330E+01 -0.14921580356E+01  0.18726413417E+02  0.00000000000E+00 0.  1.
         11    1    3    3    0    0  0.16392250752E+02  0.30324286051E+01  0.98685090365E+01  0.19372376695E+02  0.51100000000E-03 0. -1.
        -11    1    3    3    0    0 -0.15714704038E+02  0.88214901422E+01  0.15871929308E+02  0.24014344704E+02  0.51100000000E-03 0.  1.
         12    1    3    3    0    0  0.15758735428E+02 -0.30051531144E+01 -0.24248280309E+02  0.29074865184E+02  0.00000000000E+00 0. -1.
</event>
<event>
 7    1  0.3508738E-013  0.7246151E+02  0.7816164E-02  0.1226708E+00
        -11   -1    0    0    0    0  0.00000000000E+00  0.00000000000E+00  0.45593999997E+02  0.45594000000E+02  0.51100000000E-03 0.  1.
         11   -1    0    0    0    0 -0.00000000000E+00 -0.00000000000E+00 -0.45593999997E+02  0.45594000000E+02  0.51100000000E-03 0. -1.
    9900012    2    1    2    0    0 -0.14821565558E+02 -0.79665198709E+01 -0.82180961280E+01  0.72461512118E+02  0.69999924214E+02 0.  0.
        -12    1    1    2    0    0  0.14821565558E+02  0.79665198709E+01  0.82180961280E+01  0.18726487882E+02  0.00000000000E+00 0.  1.
         11    1    3    3    0    0 -0.12858066679E+02 -0.11184072577E+02 -0.20027840951E+02  0.26296915627E+02  0.51100000000E-03 0. -1.
        -11    1    3    3    0    0 -0.85586070041E+01 -0.14345106556E+02 -0.83086864640E+01  0.18656529875E+02  0.51100000000E-03 0.  1.
        -12    1    3    3    0    0  0.65951081251E+01  0.17562659261E+02  0.20118431287E+02  0.27508066616E+02  0.00000000000E+00 0.  1.
</event>
<event>
 7    1  0.3508738E-013  0.7246158E+02  0.7816164E-02  0.1226708E+00
        -11   -1    0    0    0    0  0.00000000000E+00  0.00000000000E+00  0.45593999997E+02  0.45594000000E+02  0.51100000000E-03 0.  1.
         11   -1    0    0    0    0 -0.00000000000E+00 -0.00000000000E+00 -0.45593999997E+02  0.45594000000E+02  0.51100000000E-03 0. -1.
    9900012    2    1    2    0    0  0.37612823617E+01 -0.15680305560E+02 -0.95215328668E+01  0.72461579744E+02  0.70000012311E+02 0.  0.
        -12    1    1    2    0    0 -0.37612823617E+01  0.15680305560E+02  0.95215328668E+01  0.18726420256E+02  0.00000000000E+00 0.  1.
         11    1    3    3    0    0  0.10541461112E+02 -0.71721452201E+01  0.10076958289E+02  0.16251374035E+02  0.51100000000E-03 0.  1.
        -11    1    3    3    0    0 -0.79358942045E+01 -0.29361580621E+02 -0.52349038042E+01  0.30862356545E+02  0.51100000000E-03 0. -1.
         12    1    3    3    0    0  0.11557154547E+01  0.20853420281E+02 -0.14363587351E+02  0.25347849164E+02  0.00000000000E+00 0. -1.
</event>
<event>
 7    1  0.3508738E-013  0.7246155E+02  0.7816164E-02  0.1226708E+00
        -11   -1    0    0    0    0  0.00000000000E+00  0.00000000000E+00  0.45593999997E+02  0.45594000000E+02  0.51100000000E-03 0.  1.
         11   -1    0    0    0    0 -0.00000000000E+00 -0.00000000000E+00 -0.45593999997E+02  0.45594000000E+02  0.51100000000E-03 0. -1.
    9900012    2    1    2    0    0  0.18063461280E+02  0.44783569700E+01  0.20821996527E+01  0.72461551593E+02  0.69999975638E+02 0.  0.
        -12    1    1    2    0    0 -0.18063461280E+02 -0.44783569700E+01 -0.20821996527E+01  0.18726448407E+02  0.00000000000E+00 0.  1.
         11    1    3    3    0    0  0.71978071370E+01  0.17723125840E+02 -0.80310220953E+01  0.20746443871E+02  0.51100000000E-03 0. -1.
        -11    1    3    3    0    0 -0.34477230414E+01  0.15677038021E+02  0.10955987483E+02  0.19434247536E+02  0.51100000000E-03 0.  1.
        -12    1    3    3    0    0  0.14313377184E+02 -0.28921806891E+02 -0.84276573528E+00  0.32280860186E+02  0.00000000000E+00 0.  1.
</event>
<event>
 7    1  0.3508738E-013  0.7246160E+02  0.7816164E-02  0.1226708E+00
        -11   -1    0    0    0    0  0.00000000000E+00  0.00000000000E+00  0.45593999997E+02  0.45594000000E+02  0.51100000000E-03 0.  1.
         11   -1    0    0    0    0 -0.00000000000E+00 -0.00000000000E+00 -0.45593999997E+02  0.45594000000E+02  0.51100000000E-03 0. -1.
    9900012    2    1    2    0    0 -0.90798657635E+01  0.13395390892E+02 -0.94232402933E+01  0.72461603736E+02  0.70000043564E+02 0.  0.
        -12    1    1    2    0    0  0.90798657635E+01 -0.13395390892E+02  0.94232402933E+01  0.18726396264E+02  0.00000000000E+00 0.  1.
         11    1    3    3    0    0 -0.73013097059E+01  0.23455052605E+02  0.94413150833E+01  0.26317048597E+02  0.51100000000E-03 0. -1.
        -11    1    3    3    0    0  0.70918103862E+01 -0.53113597494E+01  0.11292402049E+02  0.14353489514E+02  0.51100000000E-03 0.  1.
         12    1    3    3    0    0 -0.88703664438E+01 -0.47483019638E+01 -0.30156957425E+02  0.31791065624E+02  0.00000000000E+00 0. -1.
</event>
<event>
 7    1  0.3508738E-013  0.7246157E+02  0.7816164E-02  0.1226708E+00
        -11   -1    0    0    0    0  0.00000000000E+00  0.00000000000E+00  0.45593999997E+02  0.45594000000E+02  0.51100000000E-03 0. -1.
         11   -1    0    0    0    0 -0.00000000000E+00 -0.00000000000E+00 -0.45593999997E+02  0.45594000000E+02  0.51100000000E-03 0.  1.
    9900012    2    1    2    0    0  0.14588832461E+02  0.18492083648E+01  0.11594204476E+02  0.72461569972E+02  0.69999999581E+02 0.  0.
        -12    1    1    2    0    0 -0.14588832461E+02 -0.18492083648E+01 -0.11594204476E+02  0.18726430028E+02  0.00000000000E+00 0.  1.
         11    1    3    3    0    0  0.83862539888E+00 -0.13696232891E+02 -0.26060957911E+01  0.13967169488E+02  0.51100000000E-03 0. -1.
        -11    1    3    3    0    0  0.83049140353E+01 -0.97923054425E+01 -0.14805298644E+02  0.19597390419E+02  0.51100000000E-03 0.  1.
         12    1    3    3    0    0  0.54452930266E+01  0.25337746698E+02  0.29005598911E+02  0.38897010066E+02  0.00000000000E+00 0. -1.
</event>
<event>
 7    1  0.3508738E-013  0.7246164E+02  0.7816164E-02  0.1226708E+00
        -11   -1    0    0    0    0  0.00000000000E+00  0.00000000000E+00  0.45593999997E+02  0.45594000000E+02  0.51100000000E-03 0. -1.
         11   -1    0    0    0    0 -0.00000000000E+00 -0.00000000000E+00 -0.45593999997E+02  0.45594000000E+02  0.51100000000E-03 0.  1.
    9900012    2    1    2    0    0 -0.59650452017E+01  0.14066579252E+01  0.17695081833E+02  0.72461644993E+02  0.70000097309E+02 0.  0.
        -12    1    1    2    0    0  0.59650452017E+01 -0.14066579252E+01 -0.17695081833E+02  0.18726355007E+02  0.00000000000E+00 0.  1.
         11    1    3    3    0    0 -0.73121910764E+01 -0.42835888869E+01  0.71773499875E+01  0.11105477261E+02  0.51100000000E-03 0. -1.
        -11    1    3    3    0    0  0.15989482608E+02 -0.23026692637E+02  0.72527758630E+01  0.28956776165E+02  0.51100000000E-03 0.  1.
         12    1    3    3    0    0 -0.14642336734E+02  0.28716939449E+02  0.32649559825E+01  0.32399391567E+02  0.00000000000E+00 0. -1.
</event>
<event>
 7    1  0.3508738E-013  0.7246155E+02  0.7816164E-02  0.1226708E+00
        -11   -1    0    0    0    0  0.00000000000E+00  0.00000000000E+00  0.45593999997E+02  0.45594000000E+02  0.51100000000E-03 0.  1.
         11   -1    0    0    0    0 -0.00000000000E+00 -0.00000000000E+00 -0.45593999997E+02  0.45594000000E+02  0.51100000000E-03 0. -1.
    9900012    2    1    2    0    0  0.84201653775E+00  0.85453520374E+01 -0.16641754407E+02  0.72461547506E+02  0.69999970313E+02 0.  0.
        -12    1    1    2    0    0 -0.84201653775E+00 -0.85453520374E+01  0.16641754407E+02  0.18726452494E+02  0.00000000000E+00 0.  1.
         11    1    3    3    0    0 -0.12405710938E+02  0.26981786614E+01 -0.20201203328E+01  0.12855454810E+02  0.51100000000E-03 0. -1.
        -11    1    3    3    0    0 -0.96048696015E+01  0.38275365790E+01  0.17384606926E+02  0.20226915597E+02  0.51100000000E-03 0.  1.
         12    1    3    3    0    0  0.22852597077E+02  0.20196367971E+01 -0.32006241000E+02  0.39379177098E+02  0.00000000000E+00 0. -1.
</event>
<event>
 7    1  0.3508738E-013  0.7246150E+02  0.7816164E-02  0.1226708E+00
        -11   -1    0    0    0    0  0.00000000000E+00  0.00000000000E+00  0.45593999997E+02  0.45594000000E+02  0.51100000000E-03 0. -1.
         11   -1    0    0    0    0 -0.00000000000E+00 -0.00000000000E+00 -0.45593999997E+02  0.45594000000E+02  0.51100000000E-03 0.  1.
    9900012    2    1    2    0    0  0.13679667102E+02 -0.12198919855E+02  0.38386193862E+01  0.72461496417E+02  0.69999903761E+02 0.  0.
        -12    1    1    2    0    0 -0.13679667102E+02  0.12198919855E+02 -0.38386193862E+01  0.18726503583E+02  0.00000000000E+00 0.  1.
         11    1    3    3    0    0 -0.17059981775E+02 -0.15431289117E+02 -0.18979408506E+01  0.23081807592E+02  0.51100000000E-03 0.  1.
        -11    1    3    3    0    0 -0.30467497779E+01 -0.50667008992E+01  0.12600263807E+02  0.13918361631E+02  0.51100000000E-03 0. -1.
        -12    1    3    3    0    0  0.33786398655E+02  0.82990701618E+01 -0.68637035703E+01  0.35461327194E+02  0.00000000000E+00 0.  1.
</event>
<event>
 7    1  0.3508738E-013  0.7246156E+02  0.7816164E-02  0.1226708E+00
        -11   -1    0    0    0    0  0.00000000000E+00  0.00000000000E+00  0.45593999997E+02  0.45594000000E+02  0.51100000000E-03 0. -1.
         11   -1    0    0    0    0 -0.00000000000E+00 -0.00000000000E+00 -0.45593999997E+02  0.45594000000E+02  0.51100000000E-03 0.  1.
    9900012    2    1    2    0    0  0.42832315957E+01  0.76993250071E+01  0.16524346002E+02  0.72461556418E+02  0.69999981923E+02 0.  0.
        -12    1    1    2    0    0 -0.42832315957E+01 -0.76993250071E+01 -0.16524346002E+02  0.18726443582E+02  0.00000000000E+00 0.  1.
         11    1    3    3    0    0  0.76579389815E+00  0.30726451620E+01 -0.51511960532E+00  0.32082607523E+01  0.51100000000E-03 0. -1.
        -11    1    3    3    0    0  0.31816283597E+02 -0.11719778556E+02  0.43019215211E+01  0.34177999361E+02  0.51100000000E-03 0.  1.
         12    1    3    3    0    0 -0.28298845899E+02  0.16346458401E+02  0.12737544086E+02  0.35075296304E+02  0.00000000000E+00 0. -1.
</event>
<event>
 7    1  0.3508738E-013  0.7246153E+02  0.7816164E-02  0.1226708E+00
        -11   -1    0    0    0    0  0.00000000000E+00  0.00000000000E+00  0.45593999997E+02  0.45594000000E+02  0.51100000000E-03 0.  1.
         11   -1    0    0    0    0 -0.00000000000E+00 -0.00000000000E+00 -0.45593999997E+02  0.45594000000E+02  0.51100000000E-03 0. -1.
    9900012    2    1    2    0    0 -0.33875471222E+01  0.17987962350E+02 -0.39545255199E+01  0.72461533780E+02  0.69999952433E+02 0.  0.
        -12    1    1    2    0    0  0.33875471222E+01 -0.17987962350E+02  0.39545255199E+01  0.18726466220E+02  0.00000000000E+00 0.  1.
         11    1    3    3    0    0 -0.30818163047E+02  0.23390944597E+02  0.50108192358E+01  0.39012866754E+02  0.51100000000E-03 0. -1.
        -11    1    3    3    0    0  0.50798276693E+01 -0.32038446272E+01 -0.92022971476E+01  0.10988700678E+02  0.51100000000E-03 0.  1.
        -12    1    3    3    0    0  0.22350788255E+02 -0.21991376196E+01  0.23695239180E+00  0.22459966348E+02  0.00000000000E+00 0.  1.
</event>
<event>
 7    1  0.3508738E-013  0.7246158E+02  0.7816164E-02  0.1226708E+00
        -11   -1    0    0    0    0  0.00000000000E+00  0.00000000000E+00  0.45593999997E+02  0.45594000000E+02  0.51100000000E-03 0. -1.
         11   -1    0    0    0    0 -0.00000000000E+00 -0.00000000000E+00 -0.45593999997E+02  0.45594000000E+02  0.51100000000E-03 0.  1.
    9900012    2    1    2    0    0 -0.15350161999E+02 -0.33859626977E+01 -0.10177750070E+02  0.72461579806E+02  0.70000012391E+02 0.  0.
        -12    1    1    2    0    0  0.15350161999E+02  0.33859626977E+01  0.10177750070E+02  0.18726420194E+02  0.00000000000E+00 0.  1.
         11    1    3    3    0    0 -0.76571456446E+01 -0.41885192843E+01  0.19349618271E+02  0.21226947513E+02  0.51100000000E-03 0. -1.
        -11    1    3    3    0    0 -0.12629572003E+02  0.18402796906E+02 -0.99099651827E+01  0.24420819665E+02  0.51100000000E-03 0.  1.
        -12    1    3    3    0    0  0.49365556490E+01 -0.17600240319E+02 -0.19617403158E+02  0.26813812628E+02  0.00000000000E+00 0.  1.
</event>
<event>
 7    1  0.3508738E-013  0.7246182E+02  0.7816164E-02  0.1226707E+00
        -11   -1    0    0    0    0  0.00000000000E+00  0.00000000000E+00  0.45593999997E+02  0.45594000000E+02  0.51100000000E-03 0. -1.
         11   -1    0    0    0    0 -0.00000000000E+00 -0.00000000000E+00 -0.45593999997E+02  0.45594000000E+02  0.51100000000E-03 0.  1.
    9900012    2    1    2    0    0  0.93735316423E+01  0.13804315303E+02 -0.84998510095E+01  0.72461823572E+02  0.70000329940E+02 0.  0.
        -12    1    1    2    0    0 -0.93735316423E+01 -0.13804315303E+02  0.84998510095E+01  0.18726176428E+02  0.00000000000E+00 0.  1.
         11    1    3    3    0    0 -0.97616463845E+01 -0.59299395190E+01 -0.89081019707E+01  0.14484757638E+02  0.51100000000E-03 0. -1.
        -11    1    3    3    0    0  0.26585774507E+02 -0.23354904826E+01 -0.14449261306E+02  0.30348625578E+02  0.51100000000E-03 0.  1.
         12    1    3    3    0    0 -0.74505964804E+01  0.22069745305E+02  0.14857512267E+02  0.27628440356E+02  0.00000000000E+00 0. -1.
</event>
<event>
 7    1  0.3508738E-013  0.7246156E+02  0.7816164E-02  0.1226708E+00
        -11   -1    0    0    0    0  0.00000000000E+00  0.00000000000E+00  0.45593999997E+02  0.45594000000E+02  0.51100000000E-03 0.  1.
         11   -1    0    0    0    0 -0.00000000000E+00 -0.00000000000E+00 -0.45593999997E+02  0.45594000000E+02  0.51100000000E-03 0. -1.
    9900012    2    1    2    0    0 -0.41659584495E+01 -0.27947632831E+01 -0.18041994423E+02  0.72461562155E+02  0.69999989396E+02 0.  0.
        -12    1    1    2    0    0  0.41659584495E+01  0.27947632831E+01  0.18041994423E+02  0.18726437845E+02  0.00000000000E+00 0.  1.
         11    1    3    3    0    0  0.49411224201E+01 -0.16989788787E+02 -0.29267751841E+02  0.34200422686E+02  0.51100000000E-03 0. -1.
        -11    1    3    3    0    0 -0.71296778963E+01  0.29448007420E+01 -0.10904322349E+02  0.13356960900E+02  0.51100000000E-03 0.  1.
        -12    1    3    3    0    0 -0.19774029733E+01  0.11250224762E+02  0.22130079767E+02  0.24904178569E+02  0.00000000000E+00 0.  1.
</event>
<event>
 7    1  0.3508738E-013  0.7246162E+02  0.7816164E-02  0.1226708E+00
        -11   -1    0    0    0    0  0.00000000000E+00  0.00000000000E+00  0.45593999997E+02  0.45594000000E+02  0.51100000000E-03 0.  1.
         11   -1    0    0    0    0 -0.00000000000E+00 -0.00000000000E+00 -0.45593999997E+02  0.45594000000E+02  0.51100000000E-03 0. -1.
    9900012    2    1    2    0    0 -0.16771694993E+02 -0.54869920427E+01 -0.62674067955E+01  0.72461622279E+02  0.70000067719E+02 0.  0.
        -12    1    1    2    0    0  0.16771694993E+02  0.54869920427E+01  0.62674067955E+01  0.18726377721E+02  0.00000000000E+00 0.  1.
         11    1    3    3    0    0  0.18940874284E+02  0.67058799778E+01 -0.79413583083E+01  0.21605340011E+02  0.51100000000E-03 0. -1.
        -11    1    3    3    0    0 -0.15103433680E+02  0.14646504351E+01 -0.14760130231E+02  0.21168853406E+02  0.51100000000E-03 0.  1.
        -12    1    3    3    0    0 -0.20609135598E+02 -0.13657522456E+02  0.16434081743E+02  0.29687428862E+02  0.00000000000E+00 0.  1.
</event>
<event>
 7    1  0.3508738E-013  0.7246153E+02  0.7816164E-02  0.1226708E+00
        -11   -1    0    0    0    0  0.00000000000E+00  0.00000000000E+00  0.45593999997E+02  0.45594000000E+02  0.51100000000E-03 0. -1.
         11   -1    0    0    0    0 -0.00000000000E+00 -0.00000000000E+00 -0.45593999997E+02  0.45594000000E+02  0.51100000000E-03 0.  1.
    9900012    2    1    2    0    0 -0.54432053083E+01  0.15584169495E+02  0.88422730869E+01  0.72461531667E+02  0.69999949681E+02 0.  0.
        -12    1    1    2    0    0  0.54432053083E+01 -0.15584169495E+02 -0.88422730869E+01  0.18726468333E+02  0.00000000000E+00 0.  1.
         11    1    3    3    0    0 -0.11801198844E+02  0.26433331203E+02 -0.43502061202E+01  0.29273086380E+02  0.51100000000E-03 0. -1.
        -11    1    3    3    0    0 -0.73684647258E+01  0.72135861491E+01 -0.72862150279E+01  0.12626124791E+02  0.51100000000E-03 0.  1.
        -12    1    3    3    0    0  0.13726458262E+02 -0.18062747856E+02  0.20478694235E+02  0.30562320496E+02  0.00000000000E+00 0.  1.
</event>
<event>
 7    1  0.3508738E-013  0.7246158E+02  0.7816164E-02  0.1226708E+00
        -11   -1    0    0    0    0  0.00000000000E+00  0.00000000000E+00  0.45593999997E+02  0.45594000000E+02  0.51100000000E-03 0.  1.
         11   -1    0    0    0    0 -0.00000000000E+00 -0.00000000000E+00 -0.45593999997E+02  0.45594000000E+02  0.51100000000E-03 0. -1.
    9900012    2    1    2    0    0  0.52929457641E+01 -0.72388491714E+01 -0.16439662888E+02  0.72461582082E+02  0.70000015355E+02 0.  0.
        -12    1    1    2    0    0 -0.52929457641E+01  0.72388491714E+01  0.16439662888E+02  0.18726417918E+02  0.00000000000E+00 0.  1.
         11    1    3    3    0    0 -0.22264084574E+00  0.69082856455E+01 -0.45636422302E-01  0.69120230360E+01  0.51100000000E-03 0. -1.
        -11    1    3    3    0    0  0.12611926600E+02  0.12793021494E+02  0.15124582366E+02  0.23483506628E+02  0.51100000000E-03 0.  1.
         12    1    3    3    0    0 -0.70963399906E+01 -0.26940156311E+02 -0.31518608832E+02  0.42066052418E+02  0.00000000000E+00 0. -1.
</event>
<event>
 7    1  0.3508738E-013  0.7246155E+02  0.7816164E-02  0.1226708E+00
        -11   -1    0    0    0    0  0.00000000000E+00  0.00000000000E+00  0.45593999997E+02  0.45594000000E+02  0.51100000000E-03 0.  1.
         11   -1    0    0    0    0 -0.00000000000E+00 -0.00000000000E+00 -0.45593999997E+02  0.45594000000E+02  0.51100000000E-03 0. -1.
    9900012    2    1    2    0    0  0.61842143673E+01  0.12626805468E+02 -0.12369291053E+02  0.72461545856E+02  0.69999968164E+02 0.  0.
        -12    1    1    2    0    0 -0.61842143673E+01 -0.12626805468E+02  0.12369291053E+02  0.18726454144E+02  0.00000000000E+00 0.  1.
         11    1    3    3    0    0  0.27944393516E+02  0.11308340318E+02  0.13398370379E+02  0.32989150016E+02  0.51100000000E-03 0. -1.
        -11    1    3    3    0    0  0.38571583142E+01  0.15133829046E+01 -0.50014441419E+01  0.64948011395E+01  0.51100000000E-03 0.  1.
        -12    1    3    3    0    0 -0.25617337463E+02 -0.19491775389E+00 -0.20766217290E+02  0.32977594700E+02  0.00000000000E+00 0.  1.
</event>
<event>
 7    1  0.3508738E-013  0.7246156E+02  0.7816164E-02  0.1226708E+00
        -11   -1    0    0    0    0  0.00000000000E+00  0.00000000000E+00  0.45593999997E+02  0.45594000000E+02  0.51100000000E-03 0.  1.
         11   -1    0    0    0    0 -0.00000000000E+00 -0.00000000000E+00 -0.45593999997E+02  0.45594000000E+02  0.51100000000E-03 0. -1.
    9900012    2    1    2    0    0 -0.56309915221E+00 -0.67486197343E+01 -0.17459058739E+02  0.72461556637E+02  0.69999982209E+02 0.  0.
        -12    1    1    2    0    0  0.56309915221E+00  0.67486197343E+01  0.17459058739E+02  0.18726443363E+02  0.00000000000E+00 0.  1.
         11    1    3    3    0    0 -0.41126893330E+01 -0.28676707163E+02 -0.33385588564E+01  0.29161853898E+02  0.51100000000E-03 0. -1.
        -11    1    3    3    0    0 -0.14968381921E+02  0.88206926552E+01 -0.17581213640E+01  0.17462762302E+02  0.51100000000E-03 0.  1.
         12    1    3    3    0    0  0.18517972101E+02  0.13107394774E+02 -0.12362378519E+02  0.25836940437E+02  0.00000000000E+00 0. -1.
</event>
<event>
 7    1  0.3508738E-013  0.7246151E+02  0.7816164E-02  0.1226708E+00
        -11   -1    0    0    0    0  0.00000000000E+00  0.00000000000E+00  0.45593999997E+02  0.45594000000E+02  0.51100000000E-03 0.  1.
         11   -1    0    0    0    0 -0.00000000000E+00 -0.00000000000E+00 -0.45593999997E+02  0.45594000000E+02  0.51100000000E-03 0. -1.
    9900012    2    1    2    0    0  0.12954235826E+02 -0.13489479347E+02  0.95026391593E+00  0.72461513933E+02  0.69999926579E+02 0.  0.
        -12    1    1    2    0    0 -0.12954235826E+02  0.13489479347E+02 -0.95026391593E+00  0.18726486067E+02  0.00000000000E+00 0.  1.
         11    1    3    3    0    0  0.88789580826E+01 -0.23647393974E+02 -0.10224432915E+02  0.27250214074E+02  0.51100000000E-03 0. -1.
        -11    1    3    3    0    0  0.18376655658E+02  0.78206036811E+01 -0.77094058245E+01  0.21407901661E+02  0.51100000000E-03 0.  1.
        -12    1    3    3    0    0 -0.14301377914E+02  0.23373109454E+01  0.18884102655E+02  0.23803398198E+02  0.00000000000E+00 0.  1.
</event>
<event>
 7    1  0.3508738E-013  0.7246158E+02  0.7816164E-02  0.1226708E+00
        -11   -1    0    0    0    0  0.00000000000E+00  0.00000000000E+00  0.45593999997E+02  0.45594000000E+02  0.51100000000E-03 0.  1.
         11   -1    0    0    0    0 -0.00000000000E+00 -0.00000000000E+00 -0.45593999997E+02  0.45594000000E+02  0.51100000000E-03 0. -1.
    9900012    2    1    2    0    0 -0.12720904924E+02 -0.32389046575E+01 -0.13355403090E+02  0.72461582373E+02  0.70000015735E+02 0.  0.
        -12    1    1    2    0    0  0.12720904924E+02  0.32389046575E+01  0.13355403090E+02  0.18726417627E+02  0.00000000000E+00 0.  1.
         11    1    3    3    0    0 -0.66941878373E+01  0.14906031624E+02 -0.18470976930E+02  0.24661283798E+02  0.51100000000E-03 0.  1.
        -11    1    3    3    0    0 -0.23006916214E+02 -0.11458595353E+02 -0.60517929738E+01  0.26405336574E+02  0.51100000000E-03 0. -1.
        -12    1    3    3    0    0  0.16980199128E+02 -0.66863409280E+01  0.11167366814E+02  0.21394962000E+02  0.00000000000E+00 0.  1.
</event>
<event>
 7    1  0.3508738E-013  0.7246160E+02  0.7816164E-02  0.1226708E+00
        -11   -1    0    0    0    0  0.00000000000E+00  0.00000000000E+00  0.45593999997E+02  0.45594000000E+02  0.51100000000E-03 0. -1.
         11   -1    0    0    0    0 -0.00000000000E+00 -0.00000000000E+00 -0.45593999997E+02  0.45594000000E+02  0.51100000000E-03 0.  1.
    9900012    2    1    2    0    0  0.91048632712E+01  0.44070440305E+01  0.15759366967E+02  0.72461595661E+02  0.70000033044E+02 0.  0.
        -12    1    1    2    0    0 -0.91048632712E+01 -0.44070440305E+01 -0.15759366967E+02  0.18726404339E+02  0.00000000000E+00 0.  1.
         11    1    3    3    0    0  0.18593145359E+02  0.29428777184E+02  0.13426292954E+02  0.37309828781E+02  0.51100000000E-03 0. -1.
        -11    1    3    3    0    0 -0.13565891167E+00  0.28216674408E+01 -0.42001284988E+01  0.50617477371E+01  0.51100000000E-03 0.  1.
        -12    1    3    3    0    0 -0.93526231765E+01 -0.27843400595E+02  0.65332025122E+01  0.30090019143E+02  0.00000000000E+00 0.  1.
</event>
<event>
 7    1  0.3508738E-013  0.7246158E+02  0.7816164E-02  0.1226708E+00
        -11   -1    0    0    0    0  0.00000000000E+00  0.00000000000E+00  0.45593999997E+02  0.45594000000E+02  0.51100000000E-03 0.  1.
         11   -1    0    0    0    0 -0.00000000000E+00 -0.00000000000E+00 -0.45593999997E+02  0.45594000000E+02  0.51100000000E-03 0. -1.
    9900012    2    1    2    0    0  0.18021831913E+02 -0.27901826574E+01 -0.42552742086E+01  0.72461577401E+02  0.70000009257E+02 0.  0.
        -12    1    1    2    0    0 -0.18021831913E+02  0.27901826574E+01  0.42552742086E+01  0.18726422599E+02  0.00000000000E+00 0.  1.
         11    1    3    3    0    0 -0.16659124199E+02  0.25355746134E+01 -0.12246666594E+01  0.16895424422E+02  0.51100000000E-03 0. -1.
        -11    1    3    3    0    0  0.76346097984E+01  0.18136543683E+02 -0.12076311509E+01  0.19714965301E+02  0.51100000000E-03 0.  1.
        -12    1    3    3    0    0  0.27046346314E+02 -0.23462300954E+02 -0.18229763984E+01  0.35851187678E+02  0.00000000000E+00 0.  1.
</event>
<event>
 7    1  0.3508738E-013  0.7246147E+02  0.7816164E-02  0.1226708E+00
        -11   -1    0    0    0    0  0.00000000000E+00  0.00000000000E+00  0.45593999997E+02  0.45594000000E+02  0.51100000000E-03 0.  1.
         11   -1    0    0    0    0 -0.00000000000E+00 -0.00000000000E+00 -0.45593999997E+02  0.45594000000E+02  0.51100000000E-03 0. -1.
    9900012    2    1    2    0    0  0.80992714767E+01  0.92653887028E+01 -0.14115146952E+02  0.72461468027E+02  0.69999866778E+02 0.  0.
        -12    1    1    2    0    0 -0.80992714767E+01 -0.92653887028E+01  0.14115146952E+02  0.18726531973E+02  0.00000000000E+00 0.  1.
         11    1    3    3    0    0  0.42560404827E+01  0.11230476997E+02 -0.40211026330E+01  0.12665179068E+02  0.51100000000E-03 0. -1.
        -11    1    3    3    0    0 -0.28061731261E+01  0.20003918189E+02  0.15467504568E+02  0.25441600742E+02  0.51100000000E-03 0.  1.
         12    1    3    3    0    0  0.66494041200E+01 -0.21969006483E+02 -0.25561548887E+02  0.34354688217E+02  0.00000000000E+00 0. -1.
</event>
<event>
 7    1  0.3508738E-013  0.7246161E+02  0.7816164E-02  0.1226708E+00
        -11   -1    0    0    0    0  0.00000000000E+00  0.00000000000E+00  0.45593999997E+02  0.45594000000E+02  0.51100000000E-03 0.  1.
         11   -1    0    0    0    0 -0.00000000000E+00 -0.00000000000E+00 -0.45593999997E+02  0.45594000000E+02  0.51100000000E-03 0. -1.
    9900012    2    1    2    0    0 -0.16669942628E+02  0.65267065366E+01  0.54947819581E+01  0.72461614492E+02  0.70000057575E+02 0.  0.
        -12    1    1    2    0    0  0.16669942628E+02 -0.65267065366E+01 -0.54947819581E+01  0.18726385508E+02  0.00000000000E+00 0.  1.
         11    1    3    3    0    0 -0.65126045404E+00 -0.47690235527E+01  0.75846106136E+01  0.89829863768E+01  0.51100000000E-03 0. -1.
        -11    1    3    3    0    0 -0.21091271601E+02 -0.16531277067E+02  0.14720526205E+02  0.30574805825E+02  0.51100000000E-03 0.  1.
         12    1    3    3    0    0  0.50725894270E+01  0.27827007156E+02 -0.16810354860E+02  0.32903822290E+02  0.00000000000E+00 0. -1.
</event>
<event>
 7    1  0.3508738E-013  0.7246154E+02  0.7816164E-02  0.1226708E+00
        -11   -1    0    0    0    0  0.00000000000E+00  0.00000000000E+00  0.45593999997E+02  0.45594000000E+02  0.51100000000E-03 0.  1.
         11   -1    0    0    0    0 -0.00000000000E+00 -0.00000000000E+00 -0.45593999997E+02  0.45594000000E+02  0.51100000000E-03 0. -1.
    9900012    2    1    2    0    0  0.66630599795E+01 -0.26098119954E+01  0.17305278998E+02  0.72461543631E+02  0.69999965265E+02 0.  0.
        -12    1    1    2    0    0 -0.66630599795E+01  0.26098119954E+01 -0.17305278998E+02  0.18726456369E+02  0.00000000000E+00 0.  1.
         11    1    3    3    0    0  0.15673040992E+01  0.46200831225E+01  0.20860359367E+02  0.21423263136E+02  0.51100000000E-03 0. -1.
        -11    1    3    3    0    0  0.10504745222E+02 -0.86885345278E+01  0.21448851770E+02  0.25414435798E+02  0.51100000000E-03 0.  1.
         12    1    3    3    0    0 -0.54089893416E+01  0.14586394099E+01 -0.25003932139E+02  0.25623844697E+02  0.00000000000E+00 0. -1.
</event>
<event>
 7    1  0.3508738E-013  0.7246148E+02  0.7816164E-02  0.1226708E+00
        -11   -1    0    0    0    0  0.00000000000E+00  0.00000000000E+00  0.45593999997E+02  0.45594000000E+02  0.51100000000E-03 0. -1.
         11   -1    0    0    0    0 -0.00000000000E+00 -0.00000000000E+00 -0.45593999997E+02  0.45594000000E+02  0.51100000000E-03 0.  1.
    9900012    2    1    2    0    0 -0.40933363406E+01  0.14170621706E+02  0.11537790146E+02  0.72461480746E+02  0.69999883346E+02 0.  0.
        -12    1    1    2    0    0  0.40933363406E+01 -0.14170621706E+02 -0.11537790146E+02  0.18726519254E+02  0.00000000000E+00 0.  1.
         11    1    3    3    0    0 -0.22705317934E+02  0.60569121359E+01  0.10038409975E+02  0.25553616616E+02  0.51100000000E-03 0. -1.
        -11    1    3    3    0    0 -0.12002348432E+02  0.55824637830E+01  0.80578553570E+01  0.15496751369E+02  0.51100000000E-03 0.  1.
        -12    1    3    3    0    0  0.30614330025E+02  0.25312457871E+01 -0.65584751866E+01  0.31411112761E+02  0.00000000000E+00 0.  1.
</event>
<event>
 7    1  0.3508738E-013  0.7246159E+02  0.7816164E-02  0.1226708E+00
        -11   -1    0    0    0    0  0.00000000000E+00  0.00000000000E+00  0.45593999997E+02  0.45594000000E+02  0.51100000000E-03 0. -1.
         11   -1    0    0    0    0 -0.00000000000E+00 -0.00000000000E+00 -0.45593999997E+02  0.45594000000E+02  0.51100000000E-03 0.  1.
    9900012    2    1    2    0    0  0.35675004890E+01  0.18195211147E+02  0.26240313204E+01  0.72461593276E+02  0.70000029937E+02 0.  0.
        -12    1    1    2    0    0 -0.35675004890E+01 -0.18195211147E+02 -0.26240313204E+01  0.18726406724E+02  0.00000000000E+00 0.  1.
         11    1    3    3    0    0  0.17545279295E+02  0.69733005023E+00  0.26723177632E+01  0.17761316878E+02  0.51100000000E-03 0. -1.
        -11    1    3    3    0    0 -0.76066090302E+01 -0.78516801651E+01 -0.19338678136E+02  0.22214721575E+02  0.51100000000E-03 0.  1.
         12    1    3    3    0    0 -0.63711697757E+01  0.25349561262E+02  0.19290391693E+02  0.32485554823E+02  0.00000000000E+00 0. -1.
</event>
<event>
 7    1  0.3508738E-013  0.7246157E+02  0.7816164E-02  0.1226708E+00
        -11   -1    0    0    0    0  0.00000000000E+00  0.00000000000E+00  0.45593999997E+02  0.45594000000E+02  0.51100000000E-03 0.  1.
         11   -1    0    0    0    0 -0.00000000000E+00 -0.00000000000E+00 -0.45593999997E+02  0.45594000000E+02  0.51100000000E-03 0. -1.
    9900012    2    1    2    0    0  0.15007280351E+02 -0.10849898408E+02 -0.27821793959E+01  0.72461567313E+02  0.69999996116E+02 0.  0.
        -12    1    1    2    0    0 -0.15007280351E+02  0.10849898408E+02  0.27821793959E+01  0.18726432687E+02  0.00000000000E+00 0.  1.
         11    1    3    3    0    0  0.31405025677E+02  0.68979075575E+00 -0.16393596836E+02  0.35433056128E+02  0.51100000000E-03 0. -1.
        -11    1    3    3    0    0  0.24993017725E+01  0.72935781810E+01  0.38663547288E+01  0.86250502133E+01  0.51100000000E-03 0.  1.
         12    1    3    3    0    0 -0.18897047099E+02 -0.18833267345E+02  0.97450627116E+01  0.28403460972E+02  0.00000000000E+00 0. -1.
</event>
<event>
 7    1  0.3508738E-013  0.7246149E+02  0.7816164E-02  0.1226708E+00
        -11   -1    0    0    0    0  0.00000000000E+00  0.00000000000E+00  0.45593999997E+02  0.45594000000E+02  0.51100000000E-03 0. -1.
         11   -1    0    0    0    0 -0.00000000000E+00 -0.00000000000E+00 -0.45593999997E+02  0.45594000000E+02  0.51100000000E-03 0.  1.
    9900012    2    1    2    0    0  0.13005176073E+02  0.12962881558E+02 -0.36757622379E+01  0.72461491223E+02  0.69999896994E+02 0.  0.
        -12    1    1    2    0    0 -0.13005176073E+02 -0.12962881558E+02  0.36757622379E+01  0.18726508777E+02  0.00000000000E+00 0.  1.
         11    1    3    3    0    0 -0.97811256347E+01  0.22020523276E+02  0.72027672613E+01  0.25148632577E+02  0.51100000000E-03 0. -1.
        -11    1    3    3    0    0  0.83335488690E+01  0.71785816763E+01 -0.20714850658E+02  0.23453893273E+02  0.51100000000E-03 0.  1.
        -12    1    3    3    0    0  0.14452752838E+02 -0.16236223394E+02  0.98363211584E+01  0.23858965373E+02  0.00000000000E+00 0.  1.
</event>
<event>
 7    1  0.3508738E-013  0.7246162E+02  0.7816164E-02  0.1226708E+00
        -11   -1    0    0    0    0  0.00000000000E+00  0.00000000000E+00  0.45593999997E+02  0.45594000000E+02  0.51100000000E-03 0. -1.
         11   -1    0    0    0    0 -0.00000000000E+00 -0.00000000000E+00 -0.45593999997E+02  0.45594000000E+02  0.51100000000E-03 0.  1.
    9900012    2    1    2    0    0  0.15009732314E+02  0.35887796397E+01  0.10606880771E+02  0.72461619593E+02  0.70000064221E+02 0.  0.
        -12    1    1    2    0    0 -0.15009732314E+02 -0.35887796397E+01 -0.10606880771E+02  0.18726380407E+02  0.00000000000E+00 0.  1.
         11    1    3    3    0    0 -0.10683369711E+02  0.62405304280E+00 -0.35350663330E+01  0.11270338274E+02  0.51100000000E-03 0. -1.
        -11    1    3    3    0    0 -0.14091131296E+02  0.59169015613E+00  0.15955296472E+02  0.21295106580E+02  0.51100000000E-03 0.  1.
        -12    1    3    3    0    0  0.39784233321E+02  0.23730364408E+01 -0.18133493682E+01  0.39896174740E+02  0.00000000000E+00 0.  1.
</event>
<event>
 7    1  0.3508738E-013  0.7246159E+02  0.7816164E-02  0.1226708E+00
        -11   -1    0    0    0    0  0.00000000000E+00  0.00000000000E+00  0.45593999997E+02  0.45594000000E+02  0.51100000000E-03 0.  1.
         11   -1    0    0    0    0 -0.00000000000E+00 -0.00000000000E+00 -0.45593999997E+02  0.45594000000E+02  0.51100000000E-03 0. -1.
    9900012    2    1    2    0    0 -0.57911229350E+01 -0.17242202121E+02  0.44550696635E+01  0.72461593923E+02  0.70000030781E+02 0.  0.
        -12    1    1    2    0    0  0.57911229350E+01  0.17242202121E+02 -0.44550696635E+01  0.18726406077E+02  0.00000000000E+00 0.  1.
         11    1    3    3    0    0 -0.58207783138E+01 -0.26974198832E+01  0.37381215961E+00  0.64262951999E+01  0.51100000000E-03 0. -1.
        -11    1    3    3    0    0  0.17589309932E+02  0.20281286129E+02  0.27545562116E+00  0.26847537447E+02  0.51100000000E-03 0.  1.
         12    1    3    3    0    0 -0.17559654553E+02 -0.34826068367E+02  0.38058018827E+01  0.39187761277E+02  0.00000000000E+00 0. -1.
</event>
<event>
 7    1  0.3508738E-013  0.7246174E+02  0.7816164E-02  0.1226708E+00
        -11   -1    0    0    0    0  0.00000000000E+00  0.00000000000E+00  0.45593999997E+02  0.45594000000E+02  0.51100000000E-03 0.  1.
         11   -1    0    0    0    0 -0.00000000000E+00 -0.00000000000E+00 -0.45593999997E+02  0.45594000000E+02  0.51100000000E-03 0. -1.
    9900012    2    1    2    0    0  0.11732763686E+02  0.86292413029E+01 -0.11770778778E+02  0.72461740838E+02  0.70000222164E+02 0.  0.
        -12    1    1    2    0    0 -0.11732763686E+02 -0.86292413029E+01  0.11770778778E+02  0.18726259162E+02  0.00000000000E+00 0.  1.
         11    1    3    3    0    0  0.10280743111E+02 -0.80512401624E+01 -0.38528960182E+01  0.13614733014E+02  0.51100000000E-03 0. -1.
        -11    1    3    3    0    0  0.16654153047E+01  0.43431529218E+01 -0.31707957841E+02  0.32047327130E+02  0.51100000000E-03 0.  1.
        -12    1    3    3    0    0 -0.21339472916E+00  0.12337328543E+02  0.23790075081E+02  0.26799680694E+02  0.00000000000E+00 0.  1.
</event>
<event>
 7    1  0.3508738E-013  0.7246168E+02  0.7816164E-02  0.1226708E+00
        -11   -1    0    0    0    0  0.00000000000E+00  0.00000000000E+00  0.45593999997E+02  0.45594000000E+02  0.51100000000E-03 0. -1.
         11   -1    0    0    0    0 -0.00000000000E+00 -0.00000000000E+00 -0.45593999997E+02  0.45594000000E+02  0.51100000000E-03 0.  1.
    9900012    2    1    2    0    0 -0.33750057713E+01  0.90546954933E+01  0.16040476006E+02  0.72461680422E+02  0.70000143461E+02 0.  0.
        -12    1    1    2    0    0  0.33750057713E+01 -0.90546954933E+01 -0.16040476006E+02  0.18726319578E+02  0.00000000000E+00 0.  1.
         11    1    3    3    0    0  0.12993007902E+02 -0.15021864846E+02  0.12495944965E+00  0.19861779702E+02  0.51100000000E-03 0. -1.
        -11    1    3    3    0    0  0.10733767762E+02  0.34242314433E+01 -0.53105060357E+01  0.12455545190E+02  0.51100000000E-03 0.  1.
        -12    1    3    3    0    0 -0.27101781436E+02  0.20652328896E+02  0.21226022592E+02  0.40144355530E+02  0.00000000000E+00 0.  1.
</event>
<event>
 7    1  0.3508738E-013  0.7246158E+02  0.7816164E-02  0.1226708E+00
        -11   -1    0    0    0    0  0.00000000000E+00  0.00000000000E+00  0.45593999997E+02  0.45594000000E+02  0.51100000000E-03 0.  1.
         11   -1    0    0    0    0 -0.00000000000E+00 -0.00000000000E+00 -0.45593999997E+02  0.45594000000E+02  0.51100000000E-03 0. -1.
    9900012    2    1    2    0    0  0.15663958709E+02 -0.10125929997E+02  0.16687888923E+01  0.72461577034E+02  0.70000008780E+02 0.  0.
        -12    1    1    2    0    0 -0.15663958709E+02  0.10125929997E+02 -0.16687888923E+01  0.18726422966E+02  0.00000000000E+00 0.  1.
         11    1    3    3    0    0  0.22580140728E+02 -0.65403316983E+01 -0.14388566055E+01  0.23552261094E+02  0.51100000000E-03 0. -1.
        -11    1    3    3    0    0 -0.14660906230E+02  0.19511187651E+02  0.25970595599E+01  0.24543295086E+02  0.51100000000E-03 0.  1.
         12    1    3    3    0    0  0.77447242107E+01 -0.23096785949E+02  0.51058593791E+00  0.24366020855E+02  0.00000000000E+00 0. -1.
</event>
<event>
 7    1  0.3508738E-013  0.7246162E+02  0.7816164E-02  0.1226708E+00
        -11   -1    0    0    0    0  0.00000000000E+00  0.00000000000E+00  0.45593999997E+02  0.45594000000E+02  0.51100000000E-03 0. -1.
         11   -1    0    0    0    0 -0.00000000000E+00 -0.00000000000E+00 -0.45593999997E+02  0.45594000000E+02  0.51100000000E-03 0.  1.
    9900012    2    1    2    0    0  0.69213132745E+01 -0.97602466871E+01  0.14405223996E+02  0.72461615640E+02  0.70000059071E+02 0.  0.
        -12    1    1    2    0    0 -0.69213132745E+01  0.97602466871E+01 -0.14405223996E+02  0.18726384360E+02  0.00000000000E+00 0.  1.
         11    1    3    3    0    0 -0.62892615570E+01 -0.80568835655E+01  0.23517625109E+02  0.25642676825E+02  0.51100000000E-03 0. -1.
        -11    1    3    3    0    0 -0.13699022927E+01 -0.21351659612E+02 -0.54533573354E+01  0.22079608397E+02  0.51100000000E-03 0.  1.
         12    1    3    3    0    0  0.14580477124E+02  0.19648296490E+02 -0.36590437778E+01  0.24739330418E+02  0.00000000000E+00 0. -1.
</event>
<event>
 7    1  0.3508738E-013  0.7246160E+02  0.7816164E-02  0.1226708E+00
        -11   -1    0    0    0    0  0.00000000000E+00  0.00000000000E+00  0.45593999997E+02  0.45594000000E+02  0.51100000000E-03 0. -1.
         11   -1    0    0    0    0 -0.00000000000E+00 -0.00000000000E+00 -0.45593999997E+02  0.45594000000E+02  0.51100000000E-03 0.  1.
    9900012    2    1    2    0    0 -0.15433258172E+02 -0.42782379127E+01  0.97051107870E+01  0.72461602780E+02  0.70000042319E+02 0.  0.
        -12    1    1    2    0    0  0.15433258172E+02  0.42782379127E+01 -0.97051107870E+01  0.18726397220E+02  0.00000000000E+00 0.  1.
         11    1    3    3    0    0  0.10989900397E+02  0.11792215523E+02  0.12693100856E+02  0.20517043337E+02  0.51100000000E-03 0. -1.
        -11    1    3    3    0    0  0.89102297763E+01 -0.29171588802E+01  0.83705132051E+01  0.12568512329E+02  0.51100000000E-03 0.  1.
         12    1    3    3    0    0 -0.35333388346E+02 -0.13153294556E+02 -0.11358503274E+02  0.39376047114E+02  0.00000000000E+00 0. -1.
</event>
<event>
 7    1  0.4633022E-013  0.7246156E+02  0.7816164E-02  0.1226708E+00
        -11   -1    0    0    0    0  0.00000000000E+00  0.00000000000E+00  0.45593999997E+02  0.45594000000E+02  0.51100000000E-03 0. -1.
         11   -1    0    0    0    0 -0.00000000000E+00 -0.00000000000E+00 -0.45593999997E+02  0.45594000000E+02  0.51100000000E-03 0.  1.
    9900012    2    1    2    0    0 -0.43694415392E+01 -0.72144214162E+01  0.16719442665E+02  0.72461557232E+02  0.69999982983E+02 0.  0.
        -12    1    1    2    0    0  0.43694415392E+01  0.72144214162E+01 -0.16719442665E+02  0.18726442768E+02  0.00000000000E+00 0.  1.
         11    1    3    3    0    0 -0.41761810279E+01  0.16319441174E+02  0.17121444665E+02  0.24018919957E+02  0.51100000000E-03 0. -1.
        -11    1    3    3    0    0 -0.98949922573E+01  0.17186524061E+01 -0.14731911177E+02  0.17829577815E+02  0.51100000000E-03 0.  1.
        -12    1    3    3    0    0  0.97017317461E+01 -0.25252514996E+02  0.14329909177E+02  0.30613059460E+02  0.00000000000E+00 0.  1.
</event>
<event>
 7    1  0.3508738E-013  0.7246157E+02  0.7816164E-02  0.1226708E+00
        -11   -1    0    0    0    0  0.00000000000E+00  0.00000000000E+00  0.45593999997E+02  0.45594000000E+02  0.51100000000E-03 0.  1.
         11   -1    0    0    0    0 -0.00000000000E+00 -0.00000000000E+00 -0.45593999997E+02  0.45594000000E+02  0.51100000000E-03 0. -1.
    9900012    2    1    2    0    0  0.10678062433E+02 -0.85700117837E+01 -0.12775489945E+02  0.72461567809E+02  0.69999996762E+02 0.  0.
        -12    1    1    2    0    0 -0.10678062433E+02  0.85700117837E+01  0.12775489945E+02  0.18726432191E+02  0.00000000000E+00 0.  1.
         11    1    3    3    0    0 -0.38987678889E+01 -0.16075271782E+01 -0.19233887791E+02  0.19690783999E+02  0.51100000000E-03 0. -1.
        -11    1    3    3    0    0 -0.47231140778E+01  0.19131754238E+02  0.47458333954E+01  0.20269552577E+02  0.51100000000E-03 0.  1.
         12    1    3    3    0    0  0.19299944399E+02 -0.26094238843E+02  0.17125644507E+01  0.32501231232E+02  0.00000000000E+00 0. -1.
</event>
<event>
 7    1  0.4887623E-013  0.7246158E+02  0.7816164E-02  0.1226708E+00
        -11   -1    0    0    0    0  0.00000000000E+00  0.00000000000E+00  0.45593999997E+02  0.45594000000E+02  0.51100000000E-03 0. -1.
         11   -1    0    0    0    0 -0.00000000000E+00 -0.00000000000E+00 -0.45593999997E+02  0.45594000000E+02  0.51100000000E-03 0.  1.
    9900012    2    1    2    0    0  0.34229857337E+01  0.76159325102E+01  0.16761851238E+02  0.72461577056E+02  0.70000008808E+02 0.  0.
        -12    1    1    2    0    0 -0.34229857337E+01 -0.76159325102E+01 -0.16761851238E+02  0.18726422944E+02  0.00000000000E+00 0.  1.
         11    1    3    3    0    0  0.15932726944E+02  0.19446083553E+02  0.27933604343E+02  0.37580423165E+02  0.51100000000E-03 0. -1.
        -11    1    3    3    0    0 -0.13380647678E+02  0.39937326906E+01  0.22119266951E+01  0.14138042759E+02  0.51100000000E-03 0.  1.
        -12    1    3    3    0    0  0.87090646703E+00 -0.15823883733E+02 -0.13383679800E+02  0.20743111132E+02  0.00000000000E+00 0.  1.
</event>
<event>
 7    1  0.3508738E-013  0.7246165E+02  0.7816164E-02  0.1226708E+00
        -11   -1    0    0    0    0  0.00000000000E+00  0.00000000000E+00  0.45593999997E+02  0.45594000000E+02  0.51100000000E-03 0. -1.
         11   -1    0    0    0    0 -0.00000000000E+00 -0.00000000000E+00 -0.45593999997E+02  0.45594000000E+02  0.51100000000E-03 0.  1.
    9900012    2    1    2    0    0 -0.18107740868E+02 -0.23399354345E+01 -0.41606192888E+01  0.72461646109E+02  0.70000098763E+02 0.  0.
        -12    1    1    2    0    0  0.18107740868E+02  0.23399354345E+01  0.41606192888E+01  0.18726353891E+02  0.00000000000E+00 0.  1.
         11    1    3    3    0    0 -0.14513079064E+02  0.40619370442E+01 -0.28737686872E+02  0.32449706370E+02  0.51100000000E-03 0. -1.
        -11    1    3    3    0    0  0.17627999230E+01 -0.13158002337E+02 -0.71068100474E+00  0.13294568696E+02  0.51100000000E-03 0.  1.
         12    1    3    3    0    0 -0.53574617265E+01  0.67561298579E+01  0.25287748588E+02  0.26717371043E+02  0.00000000000E+00 0. -1.
</event>
<event>
 7    1  0.3508738E-013  0.7246150E+02  0.7816164E-02  0.1226708E+00
        -11   -1    0    0    0    0  0.00000000000E+00  0.00000000000E+00  0.45593999997E+02  0.45594000000E+02  0.51100000000E-03 0.  1.
         11   -1    0    0    0    0 -0.00000000000E+00 -0.00000000000E+00 -0.45593999997E+02  0.45594000000E+02  0.51100000000E-03 0. -1.
    9900012    2    1    2    0    0 -0.78651138640E+00 -0.17879616363E+02  0.55120266186E+01  0.72461502226E+02  0.69999911328E+02 0.  0.
        -12    1    1    2    0    0  0.78651138640E+00  0.17879616363E+02 -0.55120266186E+01  0.18726497774E+02  0.00000000000E+00 0.  1.
         11    1    3    3    0    0 -0.38455791409E+01 -0.27362356176E+01 -0.16529962284E+02  0.17190553151E+02  0.51100000000E-03 0. -1.
        -11    1    3    3    0    0 -0.15440441363E+02 -0.12179619618E+02 -0.68596126056E+01  0.20827977552E+02  0.51100000000E-03 0.  1.
         12    1    3    3    0    0  0.18499509117E+02 -0.29637611272E+01  0.28901601508E+02  0.34442971523E+02  0.00000000000E+00 0. -1.
</event>
<event>
 7    1  0.3508738E-013  0.7246161E+02  0.7816164E-02  0.1226708E+00
        -11   -1    0    0    0    0  0.00000000000E+00  0.00000000000E+00  0.45593999997E+02  0.45594000000E+02  0.51100000000E-03 0.  1.
         11   -1    0    0    0    0 -0.00000000000E+00 -0.00000000000E+00 -0.45593999997E+02  0.45594000000E+02  0.51100000000E-03 0. -1.
    9900012    2    1    2    0    0 -0.67533452152E+01  0.16049593046E+02  0.68906034226E+01  0.72461614229E+02  0.70000057233E+02 0.  0.
        -12    1    1    2    0    0  0.67533452152E+01 -0.16049593046E+02 -0.68906034226E+01  0.18726385771E+02  0.00000000000E+00 0.  1.
         11    1    3    3    0    0  0.14859419836E+02 -0.53803498256E+01  0.62620152401E+01  0.16998922238E+02  0.51100000000E-03 0. -1.
        -11    1    3    3    0    0  0.11593688154E+02  0.14557921976E+02  0.87937779817E+01  0.20583421211E+02  0.51100000000E-03 0.  1.
        -12    1    3    3    0    0 -0.33206453206E+02  0.68720208955E+01 -0.81651897992E+01  0.34879270780E+02  0.00000000000E+00 0.  1.
</event>
<event>
 7    1  0.3508738E-013  0.7246150E+02  0.7816164E-02  0.1226708E+00
        -11   -1    0    0    0    0  0.00000000000E+00  0.00000000000E+00  0.45593999997E+02  0.45594000000E+02  0.51100000000E-03 0. -1.
         11   -1    0    0    0    0 -0.00000000000E+00 -0.00000000000E+00 -0.45593999997E+02  0.45594000000E+02  0.51100000000E-03 0.  1.
    9900012    2    1    2    0    0 -0.94896175343E+01  0.15070669749E+02  0.57882377291E+01  0.72461504769E+02  0.69999914641E+02 0.  0.
        -12    1    1    2    0    0  0.94896175343E+01 -0.15070669749E+02 -0.57882377291E+01  0.18726495231E+02  0.00000000000E+00 0.  1.
         11    1    3    3    0    0  0.10650958670E+02  0.88044298377E+01 -0.10397496651E+02  0.17293606976E+02  0.51100000000E-03 0. -1.
        -11    1    3    3    0    0 -0.10810133111E+02  0.24781042086E+02 -0.26378604660E+01  0.27164633861E+02  0.51100000000E-03 0.  1.
        -12    1    3    3    0    0 -0.93304430936E+01 -0.18514802174E+02  0.18823594846E+02  0.28003263932E+02  0.00000000000E+00 0.  1.
</event>
<event>
 7    1  0.3508738E-013  0.7246154E+02  0.7816164E-02  0.1226708E+00
        -11   -1    0    0    0    0  0.00000000000E+00  0.00000000000E+00  0.45593999997E+02  0.45594000000E+02  0.51100000000E-03 0.  1.
         11   -1    0    0    0    0 -0.00000000000E+00 -0.00000000000E+00 -0.45593999997E+02  0.45594000000E+02  0.51100000000E-03 0. -1.
    9900012    2    1    2    0    0 -0.17063419689E+02 -0.56164878793E+01 -0.52891488968E+01  0.72461539480E+02  0.69999959858E+02 0.  0.
        -12    1    1    2    0    0  0.17063419689E+02  0.56164878793E+01  0.52891488968E+01  0.18726460520E+02  0.00000000000E+00 0.  1.
         11    1    3    3    0    0  0.16031773315E+01 -0.94127229525E+01  0.13133890464E+02  0.16237875782E+02  0.51100000000E-03 0. -1.
        -11    1    3    3    0    0 -0.22779578513E+02  0.15549215331E+02  0.65240321885E+01  0.28341670574E+02  0.51100000000E-03 0.  1.
         12    1    3    3    0    0  0.41129814930E+01 -0.11752980258E+02 -0.24947071549E+02  0.27881993124E+02  0.00000000000E+00 0. -1.
</event>
<event>
 7    1  0.3508738E-013  0.7246159E+02  0.7816164E-02  0.1226708E+00
        -11   -1    0    0    0    0  0.00000000000E+00  0.00000000000E+00  0.45593999997E+02  0.45594000000E+02  0.51100000000E-03 0.  1.
         11   -1    0    0    0    0 -0.00000000000E+00 -0.00000000000E+00 -0.45593999997E+02  0.45594000000E+02  0.51100000000E-03 0. -1.
    9900012    2    1    2    0    0 -0.16412285286E+01  0.87619763837E+01 -0.16468534460E+02  0.72461588478E+02  0.70000023687E+02 0.  0.
        -12    1    1    2    0    0  0.16412285286E+01 -0.87619763837E+01  0.16468534460E+02  0.18726411522E+02  0.00000000000E+00 0.  1.
         11    1    3    3    0    0 -0.56813242459E+01 -0.11684975189E+02 -0.18730740481E+02  0.22795980558E+02  0.51100000000E-03 0. -1.
        -11    1    3    3    0    0 -0.12123447363E+02 -0.52310897183E+00 -0.14052066931E+02  0.18566426804E+02  0.51100000000E-03 0.  1.
        -12    1    3    3    0    0  0.16163543080E+02  0.20970060545E+02  0.16314272952E+02  0.31099181116E+02  0.00000000000E+00 0.  1.
</event>
<event>
 7    1  0.3508738E-013  0.7246177E+02  0.7816164E-02  0.1226707E+00
        -11   -1    0    0    0    0  0.00000000000E+00  0.00000000000E+00  0.45593999997E+02  0.45594000000E+02  0.51100000000E-03 0.  1.
         11   -1    0    0    0    0 -0.00000000000E+00 -0.00000000000E+00 -0.45593999997E+02  0.45594000000E+02  0.51100000000E-03 0. -1.
    9900012    2    1    2    0    0  0.93706568011E+01 -0.13436186512E+02 -0.90736574399E+01  0.72461773039E+02  0.70000264112E+02 0.  0.
        -12    1    1    2    0    0 -0.93706568011E+01  0.13436186512E+02  0.90736574399E+01  0.18726226961E+02  0.00000000000E+00 0.  1.
         11    1    3    3    0    0  0.11348250754E+02  0.13628583207E+02 -0.21198733713E+02  0.27638874556E+02  0.51100000000E-03 0. -1.
        -11    1    3    3    0    0  0.14423530780E+01 -0.18090288358E+01 -0.10494557867E+02  0.10746567490E+02  0.51100000000E-03 0.  1.
        -12    1    3    3    0    0 -0.34199470312E+01 -0.25255740883E+02  0.22619634140E+02  0.34076330993E+02  0.00000000000E+00 0.  1.
</event>
<event>
 7    1  0.3508738E-013  0.7246143E+02  0.7816164E-02  0.1226708E+00
        -11   -1    0    0    0    0  0.00000000000E+00  0.00000000000E+00  0.45593999997E+02  0.45594000000E+02  0.51100000000E-03 0.  1.
         11   -1    0    0    0    0 -0.00000000000E+00 -0.00000000000E+00 -0.45593999997E+02  0.45594000000E+02  0.51100000000E-03 0. -1.
    9900012    2    1    2    0    0  0.86597599840E+00 -0.75091013088E+01 -0.17133239752E+02  0.72461430071E+02  0.69999817333E+02 0.  0.
        -12    1    1    2    0    0 -0.86597599840E+00  0.75091013088E+01  0.17133239752E+02  0.18726569929E+02  0.00000000000E+00 0.  1.
         11    1    3    3    0    0  0.25955288070E+01 -0.84939594406E+01 -0.15767274330E+02  0.18096713979E+02  0.51100000000E-03 0. -1.
        -11    1    3    3    0    0  0.24705449672E+02 -0.76364212701E+01  0.36358660202E+01  0.26113094326E+02  0.51100000000E-03 0.  1.
         12    1    3    3    0    0 -0.26435002480E+02  0.86212794019E+01 -0.50018314421E+01  0.28251621766E+02  0.00000000000E+00 0. -1.
</event>
<event>
 7    1  0.3508738E-013  0.7246177E+02  0.7816164E-02  0.1226707E+00
        -11   -1    0    0    0    0  0.00000000000E+00  0.00000000000E+00  0.45593999997E+02  0.45594000000E+02  0.51100000000E-03 0.  1.
         11   -1    0    0    0    0 -0.00000000000E+00 -0.00000000000E+00 -0.45593999997E+02  0.45594000000E+02  0.51100000000E-03 0. -1.
    9900012    2    1    2    0    0  0.10588165696E+01 -0.18632866826E+02  0.15384399457E+01  0.72461771972E+02  0.70000262723E+02 0.  0.
        -12    1    1    2    0    0 -0.10588165696E+01  0.18632866826E+02 -0.15384399457E+01  0.18726228028E+02  0.00000000000E+00 0.  1.
         11    1    3    3    0    0  0.31130786860E+01  0.45809835483E+01 -0.88722103909E+01  0.10459100662E+02  0.51100000000E-03 0. -1.
        -11    1    3    3    0    0  0.20483960911E+02 -0.34527148987E+01  0.21637207682E+02  0.29994710389E+02  0.51100000000E-03 0.  1.
        -12    1    3    3    0    0 -0.22538223027E+02 -0.19761135475E+02 -0.11226557346E+02  0.32007960921E+02  0.00000000000E+00 0.  1.
</event>
<event>
 7    1  0.3508738E-013  0.7246150E+02  0.7816164E-02  0.1226708E+00
        -11   -1    0    0    0    0  0.00000000000E+00  0.00000000000E+00  0.45593999997E+02  0.45594000000E+02  0.51100000000E-03 0.  1.
         11   -1    0    0    0    0 -0.00000000000E+00 -0.00000000000E+00 -0.45593999997E+02  0.45594000000E+02  0.51100000000E-03 0. -1.
    9900012    2    1    2    0    0  0.32260039627E+01 -0.12746871674E+02 -0.13333868171E+02  0.72461497939E+02  0.69999905744E+02 0.  0.
        -12    1    1    2    0    0 -0.32260039627E+01  0.12746871674E+02  0.13333868171E+02  0.18726502061E+02  0.00000000000E+00 0.  1.
         11    1    3    3    0    0 -0.30924151613E+01 -0.37860449184E+01 -0.19369173196E+02  0.19976537193E+02  0.51100000000E-03 0. -1.
        -11    1    3    3    0    0 -0.18528131007E+02 -0.60005035909E+01  0.16341558849E+02  0.25423300883E+02  0.51100000000E-03 0.  1.
         12    1    3    3    0    0  0.24846550131E+02 -0.29603231643E+01 -0.10306253824E+02  0.27061659863E+02  0.00000000000E+00 0. -1.
</event>
<event>
 7    1  0.3508738E-013  0.7246158E+02  0.7816164E-02  0.1226708E+00
        -11   -1    0    0    0    0  0.00000000000E+00  0.00000000000E+00  0.45593999997E+02  0.45594000000E+02  0.51100000000E-03 0.  1.
         11   -1    0    0    0    0 -0.00000000000E+00 -0.00000000000E+00 -0.45593999997E+02  0.45594000000E+02  0.51100000000E-03 0. -1.
    9900012    2    1    2    0    0 -0.18320402658E+02  0.38682904655E+01  0.27897441693E+00  0.72461584128E+02  0.70000018021E+02 0.  0.
        -12    1    1    2    0    0  0.18320402658E+02 -0.38682904655E+01 -0.27897441693E+00  0.18726415872E+02  0.00000000000E+00 0.  1.
         11    1    3    3    0    0  0.30433557289E+01  0.10287320468E+02  0.32006218439E+00  0.10732819600E+02  0.51100000000E-03 0. -1.
        -11    1    3    3    0    0  0.15588297920E+02 -0.16448583454E+02 -0.47413838496E+01  0.23152357348E+02  0.51100000000E-03 0.  1.
         12    1    3    3    0    0 -0.36952056307E+02  0.10029553452E+02  0.47002960822E+01  0.38576407181E+02  0.00000000000E+00 0. -1.
</event>
<event>
 7    1  0.3508738E-013  0.7246111E+02  0.7816164E-02  0.1226709E+00
        -11   -1    0    0    0    0  0.00000000000E+00  0.00000000000E+00  0.45593999997E+02  0.45594000000E+02  0.51100000000E-03 0.  1.
         11   -1    0    0    0    0 -0.00000000000E+00 -0.00000000000E+00 -0.45593999997E+02  0.45594000000E+02  0.51100000000E-03 0. -1.
    9900012    2    1    2    0    0  0.92331026042E+01  0.14077269895E+02 -0.82022446363E+01  0.72461106812E+02  0.69999396225E+02 0.  0.
        -12    1    1    2    0    0 -0.92331026042E+01 -0.14077269895E+02  0.82022446363E+01  0.18726893188E+02  0.00000000000E+00 0.  1.
         11    1    3    3    0    0  0.26065942052E+02 -0.11959965956E+02 -0.19360795096E+01  0.28744086781E+02  0.51100000000E-03 0. -1.
        -11    1    3    3    0    0 -0.75397611809E+00 -0.44772974969E+01  0.56290342376E+01  0.72319222598E+01  0.51100000000E-03 0.  1.
        -12    1    3    3    0    0 -0.16078863330E+02  0.30514533349E+02 -0.11895199364E+02  0.36485097771E+02  0.00000000000E+00 0.  1.
</event>
<event>
 7    1  0.3508738E-013  0.7246166E+02  0.7816164E-02  0.1226708E+00
        -11   -1    0    0    0    0  0.00000000000E+00  0.00000000000E+00  0.45593999997E+02  0.45594000000E+02  0.51100000000E-03 0.  1.
         11   -1    0    0    0    0 -0.00000000000E+00 -0.00000000000E+00 -0.45593999997E+02  0.45594000000E+02  0.51100000000E-03 0. -1.
    9900012    2    1    2    0    0  0.13509200095E+02  0.12594225395E+02  0.30923758104E+01  0.72461660564E+02  0.70000117593E+02 0.  0.
        -12    1    1    2    0    0 -0.13509200095E+02 -0.12594225395E+02 -0.30923758104E+01  0.18726339436E+02  0.00000000000E+00 0.  1.
         11    1    3    3    0    0  0.33039790845E+02  0.52225351739E+01 -0.18865559450E+02  0.38403280932E+02  0.51100000000E-03 0. -1.
        -11    1    3    3    0    0  0.11708962122E+01  0.40370891081E+01  0.81650845424E+00  0.42820290428E+01  0.51100000000E-03 0.  1.
        -12    1    3    3    0    0 -0.20701486962E+02  0.33346011134E+01  0.21141426806E+02  0.29776350590E+02  0.00000000000E+00 0.  1.
</event>
<event>
 7    1  0.3508738E-013  0.7246160E+02  0.7816164E-02  0.1226708E+00
        -11   -1    0    0    0    0  0.00000000000E+00  0.00000000000E+00  0.45593999997E+02  0.45594000000E+02  0.51100000000E-03 0.  1.
         11   -1    0    0    0    0 -0.00000000000E+00 -0.00000000000E+00 -0.45593999997E+02  0.45594000000E+02  0.51100000000E-03 0. -1.
    9900012    2    1    2    0    0 -0.15444632343E+02  0.10589471810E+02 -0.68058199824E-01  0.72461595825E+02  0.70000033258E+02 0.  0.
        -12    1    1    2    0    0  0.15444632343E+02 -0.10589471810E+02  0.68058199824E-01  0.18726404175E+02  0.00000000000E+00 0.  1.
         11    1    3    3    0    0 -0.26543007771E+00  0.26943989231E+02  0.13235621708E+02  0.30020504510E+02  0.51100000000E-03 0. -1.
        -11    1    3    3    0    0  0.18668936665E+01 -0.56470282137E+01  0.10007345906E+02  0.11641356964E+02  0.51100000000E-03 0.  1.
         12    1    3    3    0    0 -0.17046095932E+02 -0.10707489207E+02 -0.23311025813E+02  0.30799734351E+02  0.00000000000E+00 0. -1.
</event>
<event>
 7    1  0.3508738E-013  0.7246157E+02  0.7816164E-02  0.1226708E+00
        -11   -1    0    0    0    0  0.00000000000E+00  0.00000000000E+00  0.45593999997E+02  0.45594000000E+02  0.51100000000E-03 0.  1.
         11   -1    0    0    0    0 -0.00000000000E+00 -0.00000000000E+00 -0.45593999997E+02  0.45594000000E+02  0.51100000000E-03 0. -1.
    9900012    2    1    2    0    0  0.24928824574E+01  0.14154431480E+02 -0.12004861411E+02  0.72461572392E+02  0.70000002732E+02 0.  0.
        -12    1    1    2    0    0 -0.24928824574E+01 -0.14154431480E+02  0.12004861411E+02  0.18726427608E+02  0.00000000000E+00 0.  1.
         11    1    3    3    0    0  0.10164347448E+02 -0.43356648862E+01  0.68019184146E+01  0.12976056544E+02  0.51100000000E-03 0.  1.
        -11    1    3    3    0    0  0.20844822564E+02  0.13411534048E+02  0.29612805858E+00  0.24788375609E+02  0.51100000000E-03 0. -1.
         12    1    3    3    0    0 -0.28516287555E+02  0.50785623180E+01 -0.19102907885E+02  0.34697140239E+02  0.00000000000E+00 0. -1.
</event>
<event>
 7    1  0.3508738E-013  0.7246175E+02  0.7816164E-02  0.1226708E+00
        -11   -1    0    0    0    0  0.00000000000E+00  0.00000000000E+00  0.45593999997E+02  0.45594000000E+02  0.51100000000E-03 0. -1.
         11   -1    0    0    0    0 -0.00000000000E+00 -0.00000000000E+00 -0.45593999997E+02  0.45594000000E+02  0.51100000000E-03 0.  1.
    9900012    2    1    2    0    0  0.13274432793E+02  0.35558377357E+01  0.12720770592E+02  0.72461746973E+02  0.70000230157E+02 0.  0.
        -12    1    1    2    0    0 -0.13274432793E+02 -0.35558377357E+01 -0.12720770592E+02  0.18726253027E+02  0.00000000000E+00 0.  1.
         11    1    3    3    0    0  0.12810258625E+01  0.39522617815E+01 -0.12898112469E+01  0.43502889288E+01  0.51100000000E-03 0. -1.
        -11    1    3    3    0    0  0.37749559085E+02  0.87331576471E+01  0.37709855281E+01  0.38929649185E+02  0.51100000000E-03 0.  1.
         12    1    3    3    0    0 -0.25756152154E+02 -0.91295816929E+01  0.10239596311E+02  0.29181808859E+02  0.00000000000E+00 0. -1.
</event>
<event>
 7    1  0.3508738E-013  0.7246162E+02  0.7816164E-02  0.1226708E+00
        -11   -1    0    0    0    0  0.00000000000E+00  0.00000000000E+00  0.45593999997E+02  0.45594000000E+02  0.51100000000E-03 0.  1.
         11   -1    0    0    0    0 -0.00000000000E+00 -0.00000000000E+00 -0.45593999997E+02  0.45594000000E+02  0.51100000000E-03 0. -1.
    9900012    2    1    2    0    0  0.10219162495E+02  0.12005482611E+02 -0.10105163175E+02  0.72461622411E+02  0.70000067891E+02 0.  0.
        -12    1    1    2    0    0 -0.10219162495E+02 -0.12005482611E+02  0.10105163175E+02  0.18726377589E+02  0.00000000000E+00 0.  1.
         11    1    3    3    0    0 -0.48198157927E+01  0.12746412231E+02  0.10084723636E+02  0.16952973194E+02  0.51100000000E-03 0. -1.
        -11    1    3    3    0    0 -0.12349321657E+02  0.17624456060E+01  0.90161034879E+01  0.15391623770E+02  0.51100000000E-03 0.  1.
         12    1    3    3    0    0  0.27388299944E+02 -0.25033752258E+01 -0.29205990300E+02  0.40117025447E+02  0.00000000000E+00 0. -1.
</event>
<event>
 7    1  0.3508738E-013  0.7246156E+02  0.7816164E-02  0.1226708E+00
        -11   -1    0    0    0    0  0.00000000000E+00  0.00000000000E+00  0.45593999997E+02  0.45594000000E+02  0.51100000000E-03 0.  1.
         11   -1    0    0    0    0 -0.00000000000E+00 -0.00000000000E+00 -0.45593999997E+02  0.45594000000E+02  0.51100000000E-03 0. -1.
    9900012    2    1    2    0    0  0.28070916296E+01  0.18336682307E+02  0.25624178414E+01  0.72461557021E+02  0.69999982709E+02 0.  0.
        -12    1    1    2    0    0 -0.28070916296E+01 -0.18336682307E+02 -0.25624178414E+01  0.18726442979E+02  0.00000000000E+00 0.  1.
         11    1    3    3    0    0 -0.68131722353E+01  0.20909811860E+01 -0.13091605100E+02  0.14905758705E+02  0.51100000000E-03 0. -1.
        -11    1    3    3    0    0  0.26815377063E+01 -0.17507499587E+02  0.14808044577E+02  0.23086389296E+02  0.51100000000E-03 0.  1.
         12    1    3    3    0    0  0.69387261586E+01  0.33753200709E+02  0.84597836450E+00  0.34469409020E+02  0.00000000000E+00 0. -1.
</event>
<event>
 7    1  0.3508738E-013  0.7246146E+02  0.7816164E-02  0.1226708E+00
        -11   -1    0    0    0    0  0.00000000000E+00  0.00000000000E+00  0.45593999997E+02  0.45594000000E+02  0.51100000000E-03 0.  1.
         11   -1    0    0    0    0 -0.00000000000E+00 -0.00000000000E+00 -0.45593999997E+02  0.45594000000E+02  0.51100000000E-03 0. -1.
    9900012    2    1    2    0    0  0.11887402820E+02 -0.40258279580E+01 -0.13898405691E+02  0.72461459548E+02  0.69999855732E+02 0.  0.
        -12    1    1    2    0    0 -0.11887402820E+02  0.40258279580E+01  0.13898405691E+02  0.18726540452E+02  0.00000000000E+00 0.  1.
         11    1    3    3    0    0 -0.92251499677E+01 -0.78178868874E+01  0.91687396519E+01  0.15175260603E+02  0.51100000000E-03 0. -1.
        -11    1    3    3    0    0  0.15067842354E+02 -0.17049371708E+02  0.34587123636E+01  0.23014856948E+02  0.51100000000E-03 0.  1.
         12    1    3    3    0    0  0.60447104334E+01  0.20841430637E+02 -0.26525857706E+02  0.34271341997E+02  0.00000000000E+00 0. -1.
</event>
<event>
 7    1  0.3508738E-013  0.7246158E+02  0.7816164E-02  0.1226708E+00
        -11   -1    0    0    0    0  0.00000000000E+00  0.00000000000E+00  0.45593999997E+02  0.45594000000E+02  0.51100000000E-03 0.  1.
         11   -1    0    0    0    0 -0.00000000000E+00 -0.00000000000E+00 -0.45593999997E+02  0.45594000000E+02  0.51100000000E-03 0. -1.
    9900012    2    1    2    0    0 -0.10105742731E+02  0.13082997803E+02  0.87970349176E+01  0.72461583071E+02  0.70000016645E+02 0.  0.
        -12    1    1    2    0    0  0.10105742731E+02 -0.13082997803E+02 -0.87970349176E+01  0.18726416929E+02  0.00000000000E+00 0.  1.
         11    1    3    3    0    0 -0.11158969571E+02 -0.87481467512E+01  0.34702177240E+01  0.14597776706E+02  0.51100000000E-03 0. -1.
        -11    1    3    3    0    0 -0.40147874277E+01 -0.17281138966E+02  0.49644918631E+01  0.18422878759E+02  0.51100000000E-03 0.  1.
        -12    1    3    3    0    0  0.50680142677E+01  0.39112283520E+02  0.36232533060E+00  0.39440927606E+02  0.00000000000E+00 0.  1.
</event>
<event>
 7    1  0.3508738E-013  0.7246158E+02  0.7816164E-02  0.1226708E+00
        -11   -1    0    0    0    0  0.00000000000E+00  0.00000000000E+00  0.45593999997E+02  0.45594000000E+02  0.51100000000E-03 0. -1.
         11   -1    0    0    0    0 -0.00000000000E+00 -0.00000000000E+00 -0.45593999997E+02  0.45594000000E+02  0.51100000000E-03 0.  1.
    9900012    2    1    2    0    0  0.14889462844E+02  0.11152229886E+02  0.21472216766E+01  0.72461577594E+02  0.70000009509E+02 0.  0.
        -12    1    1    2    0    0 -0.14889462844E+02 -0.11152229886E+02 -0.21472216766E+01  0.18726422406E+02  0.00000000000E+00 0.  1.
         11    1    3    3    0    0  0.22359931809E+01 -0.26530226507E+01  0.44177265755E+01  0.56173394990E+01  0.51100000000E-03 0. -1.
        -11    1    3    3    0    0  0.29882848140E+02 -0.14570873345E+02  0.23407462255E+01  0.33328277125E+02  0.51100000000E-03 0.  1.
         12    1    3    3    0    0 -0.17229378477E+02  0.28376125882E+02 -0.46112511244E+01  0.33515960969E+02  0.00000000000E+00 0. -1.
</event>
<event>
 7    1  0.3508738E-013  0.7246155E+02  0.7816164E-02  0.1226708E+00
        -11   -1    0    0    0    0  0.00000000000E+00  0.00000000000E+00  0.45593999997E+02  0.45594000000E+02  0.51100000000E-03 0. -1.
         11   -1    0    0    0    0 -0.00000000000E+00 -0.00000000000E+00 -0.45593999997E+02  0.45594000000E+02  0.51100000000E-03 0.  1.
    9900012    2    1    2    0    0  0.41327024489E+01  0.91696344330E+01  0.15796149314E+02  0.72461554573E+02  0.69999979521E+02 0.  0.
        -12    1    1    2    0    0 -0.41327024489E+01 -0.91696344330E+01 -0.15796149314E+02  0.18726445427E+02  0.00000000000E+00 0.  1.
         11    1    3    3    0    0  0.51745938586E+01 -0.11816123554E+02  0.18420056588E+02  0.22487678457E+02  0.51100000000E-03 0. -1.
        -11    1    3    3    0    0 -0.23092209485E+01 -0.31702695835E+01 -0.19878183378E+02  0.20261423575E+02  0.51100000000E-03 0.  1.
         12    1    3    3    0    0  0.12673295388E+01  0.24156027570E+02  0.17254276104E+02  0.29712452541E+02  0.00000000000E+00 0. -1.
</event>
<event>
 7    1  0.3508738E-013  0.7246143E+02  0.7816164E-02  0.1226708E+00
        -11   -1    0    0    0    0  0.00000000000E+00  0.00000000000E+00  0.45593999997E+02  0.45594000000E+02  0.51100000000E-03 0.  1.
         11   -1    0    0    0    0 -0.00000000000E+00 -0.00000000000E+00 -0.45593999997E+02  0.45594000000E+02  0.51100000000E-03 0. -1.
    9900012    2    1    2    0    0  0.14224868289E+02  0.12178036592E+02  0.18207154974E+00  0.72461425216E+02  0.69999811008E+02 0.  0.
        -12    1    1    2    0    0 -0.14224868289E+02 -0.12178036592E+02 -0.18207154974E+00  0.18726574784E+02  0.00000000000E+00 0.  1.
         11    1    3    3    0    0  0.19769943170E+01 -0.54369241584E+01  0.11662330864E+02  0.13018395150E+02  0.51100000000E-03 0. -1.
        -11    1    3    3    0    0 -0.68822279682E+01  0.19198878111E+01  0.18932269433E+02  0.20235658061E+02  0.51100000000E-03 0.  1.
         12    1    3    3    0    0  0.19130101941E+02  0.15695072940E+02 -0.30412528747E+02  0.39207372006E+02  0.00000000000E+00 0. -1.
</event>
<event>
 7    1  0.3508738E-013  0.7246157E+02  0.7816164E-02  0.1226708E+00
        -11   -1    0    0    0    0  0.00000000000E+00  0.00000000000E+00  0.45593999997E+02  0.45594000000E+02  0.51100000000E-03 0. -1.
         11   -1    0    0    0    0 -0.00000000000E+00 -0.00000000000E+00 -0.45593999997E+02  0.45594000000E+02  0.51100000000E-03 0.  1.
    9900012    2    1    2    0    0  0.42433494393E+01  0.18127836190E+02  0.20136083618E+01  0.72461572737E+02  0.70000003182E+02 0.  0.
        -12    1    1    2    0    0 -0.42433494393E+01 -0.18127836190E+02 -0.20136083618E+01  0.18726427263E+02  0.00000000000E+00 0.  1.
         11    1    3    3    0    0 -0.11530352678E+02  0.36246927696E+02 -0.48205486431E+01  0.38340924477E+02  0.51100000000E-03 0. -1.
        -11    1    3    3    0    0  0.16851777268E+00  0.32451688668E+01 -0.43226081212E+01  0.54078147569E+01  0.51100000000E-03 0.  1.
         12    1    3    3    0    0  0.15605184344E+02 -0.21364260373E+02  0.11156765126E+02  0.28712833503E+02  0.00000000000E+00 0. -1.
</event>
<event>
 7    1  0.3508738E-013  0.7246159E+02  0.7816164E-02  0.1226708E+00
        -11   -1    0    0    0    0  0.00000000000E+00  0.00000000000E+00  0.45593999997E+02  0.45594000000E+02  0.51100000000E-03 0. -1.
         11   -1    0    0    0    0 -0.00000000000E+00 -0.00000000000E+00 -0.45593999997E+02  0.45594000000E+02  0.51100000000E-03 0.  1.
    9900012    2    1    2    0    0  0.49345986129E+01 -0.13061268243E+02  0.12479241122E+02  0.72461589491E+02  0.70000025007E+02 0.  0.
        -12    1    1    2    0    0 -0.49345986129E+01  0.13061268243E+02 -0.12479241122E+02  0.18726410509E+02  0.00000000000E+00 0.  1.
         11    1    3    3    0    0 -0.69918236249E+00  0.27321408846E+01  0.19910904824E+02  0.20109639006E+02  0.51100000000E-03 0. -1.
        -11    1    3    3    0    0  0.14880460963E+02 -0.78489074054E+01  0.17699911113E+02  0.24419670751E+02  0.51100000000E-03 0.  1.
        -12    1    3    3    0    0 -0.92466799872E+01 -0.79445017225E+01 -0.25131574815E+02  0.27932279733E+02  0.00000000000E+00 0.  1.
</event>
<event>
 7    1  0.3508738E-013  0.7246158E+02  0.7816164E-02  0.1226708E+00
        -11   -1    0    0    0    0  0.00000000000E+00  0.00000000000E+00  0.45593999997E+02  0.45594000000E+02  0.51100000000E-03 0.  1.
         11   -1    0    0    0    0 -0.00000000000E+00 -0.00000000000E+00 -0.45593999997E+02  0.45594000000E+02  0.51100000000E-03 0. -1.
    9900012    2    1    2    0    0 -0.14212296332E+02  0.11524818688E+02  0.39834601314E+01  0.72461581030E+02  0.70000013985E+02 0.  0.
        -12    1    1    2    0    0  0.14212296332E+02 -0.11524818688E+02 -0.39834601314E+01  0.18726418970E+02  0.00000000000E+00 0.  1.
         11    1    3    3    0    0 -0.57392311445E+01 -0.84330115896E+01 -0.17580676127E+02  0.20325713565E+02  0.51100000000E-03 0. -1.
        -11    1    3    3    0    0 -0.94074766902E+01  0.71484073970E+01 -0.11608480425E+02  0.16563730378E+02  0.51100000000E-03 0.  1.
        -12    1    3    3    0    0  0.93441150250E+00  0.12809422880E+02  0.33172616683E+02  0.35572137087E+02  0.00000000000E+00 0.  1.
</event>
<event>
 7    1  0.3508738E-013  0.7246156E+02  0.7816164E-02  0.1226708E+00
        -11   -1    0    0    0    0  0.00000000000E+00  0.00000000000E+00  0.45593999997E+02  0.45594000000E+02  0.51100000000E-03 0. -1.
         11   -1    0    0    0    0 -0.00000000000E+00 -0.00000000000E+00 -0.45593999997E+02  0.45594000000E+02  0.51100000000E-03 0.  1.
    9900012    2    1    2    0    0 -0.16347989217E+01 -0.18634611512E+02 -0.87068814042E+00  0.72461563832E+02  0.69999991582E+02 0.  0.
        -12    1    1    2    0    0  0.16347989217E+01  0.18634611512E+02  0.87068814042E+00  0.18726436168E+02  0.00000000000E+00 0.  1.
         11    1    3    3    0    0  0.13006695232E+01 -0.76358294478E+01  0.23079400248E+02  0.24344534266E+02  0.51100000000E-03 0. -1.
        -11    1    3    3    0    0 -0.70175433800E+01 -0.85595083565E+01  0.93439025384E+01  0.14485151477E+02  0.51100000000E-03 0.  1.
        -12    1    3    3    0    0  0.40820749351E+01 -0.24392737074E+01 -0.33293990927E+02  0.33631878090E+02  0.00000000000E+00 0.  1.
</event>
<event>
 7    1  0.3508738E-013  0.7246164E+02  0.7816164E-02  0.1226708E+00
        -11   -1    0    0    0    0  0.00000000000E+00  0.00000000000E+00  0.45593999997E+02  0.45594000000E+02  0.51100000000E-03 0.  1.
         11   -1    0    0    0    0 -0.00000000000E+00 -0.00000000000E+00 -0.45593999997E+02  0.45594000000E+02  0.51100000000E-03 0. -1.
    9900012    2    1    2    0    0  0.32744280594E+01 -0.43207201335E+01 -0.17924455279E+02  0.72461638938E+02  0.70000089421E+02 0.  0.
        -12    1    1    2    0    0 -0.32744280594E+01  0.43207201335E+01  0.17924455279E+02  0.18726361062E+02  0.00000000000E+00 0.  1.
         11    1    3    3    0    0 -0.76805205313E+01 -0.82217208973E+01 -0.92945300224E+00  0.11289418643E+02  0.51100000000E-03 0. -1.
        -11    1    3    3    0    0  0.20192080011E+02 -0.22829872781E+02 -0.91677394021E+01  0.31827199569E+02  0.51100000000E-03 0.  1.
         12    1    3    3    0    0 -0.92371314207E+01  0.26730873544E+02 -0.78272628746E+01  0.29345020726E+02  0.00000000000E+00 0. -1.
</event>
<event>
 7    1  0.3508738E-013  0.7246162E+02  0.7816164E-02  0.1226708E+00
        -11   -1    0    0    0    0  0.00000000000E+00  0.00000000000E+00  0.45593999997E+02  0.45594000000E+02  0.51100000000E-03 0.  1.
         11   -1    0    0    0    0 -0.00000000000E+00 -0.00000000000E+00 -0.45593999997E+02  0.45594000000E+02  0.51100000000E-03 0. -1.
    9900012    2    1    2    0    0  0.14761859218E+02 -0.74641167916E+01 -0.87779194012E+01  0.72461617646E+02  0.70000061685E+02 0.  0.
        -12    1    1    2    0    0 -0.14761859218E+02  0.74641167916E+01  0.87779194012E+01  0.18726382354E+02  0.00000000000E+00 0.  1.
         11    1    3    3    0    0  0.29914291858E+02  0.31589553038E+01  0.86992662550E+01  0.31313273378E+02  0.51100000000E-03 0. -1.
        -11    1    3    3    0    0  0.10142535680E+02 -0.14086030007E+01 -0.35473352886E+01  0.10836917474E+02  0.51100000000E-03 0.  1.
        -12    1    3    3    0    0 -0.25294968321E+02 -0.92144690948E+01 -0.13929850368E+02  0.30311426794E+02  0.00000000000E+00 0.  1.
</event>
<event>
 7    1  0.3508738E-013  0.7246140E+02  0.7816164E-02  0.1226708E+00
        -11   -1    0    0    0    0  0.00000000000E+00  0.00000000000E+00  0.45593999997E+02  0.45594000000E+02  0.51100000000E-03 0. -1.
         11   -1    0    0    0    0 -0.00000000000E+00 -0.00000000000E+00 -0.45593999997E+02  0.45594000000E+02  0.51100000000E-03 0.  1.
    9900012    2    1    2    0    0 -0.12936989032E+02 -0.13350304646E+02 -0.22559208203E+01  0.72461401321E+02  0.69999779880E+02 0.  0.
        -12    1    1    2    0    0  0.12936989032E+02  0.13350304646E+02  0.22559208203E+01  0.18726598679E+02  0.00000000000E+00 0.  1.
         11    1    3    3    0    0  0.13043393315E+02  0.21963497501E+01 -0.14753359785E+02  0.19814532208E+02  0.51100000000E-03 0. -1.
        -11    1    3    3    0    0  0.10610323011E+02 -0.47767317271E+00 -0.13834912287E+01  0.10710797089E+02  0.51100000000E-03 0.  1.
        -12    1    3    3    0    0 -0.36590705358E+02 -0.15068981224E+02  0.13880930194E+02  0.41936072023E+02  0.00000000000E+00 0.  1.
</event>
<event>
 7    1  0.3508738E-013  0.7246158E+02  0.7816164E-02  0.1226708E+00
        -11   -1    0    0    0    0  0.00000000000E+00  0.00000000000E+00  0.45593999997E+02  0.45594000000E+02  0.51100000000E-03 0.  1.
         11   -1    0    0    0    0 -0.00000000000E+00 -0.00000000000E+00 -0.45593999997E+02  0.45594000000E+02  0.51100000000E-03 0. -1.
    9900012    2    1    2    0    0 -0.70221696829E+01 -0.11644556489E+02 -0.12875259669E+02  0.72461578173E+02  0.70000010264E+02 0.  0.
        -12    1    1    2    0    0  0.70221696829E+01  0.11644556489E+02  0.12875259669E+02  0.18726421827E+02  0.00000000000E+00 0.  1.
         11    1    3    3    0    0  0.59447588364E+01 -0.17017871575E+02 -0.12905743126E+02  0.22169941734E+02  0.51100000000E-03 0. -1.
        -11    1    3    3    0    0  0.14600963113E+02 -0.10929768171E+02 -0.75437885943E+00  0.18254233586E+02  0.51100000000E-03 0.  1.
         12    1    3    3    0    0 -0.27567891632E+02  0.16303083257E+02  0.78486231656E+00  0.32037402853E+02  0.00000000000E+00 0. -1.
</event>
<event>
 7    1  0.3508738E-013  0.7246154E+02  0.7816164E-02  0.1226708E+00
        -11   -1    0    0    0    0  0.00000000000E+00  0.00000000000E+00  0.45593999997E+02  0.45594000000E+02  0.51100000000E-03 0. -1.
         11   -1    0    0    0    0 -0.00000000000E+00 -0.00000000000E+00 -0.45593999997E+02  0.45594000000E+02  0.51100000000E-03 0.  1.
    9900012    2    1    2    0    0  0.63411499505E+01  0.15649304483E+02  0.80974884983E+01  0.72461541887E+02  0.69999962994E+02 0.  0.
        -12    1    1    2    0    0 -0.63411499505E+01 -0.15649304483E+02 -0.80974884983E+01  0.18726458113E+02  0.00000000000E+00 0.  1.
         11    1    3    3    0    0  0.10159492697E+02  0.94947903124E+01  0.11983072403E+02  0.18356480038E+02  0.51100000000E-03 0. -1.
        -11    1    3    3    0    0  0.24257223839E+02 -0.81418602310E+00 -0.63053058803E+01  0.25076536638E+02  0.51100000000E-03 0.  1.
         12    1    3    3    0    0 -0.28075566585E+02  0.69687001936E+01  0.24197219757E+01  0.29028525210E+02  0.00000000000E+00 0. -1.
</event>
<event>
 7    1  0.3508738E-013  0.7246163E+02  0.7816164E-02  0.1226708E+00
        -11   -1    0    0    0    0  0.00000000000E+00  0.00000000000E+00  0.45593999997E+02  0.45594000000E+02  0.51100000000E-03 0. -1.
         11   -1    0    0    0    0 -0.00000000000E+00 -0.00000000000E+00 -0.45593999997E+02  0.45594000000E+02  0.51100000000E-03 0.  1.
    9900012    2    1    2    0    0 -0.50433538386E+00 -0.15327573809E+02  0.10746530153E+02  0.72461634005E+02  0.70000082995E+02 0.  0.
        -12    1    1    2    0    0  0.50433538386E+00  0.15327573809E+02 -0.10746530153E+02  0.18726365995E+02  0.00000000000E+00 0.  1.
         11    1    3    3    0    0 -0.16109887365E+01 -0.37495115458E+02  0.48474703788E+01  0.37841471129E+02  0.51100000000E-03 0. -1.
        -11    1    3    3    0    0  0.10638883298E+01 -0.47874660380E+01 -0.35528853073E+01  0.60559626577E+01  0.51100000000E-03 0.  1.
        -12    1    3    3    0    0  0.42765022759E-01  0.26955007687E+02  0.94519450817E+01  0.28564200218E+02  0.00000000000E+00 0.  1.
</event>
<event>
 7    1  0.3508738E-013  0.7246153E+02  0.7816164E-02  0.1226708E+00
        -11   -1    0    0    0    0  0.00000000000E+00  0.00000000000E+00  0.45593999997E+02  0.45594000000E+02  0.51100000000E-03 0.  1.
         11   -1    0    0    0    0 -0.00000000000E+00 -0.00000000000E+00 -0.45593999997E+02  0.45594000000E+02  0.51100000000E-03 0. -1.
    9900012    2    1    2    0    0  0.16828256769E+02 -0.41979195387E+01 -0.70617294131E+01  0.72461527384E+02  0.69999944101E+02 0.  0.
        -12    1    1    2    0    0 -0.16828256769E+02  0.41979195387E+01  0.70617294131E+01  0.18726472616E+02  0.00000000000E+00 0.  1.
         11    1    3    3    0    0 -0.43227155096E+01 -0.59359593852E+01 -0.70255670862E+01  0.10162680569E+02  0.51100000000E-03 0. -1.
        -11    1    3    3    0    0 -0.64575691179E+01  0.17695392834E+02  0.17667509750E+02  0.25825724143E+02  0.51100000000E-03 0.  1.
         12    1    3    3    0    0  0.27608541397E+02 -0.15957352988E+02 -0.17703672077E+02  0.36473122672E+02  0.00000000000E+00 0. -1.
</event>
<event>
 7    1  0.3508738E-013  0.7246162E+02  0.7816164E-02  0.1226708E+00
        -11   -1    0    0    0    0  0.00000000000E+00  0.00000000000E+00  0.45593999997E+02  0.45594000000E+02  0.51100000000E-03 0.  1.
         11   -1    0    0    0    0 -0.00000000000E+00 -0.00000000000E+00 -0.45593999997E+02  0.45594000000E+02  0.51100000000E-03 0. -1.
    9900012    2    1    2    0    0  0.55875368667E+01  0.17686044292E+02 -0.25808053636E+01  0.72461620551E+02  0.70000065469E+02 0.  0.
        -12    1    1    2    0    0 -0.55875368667E+01 -0.17686044292E+02  0.25808053636E+01  0.18726379449E+02  0.00000000000E+00 0.  1.
         11    1    3    3    0    0 -0.73957214902E+01  0.49854895485E+01 -0.23791390066E+01  0.92310403029E+01  0.51100000000E-03 0. -1.
        -11    1    3    3    0    0 -0.19579249791E+02 -0.22355834781E+01 -0.14698061052E+02  0.24584097600E+02  0.51100000000E-03 0.  1.
         12    1    3    3    0    0  0.32562508148E+02  0.14936138222E+02  0.14496394695E+02  0.38646482648E+02  0.00000000000E+00 0. -1.
</event>
<event>
 7    1  0.3508738E-013  0.7246166E+02  0.7816164E-02  0.1226708E+00
        -11   -1    0    0    0    0  0.00000000000E+00  0.00000000000E+00  0.45593999997E+02  0.45594000000E+02  0.51100000000E-03 0. -1.
         11   -1    0    0    0    0 -0.00000000000E+00 -0.00000000000E+00 -0.45593999997E+02  0.45594000000E+02  0.51100000000E-03 0.  1.
    9900012    2    1    2    0    0 -0.16322946253E+02  0.35065895218E+01 -0.84818189106E+01  0.72461655015E+02  0.70000110364E+02 0.  0.
        -12    1    1    2    0    0  0.16322946253E+02 -0.35065895218E+01  0.84818189106E+01  0.18726344985E+02  0.00000000000E+00 0.  1.
         11    1    3    3    0    0 -0.99892447846E+01  0.76854446186E+01  0.15760023404E+02  0.20179925875E+02  0.51100000000E-03 0. -1.
        -11    1    3    3    0    0 -0.90590974229E+01 -0.56214189814E+01  0.11917898130E+02  0.15990743997E+02  0.51100000000E-03 0.  1.
        -12    1    3    3    0    0  0.27253959541E+01  0.14425638846E+01 -0.36159740444E+02  0.36290985143E+02  0.00000000000E+00 0.  1.
</event>
<event>
 7    1  0.3508738E-013  0.7246100E+02  0.7816164E-02  0.1226710E+00
        -11   -1    0    0    0    0  0.00000000000E+00  0.00000000000E+00  0.45593999997E+02  0.45594000000E+02  0.51100000000E-03 0.  1.
         11   -1    0    0    0    0 -0.00000000000E+00 -0.00000000000E+00 -0.45593999997E+02  0.45594000000E+02  0.51100000000E-03 0. -1.
    9900012    2    1    2    0    0  0.91888635369E+01  0.15888569258E+02  0.37173716543E+01  0.72460995483E+02  0.69999251198E+02 0.  0.
        -12    1    1    2    0    0 -0.91888635369E+01 -0.15888569258E+02 -0.37173716543E+01  0.18727004517E+02  0.00000000000E+00 0.  1.
         11    1    3    3    0    0  0.11010638572E+02  0.53347712283E+01 -0.16851248271E+01  0.12350449051E+02  0.51100000000E-03 0. -1.
        -11    1    3    3    0    0  0.15424232189E+02  0.30042699144E+02  0.45171051034E+01  0.34071615008E+02  0.51100000000E-03 0.  1.
        -12    1    3    3    0    0 -0.17246007224E+02 -0.19488901115E+02  0.88539137797E+00  0.26038931424E+02  0.00000000000E+00 0.  1.
</event>
<event>
 7    1  0.3508738E-013  0.7246155E+02  0.7816164E-02  0.1226708E+00
        -11   -1    0    0    0    0  0.00000000000E+00  0.00000000000E+00  0.45593999997E+02  0.45594000000E+02  0.51100000000E-03 0.  1.
         11   -1    0    0    0    0 -0.00000000000E+00 -0.00000000000E+00 -0.45593999997E+02  0.45594000000E+02  0.51100000000E-03 0. -1.
    9900012    2    1    2    0    0  0.18402253273E+02 -0.26936697389E+01 -0.21865413520E+01  0.72461554921E+02  0.69999979974E+02 0.  0.
        -12    1    1    2    0    0 -0.18402253273E+02  0.26936697389E+01  0.21865413520E+01  0.18726445079E+02  0.00000000000E+00 0.  1.
         11    1    3    3    0    0 -0.36559455588E+00 -0.77674422355E+01  0.76248343185E+01  0.10890588456E+02  0.51100000000E-03 0. -1.
        -11    1    3    3    0    0  0.46228507417E+00  0.14848574025E+02  0.20205589541E+02  0.25079069102E+02  0.51100000000E-03 0.  1.
         12    1    3    3    0    0  0.18305562755E+02 -0.97748015284E+01 -0.30016965211E+02  0.36491897364E+02  0.00000000000E+00 0. -1.
</event>
<event>
 7    1  0.3508738E-013  0.7246158E+02  0.7816164E-02  0.1226708E+00
        -11   -1    0    0    0    0  0.00000000000E+00  0.00000000000E+00  0.45593999997E+02  0.45594000000E+02  0.51100000000E-03 0.  1.
         11   -1    0    0    0    0 -0.00000000000E+00 -0.00000000000E+00 -0.45593999997E+02  0.45594000000E+02  0.51100000000E-03 0. -1.
    9900012    2    1    2    0    0  0.15753945254E+02  0.75004146819E+01 -0.67996981299E+01  0.72461577327E+02  0.70000009161E+02 0.  0.
        -12    1    1    2    0    0 -0.15753945254E+02 -0.75004146819E+01  0.67996981299E+01  0.18726422673E+02  0.00000000000E+00 0.  1.
         11    1    3    3    0    0  0.15818962262E+02 -0.19644024546E+01 -0.13129916018E+02  0.20651710316E+02  0.51100000000E-03 0. -1.
        -11    1    3    3    0    0  0.14287298370E+02  0.25644185045E+02  0.69735151545E+01  0.30172521194E+02  0.51100000000E-03 0.  1.
        -12    1    3    3    0    0 -0.14352315377E+02 -0.16179367909E+02 -0.64329726628E+00  0.21637345817E+02  0.00000000000E+00 0.  1.
</event>
<event>
 7    1  0.3508738E-013  0.7246136E+02  0.7816164E-02  0.1226709E+00
        -11   -1    0    0    0    0  0.00000000000E+00  0.00000000000E+00  0.45593999997E+02  0.45594000000E+02  0.51100000000E-03 0.  1.
         11   -1    0    0    0    0 -0.00000000000E+00 -0.00000000000E+00 -0.45593999997E+02  0.45594000000E+02  0.51100000000E-03 0. -1.
    9900012    2    1    2    0    0  0.15009279509E+02  0.64759564286E+01 -0.91362307236E+01  0.72461356017E+02  0.69999720863E+02 0.  0.
        -12    1    1    2    0    0 -0.15009279509E+02 -0.64759564286E+01  0.91362307236E+01  0.18726643983E+02  0.00000000000E+00 0.  1.
         11    1    3    3    0    0 -0.16582646333E+02 -0.18463194663E+02 -0.56934238855E+01  0.25461515909E+02  0.51100000000E-03 0. -1.
        -11    1    3    3    0    0  0.15268867233E+02  0.66394748867E+01 -0.12540974665E+02  0.20844591125E+02  0.51100000000E-03 0.  1.
        -12    1    3    3    0    0  0.16323058609E+02  0.18299676205E+02  0.90981678272E+01  0.26155248983E+02  0.00000000000E+00 0.  1.
</event>
<event>
 7    1  0.4409375E-013  0.7246158E+02  0.7816164E-02  0.1226708E+00
        -11   -1    0    0    0    0  0.00000000000E+00  0.00000000000E+00  0.45593999997E+02  0.45594000000E+02  0.51100000000E-03 0. -1.
         11   -1    0    0    0    0 -0.00000000000E+00 -0.00000000000E+00 -0.45593999997E+02  0.45594000000E+02  0.51100000000E-03 0.  1.
    9900012    2    1    2    0    0  0.15742638456E+02  0.32922154604E+01  0.95921513235E+01  0.72461582425E+02  0.70000015802E+02 0.  0.
        -12    1    1    2    0    0 -0.15742638456E+02 -0.32922154604E+01 -0.95921513235E+01  0.18726417575E+02  0.00000000000E+00 0.  1.
         11    1    3    3    0    0  0.12296549440E+02  0.21677966979E+02  0.25804537067E+02  0.35874970578E+02  0.51100000000E-03 0. -1.
        -11    1    3    3    0    0 -0.40946797412E+01 -0.12308296163E+02  0.44933860004E+01  0.13727748345E+02  0.51100000000E-03 0.  1.
        -12    1    3    3    0    0  0.75407687569E+01 -0.60774553558E+01 -0.20705771744E+02  0.22858863501E+02  0.00000000000E+00 0.  1.
</event>
<event>
 7    1  0.3508738E-013  0.7246155E+02  0.7816164E-02  0.1226708E+00
        -11   -1    0    0    0    0  0.00000000000E+00  0.00000000000E+00  0.45593999997E+02  0.45594000000E+02  0.51100000000E-03 0. -1.
         11   -1    0    0    0    0 -0.00000000000E+00 -0.00000000000E+00 -0.45593999997E+02  0.45594000000E+02  0.51100000000E-03 0.  1.
    9900012    2    1    2    0    0 -0.18282856019E+02 -0.39055346807E+01  0.10788964720E+01  0.72461546974E+02  0.69999969621E+02 0.  0.
        -12    1    1    2    0    0  0.18282856019E+02  0.39055346807E+01 -0.10788964720E+01  0.18726453026E+02  0.00000000000E+00 0.  1.
         11    1    3    3    0    0 -0.17471279212E+02 -0.21057370272E+02 -0.82604501398E+01  0.28581348408E+02  0.51100000000E-03 0. -1.
        -11    1    3    3    0    0 -0.55244205514E+01 -0.12044182252E+02  0.38747338103E+01  0.13805618817E+02  0.51100000000E-03 0.  1.
        -12    1    3    3    0    0  0.47128437444E+01  0.29196017843E+02  0.54646128015E+01  0.30074579749E+02  0.00000000000E+00 0.  1.
</event>
<event>
 7    1  0.3508738E-013  0.7246158E+02  0.7816164E-02  0.1226708E+00
        -11   -1    0    0    0    0  0.00000000000E+00  0.00000000000E+00  0.45593999997E+02  0.45594000000E+02  0.51100000000E-03 0. -1.
         11   -1    0    0    0    0 -0.00000000000E+00 -0.00000000000E+00 -0.45593999997E+02  0.45594000000E+02  0.51100000000E-03 0.  1.
    9900012    2    1    2    0    0 -0.65327674494E+01 -0.18641312825E+01  0.17450699902E+02  0.72461575807E+02  0.70000007181E+02 0.  0.
        -12    1    1    2    0    0  0.65327674494E+01  0.18641312825E+01 -0.17450699902E+02  0.18726424193E+02  0.00000000000E+00 0.  1.
         11    1    3    3    0    0 -0.81111003003E+01  0.12731456350E+02  0.10280192498E+02  0.18263687660E+02  0.51100000000E-03 0. -1.
        -11    1    3    3    0    0 -0.14353901578E+02  0.50746692782E+01  0.20543046718E+02  0.25569582075E+02  0.51100000000E-03 0.  1.
        -12    1    3    3    0    0  0.15932234429E+02 -0.19670256911E+02 -0.13372539314E+02  0.28628306072E+02  0.00000000000E+00 0.  1.
</event>
<event>
 7    1  0.3508738E-013  0.7246159E+02  0.7816164E-02  0.1226708E+00
        -11   -1    0    0    0    0  0.00000000000E+00  0.00000000000E+00  0.45593999997E+02  0.45594000000E+02  0.51100000000E-03 0.  1.
         11   -1    0    0    0    0 -0.00000000000E+00 -0.00000000000E+00 -0.45593999997E+02  0.45594000000E+02  0.51100000000E-03 0. -1.
    9900012    2    1    2    0    0 -0.28335263501E+00 -0.49668600949E+01 -0.18053483757E+02  0.72461594480E+02  0.70000031507E+02 0.  0.
        -12    1    1    2    0    0  0.28335263501E+00  0.49668600949E+01  0.18053483757E+02  0.18726405520E+02  0.00000000000E+00 0.  1.
         11    1    3    3    0    0  0.23379134032E+01 -0.28499700599E+02 -0.37259277736E+01  0.28837151582E+02  0.51100000000E-03 0. -1.
        -11    1    3    3    0    0 -0.51883619041E+01 -0.49679395306E+01  0.52974414031E+01  0.89253799979E+01  0.51100000000E-03 0.  1.
        -12    1    3    3    0    0  0.25670958658E+01  0.28500780034E+02 -0.19624997387E+02  0.34699062901E+02  0.00000000000E+00 0.  1.
</event>
<event>
 7    1  0.3508738E-013  0.7246103E+02  0.7816164E-02  0.1226709E+00
        -11   -1    0    0    0    0  0.00000000000E+00  0.00000000000E+00  0.45593999997E+02  0.45594000000E+02  0.51100000000E-03 0. -1.
         11   -1    0    0    0    0 -0.00000000000E+00 -0.00000000000E+00 -0.45593999997E+02  0.45594000000E+02  0.51100000000E-03 0.  1.
    9900012    2    1    2    0    0 -0.17009356357E+01  0.10412719519E+02 -0.15471959982E+02  0.72461028662E+02  0.69999294419E+02 0.  0.
        -12    1    1    2    0    0  0.17009356357E+01 -0.10412719519E+02  0.15471959982E+02  0.18726971338E+02  0.00000000000E+00 0.  1.
         11    1    3    3    0    0 -0.44310439946E+01 -0.11442333185E+02  0.13979769816E+02  0.18600943631E+02  0.51100000000E-03 0. -1.
        -11    1    3    3    0    0 -0.99529582876E+01  0.56295905953E-01  0.50202394016E+01  0.11147526713E+02  0.51100000000E-03 0.  1.
        -12    1    3    3    0    0  0.12683066646E+02  0.21798756799E+02 -0.34471969199E+02  0.42712558317E+02  0.00000000000E+00 0.  1.
</event>
<event>
 7    1  0.3508738E-013  0.7246156E+02  0.7816164E-02  0.1226708E+00
        -11   -1    0    0    0    0  0.00000000000E+00  0.00000000000E+00  0.45593999997E+02  0.45594000000E+02  0.51100000000E-03 0. -1.
         11   -1    0    0    0    0 -0.00000000000E+00 -0.00000000000E+00 -0.45593999997E+02  0.45594000000E+02  0.51100000000E-03 0.  1.
    9900012    2    1    2    0    0  0.73593219110E+01 -0.16599679545E+02 -0.45793450707E+01  0.72461564641E+02  0.69999992635E+02 0.  0.
        -12    1    1    2    0    0 -0.73593219110E+01  0.16599679545E+02  0.45793450707E+01  0.18726435359E+02  0.00000000000E+00 0.  1.
         11    1    3    3    0    0 -0.42592598876E+01 -0.76331293474E+01  0.11395272139E+02  0.14361691607E+02  0.51100000000E-03 0. -1.
        -11    1    3    3    0    0 -0.10977550655E+02 -0.78752138608E+01  0.14713041888E+02  0.19974964671E+02  0.51100000000E-03 0.  1.
         12    1    3    3    0    0  0.22596132454E+02 -0.10913363366E+01 -0.30687659098E+02  0.38124908364E+02  0.00000000000E+00 0. -1.
</event>
<event>
 7    1  0.3508738E-013  0.7246143E+02  0.7816164E-02  0.1226708E+00
        -11   -1    0    0    0    0  0.00000000000E+00  0.00000000000E+00  0.45593999997E+02  0.45594000000E+02  0.51100000000E-03 0.  1.
         11   -1    0    0    0    0 -0.00000000000E+00 -0.00000000000E+00 -0.45593999997E+02  0.45594000000E+02  0.51100000000E-03 0. -1.
    9900012    2    1    2    0    0 -0.18378922538E+02  0.35544998905E+01  0.51507765929E+00  0.72461426151E+02  0.69999812227E+02 0.  0.
        -12    1    1    2    0    0  0.18378922538E+02 -0.35544998905E+01 -0.51507765929E+00  0.18726573849E+02  0.00000000000E+00 0.  1.
         11    1    3    3    0    0  0.10562552650E+02  0.15010669729E+02 -0.24880634161E+01  0.18522369828E+02  0.51100000000E-03 0. -1.
        -11    1    3    3    0    0 -0.34063808130E+01 -0.12136559239E+01  0.20839265258E+02  0.21150682441E+02  0.51100000000E-03 0.  1.
         12    1    3    3    0    0 -0.25535094375E+02 -0.10242513915E+02 -0.17836124183E+02  0.32788373883E+02  0.00000000000E+00 0. -1.
</event>
<event>
 7    1  0.3508738E-013  0.7246183E+02  0.7816164E-02  0.1226707E+00
        -11   -1    0    0    0    0  0.00000000000E+00  0.00000000000E+00  0.45593999997E+02  0.45594000000E+02  0.51100000000E-03 0.  1.
         11   -1    0    0    0    0 -0.00000000000E+00 -0.00000000000E+00 -0.45593999997E+02  0.45594000000E+02  0.51100000000E-03 0. -1.
    9900012    2    1    2    0    0 -0.51352877861E+01  0.61619243720E+01 -0.16921258431E+02  0.72461829022E+02  0.70000337040E+02 0.  0.
        -12    1    1    2    0    0  0.51352877861E+01 -0.61619243720E+01  0.16921258431E+02  0.18726170978E+02  0.00000000000E+00 0.  1.
         11    1    3    3    0    0  0.21019383621E+01 -0.57034036451E+01  0.28939193358E+01  0.67321413681E+01  0.51100000000E-03 0. -1.
        -11    1    3    3    0    0 -0.21014487538E+02  0.31023586991E+01  0.15850475950E+02  0.26504167674E+02  0.51100000000E-03 0.  1.
         12    1    3    3    0    0  0.13777261390E+02  0.87629693179E+01 -0.35665653717E+02  0.39225519980E+02  0.00000000000E+00 0. -1.
</event>
<event>
 7    1  0.3508738E-013  0.7246142E+02  0.7816164E-02  0.1226708E+00
        -11   -1    0    0    0    0  0.00000000000E+00  0.00000000000E+00  0.45593999997E+02  0.45594000000E+02  0.51100000000E-03 0. -1.
         11   -1    0    0    0    0 -0.00000000000E+00 -0.00000000000E+00 -0.45593999997E+02  0.45594000000E+02  0.51100000000E-03 0.  1.
    9900012    2    1    2    0    0  0.14799189200E+02  0.11049073690E+02 -0.30962210195E+01  0.72461424900E+02  0.69999810597E+02 0.  0.
        -12    1    1    2    0    0 -0.14799189200E+02 -0.11049073690E+02  0.30962210195E+01  0.18726575100E+02  0.00000000000E+00 0.  1.
         11    1    3    3    0    0  0.64423455973E+01 -0.10143155185E+02  0.14801743317E+02  0.19065125737E+02  0.51100000000E-03 0. -1.
        -11    1    3    3    0    0 -0.93003472578E+01 -0.99263512612E+01 -0.50059006242E+00  0.13611741224E+02  0.51100000000E-03 0.  1.
        -12    1    3    3    0    0  0.17657190860E+02  0.31118580136E+02 -0.17397374274E+02  0.39784557939E+02  0.00000000000E+00 0.  1.
</event>
<event>
 7    1  0.3508738E-013  0.7246152E+02  0.7816164E-02  0.1226708E+00
        -11   -1    0    0    0    0  0.00000000000E+00  0.00000000000E+00  0.45593999997E+02  0.45594000000E+02  0.51100000000E-03 0.  1.
         11   -1    0    0    0    0 -0.00000000000E+00 -0.00000000000E+00 -0.45593999997E+02  0.45594000000E+02  0.51100000000E-03 0. -1.
    9900012    2    1    2    0    0  0.13995146239E+02  0.28740558950E+01 -0.12106055619E+02  0.72461524138E+02  0.69999939873E+02 0.  0.
        -12    1    1    2    0    0 -0.13995146239E+02 -0.28740558950E+01  0.12106055619E+02  0.18726475862E+02  0.00000000000E+00 0.  1.
         11    1    3    3    0    0  0.28407867058E+02  0.14472780667E+01  0.47568529212E+01  0.28839715230E+02  0.51100000000E-03 0. -1.
        -11    1    3    3    0    0  0.37993417152E+01  0.10466393900E+02  0.63062347542E+01  0.12796444653E+02  0.51100000000E-03 0.  1.
        -12    1    3    3    0    0 -0.18212062534E+02 -0.90396160715E+01 -0.23169143295E+02  0.30825364255E+02  0.00000000000E+00 0.  1.
</event>
<event>
 7    1  0.3508738E-013  0.7246163E+02  0.7816164E-02  0.1226708E+00
        -11   -1    0    0    0    0  0.00000000000E+00  0.00000000000E+00  0.45593999997E+02  0.45594000000E+02  0.51100000000E-03 0. -1.
         11   -1    0    0    0    0 -0.00000000000E+00 -0.00000000000E+00 -0.45593999997E+02  0.45594000000E+02  0.51100000000E-03 0.  1.
    9900012    2    1    2    0    0  0.14311759543E+02  0.49641752770E+01  0.11009425025E+02  0.72461629909E+02  0.70000077659E+02 0.  0.
        -12    1    1    2    0    0 -0.14311759543E+02 -0.49641752770E+01 -0.11009425025E+02  0.18726370091E+02  0.00000000000E+00 0.  1.
         11    1    3    3    0    0  0.14720595420E+02 -0.15964357943E+02  0.78078804043E+01  0.23076387298E+02  0.51100000000E-03 0. -1.
        -11    1    3    3    0    0 -0.32796019019E+01 -0.66323854259E+01 -0.14657246002E+02  0.16418866761E+02  0.51100000000E-03 0.  1.
         12    1    3    3    0    0  0.28707660258E+01  0.27560918646E+02  0.17858790623E+02  0.32966375850E+02  0.00000000000E+00 0. -1.
</event>
<event>
 7    1  0.3508738E-013  0.7246151E+02  0.7816164E-02  0.1226708E+00
        -11   -1    0    0    0    0  0.00000000000E+00  0.00000000000E+00  0.45593999997E+02  0.45594000000E+02  0.51100000000E-03 0. -1.
         11   -1    0    0    0    0 -0.00000000000E+00 -0.00000000000E+00 -0.45593999997E+02  0.45594000000E+02  0.51100000000E-03 0.  1.
    9900012    2    1    2    0    0 -0.14491800966E+02 -0.94308570045E+00  0.11822849704E+02  0.72461508578E+02  0.69999919603E+02 0.  0.
        -12    1    1    2    0    0  0.14491800966E+02  0.94308570045E+00 -0.11822849704E+02  0.18726491422E+02  0.00000000000E+00 0.  1.
         11    1    3    3    0    0 -0.75422010643E+01 -0.70254763285E+01 -0.10621724370E+02  0.14800781851E+02  0.51100000000E-03 0. -1.
        -11    1    3    3    0    0  0.35433789566E+01 -0.22439065587E+02  0.91874760409E+01  0.24504630483E+02  0.51100000000E-03 0.  1.
         12    1    3    3    0    0 -0.10492978858E+02  0.28521456215E+02  0.13257098033E+02  0.33156096244E+02  0.00000000000E+00 0. -1.
</event>
<event>
 7    1  0.3508738E-013  0.7246163E+02  0.7816164E-02  0.1226708E+00
        -11   -1    0    0    0    0  0.00000000000E+00  0.00000000000E+00  0.45593999997E+02  0.45594000000E+02  0.51100000000E-03 0. -1.
         11   -1    0    0    0    0 -0.00000000000E+00 -0.00000000000E+00 -0.45593999997E+02  0.45594000000E+02  0.51100000000E-03 0.  1.
    9900012    2    1    2    0    0  0.49589771791E+01 -0.17853741801E+02  0.27072699268E+01  0.72461631921E+02  0.70000080280E+02 0.  0.
        -12    1    1    2    0    0 -0.49589771791E+01  0.17853741801E+02 -0.27072699268E+01  0.18726368079E+02  0.00000000000E+00 0.  1.
         11    1    3    3    0    0 -0.18030303841E+02  0.57289108188E-01 -0.20827845193E+01  0.18150292842E+02  0.51100000000E-03 0.  1.
        -11    1    3    3    0    0 -0.11737396563E+02 -0.15125386297E+02 -0.14463432652E-03  0.19145333347E+02  0.51100000000E-03 0. -1.
        -12    1    3    3    0    0  0.34726677583E+02 -0.27856446129E+01  0.47901990804E+01  0.35166005731E+02  0.00000000000E+00 0.  1.
</event>
<event>
 7    1  0.3508738E-013  0.7246156E+02  0.7816164E-02  0.1226708E+00
        -11   -1    0    0    0    0  0.00000000000E+00  0.00000000000E+00  0.45593999997E+02  0.45594000000E+02  0.51100000000E-03 0.  1.
         11   -1    0    0    0    0 -0.00000000000E+00 -0.00000000000E+00 -0.45593999997E+02  0.45594000000E+02  0.51100000000E-03 0. -1.
    9900012    2    1    2    0    0  0.17523984234E+02 -0.50350628646E+01 -0.42705500415E+01  0.72461562028E+02  0.69999989231E+02 0.  0.
        -12    1    1    2    0    0 -0.17523984234E+02  0.50350628646E+01  0.42705500415E+01  0.18726437972E+02  0.00000000000E+00 0.  1.
         11    1    3    3    0    0 -0.19324159186E+02  0.11165258952E+02 -0.72381069598E+01  0.23462231955E+02  0.51100000000E-03 0. -1.
        -11    1    3    3    0    0  0.53649166590E+01 -0.14352869657E+02 -0.56080795539E+01  0.16316793640E+02  0.51100000000E-03 0.  1.
        -12    1    3    3    0    0  0.31483226761E+02 -0.18474521591E+01  0.85756364721E+01  0.32682536432E+02  0.00000000000E+00 0.  1.
</event>
<event>
 7    1  0.3508738E-013  0.7246155E+02  0.7816164E-02  0.1226708E+00
        -11   -1    0    0    0    0  0.00000000000E+00  0.00000000000E+00  0.45593999997E+02  0.45594000000E+02  0.51100000000E-03 0.  1.
         11   -1    0    0    0    0 -0.00000000000E+00 -0.00000000000E+00 -0.45593999997E+02  0.45594000000E+02  0.51100000000E-03 0. -1.
    9900012    2    1    2    0    0  0.44166334111E+01 -0.14062476779E+02 -0.11550756864E+02  0.72461551112E+02  0.69999975011E+02 0.  0.
        -12    1    1    2    0    0 -0.44166334111E+01  0.14062476779E+02  0.11550756864E+02  0.18726448888E+02  0.00000000000E+00 0.  1.
         11    1    3    3    0    0  0.16170140411E+01 -0.15471582518E+02 -0.26699162946E+02  0.30900322042E+02  0.51100000000E-03 0. -1.
        -11    1    3    3    0    0  0.76348846320E+01 -0.80139365814E+01 -0.95936442445E+01  0.14647615950E+02  0.51100000000E-03 0.  1.
         12    1    3    3    0    0 -0.48352652621E+01  0.94230423211E+01  0.24742050327E+02  0.26913613119E+02  0.00000000000E+00 0. -1.
</event>
<event>
 7    1  0.3508738E-013  0.7246164E+02  0.7816164E-02  0.1226708E+00
        -11   -1    0    0    0    0  0.00000000000E+00  0.00000000000E+00  0.45593999997E+02  0.45594000000E+02  0.51100000000E-03 0.  1.
         11   -1    0    0    0    0 -0.00000000000E+00 -0.00000000000E+00 -0.45593999997E+02  0.45594000000E+02  0.51100000000E-03 0. -1.
    9900012    2    1    2    0    0  0.89163946989E+01  0.12754113930E+02 -0.10416678382E+02  0.72461636095E+02  0.70000085718E+02 0.  0.
        -12    1    1    2    0    0 -0.89163946989E+01 -0.12754113930E+02  0.10416678382E+02  0.18726363905E+02  0.00000000000E+00 0.  1.
         11    1    3    3    0    0  0.14167856257E+02 -0.13634677237E+02  0.84650342051E+01  0.21407694379E+02  0.51100000000E-03 0. -1.
        -11    1    3    3    0    0 -0.83788394380E+01 -0.86899840890E+01 -0.65866472783E+01  0.13751534330E+02  0.51100000000E-03 0.  1.
        -12    1    3    3    0    0  0.31273778800E+01  0.35078775256E+02 -0.12295065309E+02  0.37302407387E+02  0.00000000000E+00 0.  1.
</event>
<event>
 7    1  0.3508738E-013  0.7246153E+02  0.7816164E-02  0.1226708E+00
        -11   -1    0    0    0    0  0.00000000000E+00  0.00000000000E+00  0.45593999997E+02  0.45594000000E+02  0.51100000000E-03 0.  1.
         11   -1    0    0    0    0 -0.00000000000E+00 -0.00000000000E+00 -0.45593999997E+02  0.45594000000E+02  0.51100000000E-03 0. -1.
    9900012    2    1    2    0    0 -0.76176020254E+01 -0.22526904758E+01 -0.16958129036E+02  0.72461531689E+02  0.69999949709E+02 0.  0.
        -12    1    1    2    0    0  0.76176020254E+01  0.22526904758E+01  0.16958129036E+02  0.18726468311E+02  0.00000000000E+00 0.  1.
         11    1    3    3    0    0 -0.19930376507E+02 -0.12761778483E+02 -0.14251431212E+02  0.27625824687E+02  0.51100000000E-03 0. -1.
        -11    1    3    3    0    0  0.94743773990E+01  0.10502835108E+02 -0.21551313629E+02  0.25778527727E+02  0.51100000000E-03 0.  1.
        -12    1    3    3    0    0  0.28383970829E+01  0.62528997132E-02  0.18844615805E+02  0.19057179275E+02  0.00000000000E+00 0.  1.
</event>
<event>
 7    1  0.3508738E-013  0.7246157E+02  0.7816164E-02  0.1226708E+00
        -11   -1    0    0    0    0  0.00000000000E+00  0.00000000000E+00  0.45593999997E+02  0.45594000000E+02  0.51100000000E-03 0.  1.
         11   -1    0    0    0    0 -0.00000000000E+00 -0.00000000000E+00 -0.45593999997E+02  0.45594000000E+02  0.51100000000E-03 0. -1.
    9900012    2    1    2    0    0 -0.17007383261E+02 -0.53517556438E+00  0.78193083176E+01  0.72461572663E+02  0.70000003085E+02 0.  0.
        -12    1    1    2    0    0  0.17007383261E+02  0.53517556438E+00 -0.78193083176E+01  0.18726427337E+02  0.00000000000E+00 0.  1.
         11    1    3    3    0    0 -0.50342089294E+01 -0.46833168348E+01 -0.63162166695E+01  0.93365576845E+01  0.51100000000E-03 0. -1.
        -11    1    3    3    0    0 -0.78082042493E+01  0.31998570328E+02  0.11302460037E+02  0.34822724761E+02  0.51100000000E-03 0.  1.
         12    1    3    3    0    0 -0.41649700819E+01 -0.27850429058E+02  0.28330649498E+01  0.28302290217E+02  0.00000000000E+00 0. -1.
</event>
<event>
 7    1  0.3508738E-013  0.7246144E+02  0.7816164E-02  0.1226708E+00
        -11   -1    0    0    0    0  0.00000000000E+00  0.00000000000E+00  0.45593999997E+02  0.45594000000E+02  0.51100000000E-03 0. -1.
         11   -1    0    0    0    0 -0.00000000000E+00 -0.00000000000E+00 -0.45593999997E+02  0.45594000000E+02  0.51100000000E-03 0.  1.
    9900012    2    1    2    0    0 -0.17699744079E+02  0.50265484470E+01 -0.34838166353E+01  0.72461438434E+02  0.69999828227E+02 0.  0.
        -12    1    1    2    0    0  0.17699744079E+02 -0.50265484470E+01  0.34838166353E+01  0.18726561566E+02  0.00000000000E+00 0.  1.
         11    1    3    3    0    0  0.75461133106E+01 -0.51827159136E+00  0.43415138859E+00  0.75763394346E+01  0.51100000000E-03 0. -1.
        -11    1    3    3    0    0 -0.42534330522E+02  0.40229323280E+01  0.84783557276E+01  0.43557270043E+02  0.51100000000E-03 0.  1.
         12    1    3    3    0    0  0.17288473132E+02  0.15218877104E+01 -0.12396323751E+02  0.21327828957E+02  0.00000000000E+00 0. -1.
</event>
<event>
 7    1  0.3847538E-013  0.7246165E+02  0.7816164E-02  0.1226708E+00
        -11   -1    0    0    0    0  0.00000000000E+00  0.00000000000E+00  0.45593999997E+02  0.45594000000E+02  0.51100000000E-03 0.  1.
         11   -1    0    0    0    0 -0.00000000000E+00 -0.00000000000E+00 -0.45593999997E+02  0.45594000000E+02  0.51100000000E-03 0. -1.
    9900012    2    1    2    0    0  0.16787582930E+02  0.64739372827E+01  0.51904910036E+01  0.72461654883E+02  0.70000110193E+02 0.  0.
        -12    1    1    2    0    0 -0.16787582930E+02 -0.64739372827E+01 -0.51904910036E+01  0.18726345117E+02  0.00000000000E+00 0.  1.
         11    1    3    3    0    0  0.52683980887E+01  0.20334492505E+02  0.24276842167E+01  0.21145714809E+02  0.51100000000E-03 0. -1.
        -11    1    3    3    0    0 -0.10095467611E+02  0.12441433250E+02 -0.42084688501E+01  0.16565595007E+02  0.51100000000E-03 0.  1.
        -12    1    3    3    0    0  0.21614652452E+02 -0.26301988473E+02  0.69712756369E+01  0.34750345067E+02  0.00000000000E+00 0.  1.
</event>
<event>
 7    1  0.3508738E-013  0.7246161E+02  0.7816164E-02  0.1226708E+00
        -11   -1    0    0    0    0  0.00000000000E+00  0.00000000000E+00  0.45593999997E+02  0.45594000000E+02  0.51100000000E-03 0. -1.
         11   -1    0    0    0    0 -0.00000000000E+00 -0.00000000000E+00 -0.45593999997E+02  0.45594000000E+02  0.51100000000E-03 0.  1.
    9900012    2    1    2    0    0  0.10501916951E+02  0.37206117767E+01 -0.15051397310E+02  0.72461607592E+02  0.70000048587E+02 0.  0.
        -12    1    1    2    0    0 -0.10501916951E+02 -0.37206117767E+01  0.15051397310E+02  0.18726392408E+02  0.00000000000E+00 0.  1.
         11    1    3    3    0    0 -0.12276945460E+02 -0.19828408385E+02 -0.14583879861E+02  0.27505976096E+02  0.51100000000E-03 0. -1.
        -11    1    3    3    0    0  0.80925029317E+01 -0.34863188129E+01 -0.94338046586E+01  0.12908899766E+02  0.51100000000E-03 0.  1.
        -12    1    3    3    0    0  0.14686359480E+02  0.27035338975E+02  0.89662872098E+01  0.32046731730E+02  0.00000000000E+00 0.  1.
</event>
<event>
 7    1  0.3508738E-013  0.7246169E+02  0.7816164E-02  0.1226708E+00
        -11   -1    0    0    0    0  0.00000000000E+00  0.00000000000E+00  0.45593999997E+02  0.45594000000E+02  0.51100000000E-03 0. -1.
         11   -1    0    0    0    0 -0.00000000000E+00 -0.00000000000E+00 -0.45593999997E+02  0.45594000000E+02  0.51100000000E-03 0.  1.
    9900012    2    1    2    0    0  0.10348338583E+02  0.57562789952E+01  0.14506957314E+02  0.72461690438E+02  0.70000156510E+02 0.  0.
        -12    1    1    2    0    0 -0.10348338583E+02 -0.57562789952E+01 -0.14506957314E+02  0.18726309562E+02  0.00000000000E+00 0.  1.
         11    1    3    3    0    0  0.13828153098E+02 -0.35924240952E+01 -0.65355128039E+01  0.15711023419E+02  0.51100000000E-03 0.  1.
        -11    1    3    3    0    0 -0.38763128589E+01  0.30338957615E+02  0.66591006586E+01  0.31302104920E+02  0.51100000000E-03 0. -1.
         12    1    3    3    0    0  0.39649834380E+00 -0.20990254525E+02  0.14383369459E+02  0.25448562100E+02  0.00000000000E+00 0. -1.
</event>
<event>
 7    1  0.3508738E-013  0.7246161E+02  0.7816164E-02  0.1226708E+00
        -11   -1    0    0    0    0  0.00000000000E+00  0.00000000000E+00  0.45593999997E+02  0.45594000000E+02  0.51100000000E-03 0.  1.
         11   -1    0    0    0    0 -0.00000000000E+00 -0.00000000000E+00 -0.45593999997E+02  0.45594000000E+02  0.51100000000E-03 0. -1.
    9900012    2    1    2    0    0 -0.12761188809E+02 -0.91139192095E+01 -0.10235528942E+02  0.72461614447E+02  0.70000057517E+02 0.  0.
        -12    1    1    2    0    0  0.12761188809E+02  0.91139192095E+01  0.10235528942E+02  0.18726385553E+02  0.00000000000E+00 0.  1.
         11    1    3    3    0    0  0.41837364114E+01 -0.11261039218E+01 -0.22029212068E+01  0.48605166913E+01  0.51100000000E-03 0. -1.
        -11    1    3    3    0    0  0.13284298513E+02  0.21035218661E+02 -0.62749336274E+01  0.25657899434E+02  0.51100000000E-03 0.  1.
         12    1    3    3    0    0 -0.30229223733E+02 -0.29023033949E+02 -0.17576741074E+01  0.41943198321E+02  0.00000000000E+00 0. -1.
</event>
<event>
 7    1  0.3508738E-013  0.7246159E+02  0.7816164E-02  0.1226708E+00
        -11   -1    0    0    0    0  0.00000000000E+00  0.00000000000E+00  0.45593999997E+02  0.45594000000E+02  0.51100000000E-03 0.  1.
         11   -1    0    0    0    0 -0.00000000000E+00 -0.00000000000E+00 -0.45593999997E+02  0.45594000000E+02  0.51100000000E-03 0. -1.
    9900012    2    1    2    0    0  0.17169961354E+02  0.74601176912E+01 -0.46624153386E+00  0.72461593243E+02  0.70000029895E+02 0.  0.
        -12    1    1    2    0    0 -0.17169961354E+02 -0.74601176912E+01  0.46624153386E+00  0.18726406757E+02  0.00000000000E+00 0.  1.
         11    1    3    3    0    0  0.14128127537E+02 -0.18641667517E+01  0.93014290655E+01  0.17017511225E+02  0.51100000000E-03 0. -1.
        -11    1    3    3    0    0  0.22251597510E+02 -0.70165306548E+01  0.79208682023E+01  0.24639509888E+02  0.51100000000E-03 0.  1.
         12    1    3    3    0    0 -0.19209763693E+02  0.16340815098E+02 -0.17688538802E+02  0.30804572130E+02  0.00000000000E+00 0. -1.
</event>
<event>
 7    1  0.3508738E-013  0.7246154E+02  0.7816164E-02  0.1226708E+00
        -11   -1    0    0    0    0  0.00000000000E+00  0.00000000000E+00  0.45593999997E+02  0.45594000000E+02  0.51100000000E-03 0.  1.
         11   -1    0    0    0    0 -0.00000000000E+00 -0.00000000000E+00 -0.45593999997E+02  0.45594000000E+02  0.51100000000E-03 0. -1.
    9900012    2    1    2    0    0  0.13101119627E+02  0.11879513407E+02 -0.61577780546E+01  0.72461537311E+02  0.69999957033E+02 0.  0.
        -12    1    1    2    0    0 -0.13101119627E+02 -0.11879513407E+02  0.61577780546E+01  0.18726462689E+02  0.00000000000E+00 0.  1.
         11    1    3    3    0    0  0.23988559990E+02 -0.86818005649E+01 -0.25623049635E+02  0.36157507440E+02  0.51100000000E-03 0. -1.
        -11    1    3    3    0    0  0.45986375602E+01  0.52545777767E+01  0.10817552911E+02  0.12875461400E+02  0.51100000000E-03 0.  1.
        -12    1    3    3    0    0 -0.15486077924E+02  0.15306736195E+02  0.86477186689E+01  0.23428568471E+02  0.00000000000E+00 0.  1.
</event>
<event>
 7    1  0.3508738E-013  0.7246158E+02  0.7816164E-02  0.1226708E+00
        -11   -1    0    0    0    0  0.00000000000E+00  0.00000000000E+00  0.45593999997E+02  0.45594000000E+02  0.51100000000E-03 0.  1.
         11   -1    0    0    0    0 -0.00000000000E+00 -0.00000000000E+00 -0.45593999997E+02  0.45594000000E+02  0.51100000000E-03 0. -1.
    9900012    2    1    2    0    0 -0.17261143633E+02  0.32905225777E+01 -0.64733503729E+01  0.72461577934E+02  0.70000009952E+02 0.  0.
        -12    1    1    2    0    0  0.17261143633E+02 -0.32905225777E+01  0.64733503729E+01  0.18726422066E+02  0.00000000000E+00 0.  1.
         11    1    3    3    0    0 -0.85738157555E+01 -0.39636122987E+01 -0.24995520906E+01  0.97707880940E+01  0.51100000000E-03 0. -1.
        -11    1    3    3    0    0  0.13530780530E+02 -0.20615966848E+02  0.65729048820E+01  0.25520642423E+02  0.51100000000E-03 0.  1.
         12    1    3    3    0    0 -0.22218108407E+02  0.27870101725E+02 -0.10546703164E+02  0.37170147417E+02  0.00000000000E+00 0. -1.
</event>
<event>
 7    1  0.3508738E-013  0.7246151E+02  0.7816164E-02  0.1226708E+00
        -11   -1    0    0    0    0  0.00000000000E+00  0.00000000000E+00  0.45593999997E+02  0.45594000000E+02  0.51100000000E-03 0. -1.
         11   -1    0    0    0    0 -0.00000000000E+00 -0.00000000000E+00 -0.45593999997E+02  0.45594000000E+02  0.51100000000E-03 0.  1.
    9900012    2    1    2    0    0 -0.11330759361E+01  0.18383509717E+02  0.33829363531E+01  0.72461506763E+02  0.69999917239E+02 0.  0.
        -12    1    1    2    0    0  0.11330759361E+01 -0.18383509717E+02 -0.33829363531E+01  0.18726493237E+02  0.00000000000E+00 0.  1.
         11    1    3    3    0    0 -0.18555879057E+02 -0.11813068558E+02  0.15429058017E+02  0.26868663307E+02  0.51100000000E-03 0. -1.
        -11    1    3    3    0    0  0.53335596339E+01 -0.31088555137E+00  0.60882645205E+01  0.81000292177E+01  0.51100000000E-03 0.  1.
        -12    1    3    3    0    0  0.12089243487E+02  0.30507463827E+02 -0.18134386185E+02  0.37492814238E+02  0.00000000000E+00 0.  1.
</event>
<event>
 7    1  0.3508738E-013  0.7246157E+02  0.7816164E-02  0.1226708E+00
        -11   -1    0    0    0    0  0.00000000000E+00  0.00000000000E+00  0.45593999997E+02  0.45594000000E+02  0.51100000000E-03 0.  1.
         11   -1    0    0    0    0 -0.00000000000E+00 -0.00000000000E+00 -0.45593999997E+02  0.45594000000E+02  0.51100000000E-03 0. -1.
    9900012    2    1    2    0    0 -0.23543096556E+01 -0.48454102872E+01 -0.17934840797E+02  0.72461567098E+02  0.69999995836E+02 0.  0.
        -12    1    1    2    0    0  0.23543096556E+01  0.48454102872E+01  0.17934840797E+02  0.18726432902E+02  0.00000000000E+00 0.  1.
         11    1    3    3    0    0 -0.43794552146E+01  0.94898873097E+01 -0.48223548026E+01  0.11510547130E+02  0.51100000000E-03 0. -1.
        -11    1    3    3    0    0 -0.10826805396E+02  0.95161713447E+01  0.15759473795E+02  0.21357393257E+02  0.51100000000E-03 0.  1.
         12    1    3    3    0    0  0.12851950955E+02 -0.23851468942E+02 -0.28871959790E+02  0.39593626711E+02  0.00000000000E+00 0. -1.
</event>
<event>
 7    1  0.3508738E-013  0.7246160E+02  0.7816164E-02  0.1226708E+00
        -11   -1    0    0    0    0  0.00000000000E+00  0.00000000000E+00  0.45593999997E+02  0.45594000000E+02  0.51100000000E-03 0.  1.
         11   -1    0    0    0    0 -0.00000000000E+00 -0.00000000000E+00 -0.45593999997E+02  0.45594000000E+02  0.51100000000E-03 0. -1.
    9900012    2    1    2    0    0  0.72995481952E+01  0.15764102807E+01 -0.17172936203E+02  0.72461595886E+02  0.70000033338E+02 0.  0.
        -12    1    1    2    0    0 -0.72995481952E+01 -0.15764102807E+01  0.17172936203E+02  0.18726404114E+02  0.00000000000E+00 0.  1.
         11    1    3    3    0    0  0.73588070472E+01 -0.19099859829E+02 -0.97451292952E+01  0.22669897042E+02  0.51100000000E-03 0. -1.
        -11    1    3    3    0    0  0.17317859119E+02  0.73017863506E+01 -0.17482499896E+02  0.25668309863E+02  0.51100000000E-03 0.  1.
        -12    1    3    3    0    0 -0.17377117971E+02  0.13374483759E+02  0.10054692988E+02  0.24123388980E+02  0.00000000000E+00 0.  1.
</event>
<event>
 7    1  0.3508738E-013  0.7246156E+02  0.7816164E-02  0.1226708E+00
        -11   -1    0    0    0    0  0.00000000000E+00  0.00000000000E+00  0.45593999997E+02  0.45594000000E+02  0.51100000000E-03 0.  1.
         11   -1    0    0    0    0 -0.00000000000E+00 -0.00000000000E+00 -0.45593999997E+02  0.45594000000E+02  0.51100000000E-03 0. -1.
    9900012    2    1    2    0    0 -0.90338741297E+01  0.15386864980E+02  0.56844434646E+01  0.72461564322E+02  0.69999992220E+02 0.  0.
        -12    1    1    2    0    0  0.90338741297E+01 -0.15386864980E+02 -0.56844434646E+01  0.18726435678E+02  0.00000000000E+00 0.  1.
         11    1    3    3    0    0  0.23451871733E+01 -0.63616957565E+01 -0.11477054496E+02  0.13330185893E+02  0.51100000000E-03 0. -1.
        -11    1    3    3    0    0 -0.26845445894E+02  0.17212982647E+02 -0.44208116463E+01  0.32194849164E+02  0.51100000000E-03 0.  1.
        -12    1    3    3    0    0  0.15466384591E+02  0.45355780895E+01  0.21582309607E+02  0.26936529265E+02  0.00000000000E+00 0.  1.
</event>
<event>
 7    1  0.3508738E-013  0.7246107E+02  0.7816164E-02  0.1226709E+00
        -11   -1    0    0    0    0  0.00000000000E+00  0.00000000000E+00  0.45593999997E+02  0.45594000000E+02  0.51100000000E-03 0.  1.
         11   -1    0    0    0    0 -0.00000000000E+00 -0.00000000000E+00 -0.45593999997E+02  0.45594000000E+02  0.51100000000E-03 0. -1.
    9900012    2    1    2    0    0  0.29372815217E+01 -0.77425459640E+01 -0.16796527509E+02  0.72461068134E+02  0.69999345840E+02 0.  0.
        -12    1    1    2    0    0 -0.29372815217E+01  0.77425459640E+01  0.16796527509E+02  0.18726931866E+02  0.00000000000E+00 0.  1.
         11    1    3    3    0    0 -0.11097474114E+02 -0.21944456918E+02 -0.73042862531E+01  0.25652791643E+02  0.51100000000E-03 0. -1.
        -11    1    3    3    0    0  0.47545335617E+01 -0.11513487907E+02 -0.14391901323E+02  0.19033991098E+02  0.51100000000E-03 0.  1.
        -12    1    3    3    0    0  0.92802220736E+01  0.25715398861E+02  0.48996600669E+01  0.27774285393E+02  0.00000000000E+00 0.  1.
</event>
<event>
 7    1  0.3508738E-013  0.7246158E+02  0.7816164E-02  0.1226708E+00
        -11   -1    0    0    0    0  0.00000000000E+00  0.00000000000E+00  0.45593999997E+02  0.45594000000E+02  0.51100000000E-03 0. -1.
         11   -1    0    0    0    0 -0.00000000000E+00 -0.00000000000E+00 -0.45593999997E+02  0.45594000000E+02  0.51100000000E-03 0.  1.
    9900012    2    1    2    0    0 -0.79101376999E+01  0.10749619114E+02  0.13135988074E+02  0.72461580903E+02  0.70000013819E+02 0.  0.
        -12    1    1    2    0    0  0.79101376999E+01 -0.10749619114E+02 -0.13135988074E+02  0.18726419097E+02  0.00000000000E+00 0.  1.
         11    1    3    3    0    0 -0.93865868960E+01  0.86399331910E+01 -0.34590057002E+01  0.13218213941E+02  0.51100000000E-03 0. -1.
        -11    1    3    3    0    0 -0.16304473853E+02 -0.17228621896E+01 -0.15365103723E+02  0.22469769346E+02  0.51100000000E-03 0.  1.
         12    1    3    3    0    0  0.17780923049E+02  0.38325481121E+01  0.31960097498E+02  0.36773597616E+02  0.00000000000E+00 0. -1.
</event>
<event>
 7    1  0.3508738E-013  0.7246157E+02  0.7816164E-02  0.1226708E+00
        -11   -1    0    0    0    0  0.00000000000E+00  0.00000000000E+00  0.45593999997E+02  0.45594000000E+02  0.51100000000E-03 0.  1.
         11   -1    0    0    0    0 -0.00000000000E+00 -0.00000000000E+00 -0.45593999997E+02  0.45594000000E+02  0.51100000000E-03 0. -1.
    9900012    2    1    2    0    0 -0.18328898019E+02  0.17811869001E+01 -0.33997069308E+01  0.72461571174E+02  0.70000001146E+02 0.  0.
        -12    1    1    2    0    0  0.18328898019E+02 -0.17811869001E+01  0.33997069308E+01  0.18726428826E+02  0.00000000000E+00 0.  1.
         11    1    3    3    0    0 -0.18909872678E+02 -0.18773663445E+02 -0.19400661991E+02  0.32960876957E+02  0.51100000000E-03 0. -1.
        -11    1    3    3    0    0  0.22962115535E+01 -0.57541473023E+01 -0.31155603585E+01  0.69346604303E+01  0.51100000000E-03 0.  1.
         12    1    3    3    0    0 -0.17152368941E+01  0.26308997647E+02  0.19116515418E+02  0.32566033786E+02  0.00000000000E+00 0. -1.
</event>
<event>
 7    1  0.3508738E-013  0.7246160E+02  0.7816164E-02  0.1226708E+00
        -11   -1    0    0    0    0  0.00000000000E+00  0.00000000000E+00  0.45593999997E+02  0.45594000000E+02  0.51100000000E-03 0.  1.
         11   -1    0    0    0    0 -0.00000000000E+00 -0.00000000000E+00 -0.45593999997E+02  0.45594000000E+02  0.51100000000E-03 0. -1.
    9900012    2    1    2    0    0  0.13886143095E+02  0.91760014564E+01 -0.85822014150E+01  0.72461597411E+02  0.70000035325E+02 0.  0.
        -12    1    1    2    0    0 -0.13886143095E+02 -0.91760014564E+01  0.85822014150E+01  0.18726402589E+02  0.00000000000E+00 0.  1.
         11    1    3    3    0    0  0.16341968556E+02  0.54217520460E+01 -0.26538884925E+02  0.31634913385E+02  0.51100000000E-03 0. -1.
        -11    1    3    3    0    0 -0.12888226443E+02  0.12115476578E+01 -0.62280690801E+01  0.14365342784E+02  0.51100000000E-03 0.  1.
         12    1    3    3    0    0  0.10432400982E+02  0.25427017527E+01  0.24184752590E+02  0.26461341242E+02  0.00000000000E+00 0. -1.
</event>
<event>
 7    1  0.3508738E-013  0.7246157E+02  0.7816164E-02  0.1226708E+00
        -11   -1    0    0    0    0  0.00000000000E+00  0.00000000000E+00  0.45593999997E+02  0.45594000000E+02  0.51100000000E-03 0.  1.
         11   -1    0    0    0    0 -0.00000000000E+00 -0.00000000000E+00 -0.45593999997E+02  0.45594000000E+02  0.51100000000E-03 0. -1.
    9900012    2    1    2    0    0 -0.59077910227E+01 -0.16913926224E+02  0.54494253516E+01  0.72461571303E+02  0.70000001314E+02 0.  0.
        -12    1    1    2    0    0  0.59077910227E+01  0.16913926224E+02 -0.54494253516E+01  0.18726428697E+02  0.00000000000E+00 0.  1.
         11    1    3    3    0    0  0.16357262693E+02 -0.10729658040E+02  0.20106473611E+02  0.28052734017E+02  0.51100000000E-03 0. -1.
        -11    1    3    3    0    0 -0.10394892452E+02  0.14346010510E+02 -0.29439649465E+01  0.17959085069E+02  0.51100000000E-03 0.  1.
        -12    1    3    3    0    0 -0.11870161265E+02 -0.20530278694E+02 -0.11713083313E+02  0.26449752218E+02  0.00000000000E+00 0.  1.
</event>
<event>
 7    1  0.3508738E-013  0.7246159E+02  0.7816164E-02  0.1226708E+00
        -11   -1    0    0    0    0  0.00000000000E+00  0.00000000000E+00  0.45593999997E+02  0.45594000000E+02  0.51100000000E-03 0.  1.
         11   -1    0    0    0    0 -0.00000000000E+00 -0.00000000000E+00 -0.45593999997E+02  0.45594000000E+02  0.51100000000E-03 0. -1.
    9900012    2    1    2    0    0  0.75590856553E+01  0.39528200590E+01 -0.16670750582E+02  0.72461588509E+02  0.70000023728E+02 0.  0.
        -12    1    1    2    0    0 -0.75590856553E+01 -0.39528200590E+01  0.16670750582E+02  0.18726411491E+02  0.00000000000E+00 0.  1.
         11    1    3    3    0    0  0.51624506703E+01  0.31223147784E+01 -0.16582337644E+01  0.62569550084E+01  0.51100000000E-03 0. -1.
        -11    1    3    3    0    0  0.24746764686E+02 -0.21575807206E+02 -0.78079430780E+01  0.33747322773E+02  0.51100000000E-03 0.  1.
         12    1    3    3    0    0 -0.22350129701E+02  0.22406312487E+02 -0.72045737393E+01  0.32457310727E+02  0.00000000000E+00 0. -1.
</event>
<event>
 7    1  0.3508738E-013  0.7246159E+02  0.7816164E-02  0.1226708E+00
        -11   -1    0    0    0    0  0.00000000000E+00  0.00000000000E+00  0.45593999997E+02  0.45594000000E+02  0.51100000000E-03 0.  1.
         11   -1    0    0    0    0 -0.00000000000E+00 -0.00000000000E+00 -0.45593999997E+02  0.45594000000E+02  0.51100000000E-03 0. -1.
    9900012    2    1    2    0    0  0.12297866125E+02 -0.93127520346E+01 -0.10616658445E+02  0.72461593558E+02  0.70000030305E+02 0.  0.
        -12    1    1    2    0    0 -0.12297866125E+02  0.93127520346E+01  0.10616658445E+02  0.18726406442E+02  0.00000000000E+00 0.  1.
         11    1    3    3    0    0 -0.30124492476E+01  0.84959112072E+01  0.14062230301E+02  0.16703343348E+02  0.51100000000E-03 0. -1.
        -11    1    3    3    0    0 -0.11481050912E+02 -0.19422246114E+02 -0.15577876784E+02  0.27417301463E+02  0.51100000000E-03 0.  1.
         12    1    3    3    0    0  0.26791366285E+02  0.16135828725E+01 -0.91010119621E+01  0.28340948746E+02  0.00000000000E+00 0. -1.
</event>
<event>
 7    1  0.3508738E-013  0.7246159E+02  0.7816164E-02  0.1226708E+00
        -11   -1    0    0    0    0  0.00000000000E+00  0.00000000000E+00  0.45593999997E+02  0.45594000000E+02  0.51100000000E-03 0. -1.
         11   -1    0    0    0    0 -0.00000000000E+00 -0.00000000000E+00 -0.45593999997E+02  0.45594000000E+02  0.51100000000E-03 0.  1.
    9900012    2    1    2    0    0 -0.99967831539E+01  0.14695220259E+02  0.58985812678E+01  0.72461589963E+02  0.70000025623E+02 0.  0.
        -12    1    1    2    0    0  0.99967831539E+01 -0.14695220259E+02 -0.58985812678E+01  0.18726410037E+02  0.00000000000E+00 0.  1.
         11    1    3    3    0    0 -0.26504371955E+02 -0.13191314014E+02 -0.54588155917E+01  0.30104670170E+02  0.51100000000E-03 0. -1.
        -11    1    3    3    0    0  0.64312341034E+01  0.11840075919E+02 -0.76701614073E+01  0.15504178344E+02  0.51100000000E-03 0.  1.
        -12    1    3    3    0    0  0.10076354698E+02  0.16046458354E+02  0.19027558267E+02  0.26852741448E+02  0.00000000000E+00 0.  1.
</event>
<event>
 7    1  0.3508738E-013  0.7246167E+02  0.7816164E-02  0.1226708E+00
        -11   -1    0    0    0    0  0.00000000000E+00  0.00000000000E+00  0.45593999997E+02  0.45594000000E+02  0.51100000000E-03 0.  1.
         11   -1    0    0    0    0 -0.00000000000E+00 -0.00000000000E+00 -0.45593999997E+02  0.45594000000E+02  0.51100000000E-03 0. -1.
    9900012    2    1    2    0    0  0.12580442418E+02  0.55516004967E+01 -0.12711719525E+02  0.72461665260E+02  0.70000123711E+02 0.  0.
        -12    1    1    2    0    0 -0.12580442418E+02 -0.55516004967E+01  0.12711719525E+02  0.18726334740E+02  0.00000000000E+00 0.  1.
         11    1    3    3    0    0  0.13280114850E+02  0.62872428952E+01  0.86566600790E+01  0.17053698650E+02  0.51100000000E-03 0. -1.
        -11    1    3    3    0    0 -0.52260375127E+01 -0.18200264644E+02  0.83077120352E+01  0.20677987831E+02  0.51100000000E-03 0.  1.
         12    1    3    3    0    0  0.45263650803E+01  0.17464622246E+02 -0.29676091640E+02  0.34729978780E+02  0.00000000000E+00 0. -1.
</event>
<event>
 7    1  0.3508738E-013  0.7246157E+02  0.7816164E-02  0.1226708E+00
        -11   -1    0    0    0    0  0.00000000000E+00  0.00000000000E+00  0.45593999997E+02  0.45594000000E+02  0.51100000000E-03 0.  1.
         11   -1    0    0    0    0 -0.00000000000E+00 -0.00000000000E+00 -0.45593999997E+02  0.45594000000E+02  0.51100000000E-03 0. -1.
    9900012    2    1    2    0    0 -0.34525065459E+00 -0.49989221698E+01 -0.18043574529E+02  0.72461574749E+02  0.70000005803E+02 0.  0.
        -12    1    1    2    0    0  0.34525065459E+00  0.49989221698E+01  0.18043574529E+02  0.18726425251E+02  0.00000000000E+00 0.  1.
         11    1    3    3    0    0  0.65764912730E+01  0.12041517864E+02  0.83196661307E-01  0.13720616309E+02  0.51100000000E-03 0. -1.
        -11    1    3    3    0    0 -0.20684453306E+02 -0.12523385069E+01  0.10531434192E+02  0.23244914857E+02  0.51100000000E-03 0.  1.
        -12    1    3    3    0    0  0.13762711379E+02 -0.15788101527E+02 -0.28658205383E+02  0.35496043583E+02  0.00000000000E+00 0.  1.
</event>
<event>
 7    1  0.3508738E-013  0.7246157E+02  0.7816164E-02  0.1226708E+00
        -11   -1    0    0    0    0  0.00000000000E+00  0.00000000000E+00  0.45593999997E+02  0.45594000000E+02  0.51100000000E-03 0. -1.
         11   -1    0    0    0    0 -0.00000000000E+00 -0.00000000000E+00 -0.45593999997E+02  0.45594000000E+02  0.51100000000E-03 0.  1.
    9900012    2    1    2    0    0 -0.44637471490E+01  0.18144035679E+02  0.12442647079E+01  0.72461567772E+02  0.69999996714E+02 0.  0.
        -12    1    1    2    0    0  0.44637471490E+01 -0.18144035679E+02 -0.12442647079E+01  0.18726432228E+02  0.00000000000E+00 0.  1.
         11    1    3    3    0    0 -0.61039817647E+00  0.43761518955E+01 -0.20949710005E+01  0.48900097240E+01  0.51100000000E-03 0. -1.
        -11    1    3    3    0    0  0.11155282269E+00 -0.14411059239E+02 -0.24074541994E+02  0.28058414868E+02  0.51100000000E-03 0.  1.
         12    1    3    3    0    0 -0.39649017952E+01  0.28178943022E+02  0.27413777702E+02  0.39513143180E+02  0.00000000000E+00 0. -1.
</event>
<event>
 7    1  0.3508738E-013  0.7246158E+02  0.7816164E-02  0.1226708E+00
        -11   -1    0    0    0    0  0.00000000000E+00  0.00000000000E+00  0.45593999997E+02  0.45594000000E+02  0.51100000000E-03 0.  1.
         11   -1    0    0    0    0 -0.00000000000E+00 -0.00000000000E+00 -0.45593999997E+02  0.45594000000E+02  0.51100000000E-03 0. -1.
    9900012    2    1    2    0    0  0.24679432737E+01  0.18517267543E+02 -0.13034493029E+01  0.72461576921E+02  0.70000008632E+02 0.  0.
        -12    1    1    2    0    0 -0.24679432737E+01 -0.18517267543E+02  0.13034493029E+01  0.18726423079E+02  0.00000000000E+00 0.  1.
         11    1    3    3    0    0 -0.14011415623E+02 -0.18482763761E+02  0.17793394693E+01  0.23261521300E+02  0.51100000000E-03 0. -1.
        -11    1    3    3    0    0 -0.10028713584E+01  0.19503579458E+01  0.81609262763E+01  0.84504653733E+01  0.51100000000E-03 0.  1.
        -12    1    3    3    0    0  0.17482230255E+02  0.35049673358E+02 -0.11243715048E+02  0.40749590247E+02  0.00000000000E+00 0.  1.
</event>
<event>
 7    1  0.3508738E-013  0.7246156E+02  0.7816164E-02  0.1226708E+00
        -11   -1    0    0    0    0  0.00000000000E+00  0.00000000000E+00  0.45593999997E+02  0.45594000000E+02  0.51100000000E-03 0.  1.
         11   -1    0    0    0    0 -0.00000000000E+00 -0.00000000000E+00 -0.45593999997E+02  0.45594000000E+02  0.51100000000E-03 0. -1.
    9900012    2    1    2    0    0  0.39163222739E+01  0.96878832860E+01 -0.15539851425E+02  0.72461557598E+02  0.69999983461E+02 0.  0.
        -12    1    1    2    0    0 -0.39163222739E+01 -0.96878832860E+01  0.15539851425E+02  0.18726442402E+02  0.00000000000E+00 0.  1.
         11    1    3    3    0    0  0.93567418494E+01 -0.18255885884E+02  0.47247625077E+01  0.21051113235E+02  0.51100000000E-03 0. -1.
        -11    1    3    3    0    0  0.91728513402E+01 -0.25865180424E+01 -0.14080580301E+02  0.17002765045E+02  0.51100000000E-03 0.  1.
        -12    1    3    3    0    0 -0.14613270916E+02  0.30530287212E+02 -0.61840336320E+01  0.34407679318E+02  0.00000000000E+00 0.  1.
</event>
<event>
 7    1  0.3508738E-013  0.7246151E+02  0.7816164E-02  0.1226708E+00
        -11   -1    0    0    0    0  0.00000000000E+00  0.00000000000E+00  0.45593999997E+02  0.45594000000E+02  0.51100000000E-03 0. -1.
         11   -1    0    0    0    0 -0.00000000000E+00 -0.00000000000E+00 -0.45593999997E+02  0.45594000000E+02  0.51100000000E-03 0.  1.
    9900012    2    1    2    0    0 -0.85892318495E+01  0.15223362538E+02  0.67197994033E+01  0.72461511414E+02  0.69999923297E+02 0.  0.
        -12    1    1    2    0    0  0.85892318495E+01 -0.15223362538E+02 -0.67197994033E+01  0.18726488586E+02  0.00000000000E+00 0.  1.
         11    1    3    3    0    0 -0.20191463222E+02  0.83560133130E+01  0.48773402864E+01  0.22389877045E+02  0.51100000000E-03 0. -1.
        -11    1    3    3    0    0 -0.15634693461E+02 -0.69137586266E+01  0.80919363046E+01  0.18913570033E+02  0.51100000000E-03 0.  1.
         12    1    3    3    0    0  0.27236924834E+02  0.13781107852E+02 -0.62494771878E+01  0.31158064336E+02  0.00000000000E+00 0. -1.
</event>
<event>
 7    1  0.3508738E-013  0.7246158E+02  0.7816164E-02  0.1226708E+00
        -11   -1    0    0    0    0  0.00000000000E+00  0.00000000000E+00  0.45593999997E+02  0.45594000000E+02  0.51100000000E-03 0. -1.
         11   -1    0    0    0    0 -0.00000000000E+00 -0.00000000000E+00 -0.45593999997E+02  0.45594000000E+02  0.51100000000E-03 0.  1.
    9900012    2    1    2    0    0 -0.14667285581E+02  0.30393810362E+01  0.11238846083E+02  0.72461581104E+02  0.70000014081E+02 0.  0.
        -12    1    1    2    0    0  0.14667285581E+02 -0.30393810362E+01 -0.11238846083E+02  0.18726418896E+02  0.00000000000E+00 0.  1.
         11    1    3    3    0    0 -0.72724365516E+01  0.27901917553E+02 -0.16548040259E+02  0.33245194739E+02  0.51100000000E-03 0. -1.
        -11    1    3    3    0    0  0.32356108912E+00 -0.13029053493E+02  0.96020054922E+01  0.16188249950E+02  0.51100000000E-03 0.  1.
        -12    1    3    3    0    0 -0.77184101181E+01 -0.11833483024E+02  0.18184880850E+02  0.23028136415E+02  0.00000000000E+00 0.  1.
</event>
<event>
 7    1  0.3508738E-013  0.7246154E+02  0.7816164E-02  0.1226708E+00
        -11   -1    0    0    0    0  0.00000000000E+00  0.00000000000E+00  0.45593999997E+02  0.45594000000E+02  0.51100000000E-03 0.  1.
         11   -1    0    0    0    0 -0.00000000000E+00 -0.00000000000E+00 -0.45593999997E+02  0.45594000000E+02  0.51100000000E-03 0. -1.
    9900012    2    1    2    0    0  0.71638784684E+01 -0.17287929044E+02 -0.69762987853E+00  0.72461539235E+02  0.69999959540E+02 0.  0.
        -12    1    1    2    0    0 -0.71638784684E+01  0.17287929044E+02  0.69762987853E+00  0.18726460765E+02  0.00000000000E+00 0.  1.
         11    1    3    3    0    0  0.22048225430E+02  0.40144062697E+01  0.66279506467E+00  0.22420504006E+02  0.51100000000E-03 0. -1.
        -11    1    3    3    0    0  0.15017194687E+02 -0.63232491635E+01  0.20560600603E+01  0.16423367483E+02  0.51100000000E-03 0.  1.
         12    1    3    3    0    0 -0.29901541649E+02 -0.14979086150E+02 -0.34164850034E+01  0.33617667746E+02  0.00000000000E+00 0. -1.
</event>
<event>
 7    1  0.3508738E-013  0.7246158E+02  0.7816164E-02  0.1226708E+00
        -11   -1    0    0    0    0  0.00000000000E+00  0.00000000000E+00  0.45593999997E+02  0.45594000000E+02  0.51100000000E-03 0.  1.
         11   -1    0    0    0    0 -0.00000000000E+00 -0.00000000000E+00 -0.45593999997E+02  0.45594000000E+02  0.51100000000E-03 0. -1.
    9900012    2    1    2    0    0  0.17825220800E+02  0.57176929819E+01 -0.49842420102E+00  0.72461576522E+02  0.70000008112E+02 0.  0.
        -12    1    1    2    0    0 -0.17825220800E+02 -0.57176929819E+01  0.49842420102E+00  0.18726423478E+02  0.00000000000E+00 0.  1.
         11    1    3    3    0    0  0.27757177707E+02  0.16460222950E+02  0.61866064530E+01  0.32858392436E+02  0.51100000000E-03 0. -1.
        -11    1    3    3    0    0  0.98326087813E+01  0.51357501872E+01 -0.88039514502E+01  0.14162121551E+02  0.51100000000E-03 0.  1.
        -12    1    3    3    0    0 -0.19764565688E+02 -0.15878280155E+02  0.21189207962E+01  0.25441062534E+02  0.00000000000E+00 0.  1.
</event>
<event>
 7    1  0.3508738E-013  0.7246153E+02  0.7816164E-02  0.1226708E+00
        -11   -1    0    0    0    0  0.00000000000E+00  0.00000000000E+00  0.45593999997E+02  0.45594000000E+02  0.51100000000E-03 0.  1.
         11   -1    0    0    0    0 -0.00000000000E+00 -0.00000000000E+00 -0.45593999997E+02  0.45594000000E+02  0.51100000000E-03 0. -1.
    9900012    2    1    2    0    0  0.82215242005E+01 -0.15467125728E+02 -0.66223288207E+01  0.72461530031E+02  0.69999947550E+02 0.  0.
        -12    1    1    2    0    0 -0.82215242005E+01  0.15467125728E+02  0.66223288207E+01  0.18726469969E+02  0.00000000000E+00 0.  1.
         11    1    3    3    0    0  0.22923241607E+02  0.72400503818E+01 -0.10280659101E+02  0.26145463987E+02  0.51100000000E-03 0. -1.
        -11    1    3    3    0    0  0.11457363331E+02 -0.23746516857E+01  0.59085339603E+01  0.13108047870E+02  0.51100000000E-03 0.  1.
        -12    1    3    3    0    0 -0.26159080737E+02 -0.20332524424E+02 -0.22502036800E+01  0.33208018175E+02  0.00000000000E+00 0.  1.
</event>
<event>
 7    1  0.3508738E-013  0.7246155E+02  0.7816164E-02  0.1226708E+00
        -11   -1    0    0    0    0  0.00000000000E+00  0.00000000000E+00  0.45593999997E+02  0.45594000000E+02  0.51100000000E-03 0.  1.
         11   -1    0    0    0    0 -0.00000000000E+00 -0.00000000000E+00 -0.45593999997E+02  0.45594000000E+02  0.51100000000E-03 0. -1.
    9900012    2    1    2    0    0 -0.18617961002E+02 -0.28508813544E+00  0.19925243482E+01  0.72461550780E+02  0.69999974579E+02 0.  0.
        -12    1    1    2    0    0  0.18617961002E+02  0.28508813544E+00 -0.19925243482E+01  0.18726449220E+02  0.00000000000E+00 0.  1.
         11    1    3    3    0    0 -0.37710560133E+01 -0.12571965783E+02 -0.10913248434E+02  0.17069685960E+02  0.51100000000E-03 0. -1.
        -11    1    3    3    0    0  0.17315801841E+02  0.13052918617E+02  0.46443385621E+01  0.22176238607E+02  0.51100000000E-03 0.  1.
         12    1    3    3    0    0 -0.32162706829E+02 -0.76604096934E+00  0.82614342202E+01  0.33215626213E+02  0.00000000000E+00 0. -1.
</event>
<event>
 7    1  0.3508738E-013  0.7246156E+02  0.7816164E-02  0.1226708E+00
        -11   -1    0    0    0    0  0.00000000000E+00  0.00000000000E+00  0.45593999997E+02  0.45594000000E+02  0.51100000000E-03 0.  1.
         11   -1    0    0    0    0 -0.00000000000E+00 -0.00000000000E+00 -0.45593999997E+02  0.45594000000E+02  0.51100000000E-03 0. -1.
    9900012    2    1    2    0    0 -0.63958771942E+01  0.59973034866E+01 -0.16547047119E+02  0.72461557131E+02  0.69999982852E+02 0.  0.
        -12    1    1    2    0    0  0.63958771942E+01 -0.59973034866E+01  0.16547047119E+02  0.18726442869E+02  0.00000000000E+00 0.  1.
         11    1    3    3    0    0  0.63828058661E+01 -0.58988649003E+01 -0.16650079382E+02  0.18781958405E+02  0.51100000000E-03 0. -1.
        -11    1    3    3    0    0 -0.21791164607E+02 -0.13838766252E+02  0.40438303874E+01  0.26128889582E+02  0.51100000000E-03 0.  1.
         12    1    3    3    0    0  0.90124815467E+01  0.25734934639E+02 -0.39407981245E+01  0.27550709144E+02  0.00000000000E+00 0. -1.
</event>
<event>
 7    1  0.3508738E-013  0.7246156E+02  0.7816164E-02  0.1226708E+00
        -11   -1    0    0    0    0  0.00000000000E+00  0.00000000000E+00  0.45593999997E+02  0.45594000000E+02  0.51100000000E-03 0. -1.
         11   -1    0    0    0    0 -0.00000000000E+00 -0.00000000000E+00 -0.45593999997E+02  0.45594000000E+02  0.51100000000E-03 0.  1.
    9900012    2    1    2    0    0  0.10199258739E+02  0.11628068528E+01  0.15662137229E+02  0.72461560371E+02  0.69999987073E+02 0.  0.
        -12    1    1    2    0    0 -0.10199258739E+02 -0.11628068528E+01 -0.15662137229E+02  0.18726439629E+02  0.00000000000E+00 0.  1.
         11    1    3    3    0    0 -0.43143352396E+00  0.24779624738E+01  0.39907055655E+01  0.47172199523E+01  0.51100000000E-03 0. -1.
        -11    1    3    3    0    0  0.31593266827E+02  0.14891846526E+02  0.19645953155E+02  0.40073246404E+02  0.51100000000E-03 0.  1.
         12    1    3    3    0    0 -0.20962574564E+02 -0.16207002146E+02 -0.79745214918E+01  0.27671094015E+02  0.00000000000E+00 0. -1.
</event>
<event>
 7    1  0.3508738E-013  0.7246152E+02  0.7816164E-02  0.1226708E+00
        -11   -1    0    0    0    0  0.00000000000E+00  0.00000000000E+00  0.45593999997E+02  0.45594000000E+02  0.51100000000E-03 0.  1.
         11   -1    0    0    0    0 -0.00000000000E+00 -0.00000000000E+00 -0.45593999997E+02  0.45594000000E+02  0.51100000000E-03 0. -1.
    9900012    2    1    2    0    0  0.17645010357E+02  0.60947849429E+01  0.14793330199E+01  0.72461515541E+02  0.69999928674E+02 0.  0.
        -12    1    1    2    0    0 -0.17645010357E+02 -0.60947849429E+01 -0.14793330199E+01  0.18726484459E+02  0.00000000000E+00 0.  1.
         11    1    3    3    0    0  0.11090323163E+02  0.10196145240E+02 -0.68025821453E+01  0.16529723824E+02  0.51100000000E-03 0. -1.
        -11    1    3    3    0    0  0.11901604676E+02 -0.25488770729E+02 -0.71459852806E+01  0.29023968251E+02  0.51100000000E-03 0.  1.
         12    1    3    3    0    0 -0.53469174815E+01  0.21387410432E+02  0.15427900446E+02  0.26907823466E+02  0.00000000000E+00 0. -1.
</event>
<event>
 7    1  0.4329782E-013  0.7246155E+02  0.7816164E-02  0.1226708E+00
        -11   -1    0    0    0    0  0.00000000000E+00  0.00000000000E+00  0.45593999997E+02  0.45594000000E+02  0.51100000000E-03 0.  1.
         11   -1    0    0    0    0 -0.00000000000E+00 -0.00000000000E+00 -0.45593999997E+02  0.45594000000E+02  0.51100000000E-03 0. -1.
    9900012    2    1    2    0    0 -0.77354791963E+01 -0.83508783841E+01 -0.14869607453E+02  0.72461547213E+02  0.69999969932E+02 0.  0.
        -12    1    1    2    0    0  0.77354791963E+01  0.83508783841E+01  0.14869607453E+02  0.18726452787E+02  0.00000000000E+00 0.  1.
         11    1    3    3    0    0 -0.84720806038E+01 -0.20646972035E+02 -0.30994462418E+02  0.38193328015E+02  0.51100000000E-03 0. -1.
        -11    1    3    3    0    0 -0.58010833152E-02 -0.81966845541E+01  0.98689980941E+01  0.12828982617E+02  0.51100000000E-03 0.  1.
        -12    1    3    3    0    0  0.74240249076E+00  0.20492778205E+02  0.62558568714E+01  0.21439236582E+02  0.00000000000E+00 0.  1.
</event>
<event>
 7    1  0.3508738E-013  0.7246154E+02  0.7816164E-02  0.1226708E+00
        -11   -1    0    0    0    0  0.00000000000E+00  0.00000000000E+00  0.45593999997E+02  0.45594000000E+02  0.51100000000E-03 0.  1.
         11   -1    0    0    0    0 -0.00000000000E+00 -0.00000000000E+00 -0.45593999997E+02  0.45594000000E+02  0.51100000000E-03 0. -1.
    9900012    2    1    2    0    0 -0.16187935596E+02 -0.45168867865E+01 -0.82600740995E+01  0.72461538796E+02  0.69999958967E+02 0.  0.
        -12    1    1    2    0    0  0.16187935596E+02  0.45168867865E+01  0.82600740995E+01  0.18726461204E+02  0.00000000000E+00 0.  1.
         11    1    3    3    0    0  0.72102759912E+01  0.12053549827E+01 -0.30380970752E+01  0.79165014118E+01  0.51100000000E-03 0. -1.
        -11    1    3    3    0    0 -0.69353959693E+01 -0.32268430128E+02 -0.44030190364E+01  0.33297715793E+02  0.51100000000E-03 0.  1.
         12    1    3    3    0    0 -0.16462815618E+02  0.26546188358E+02 -0.81895798795E+00  0.31247321591E+02  0.00000000000E+00 0. -1.
</event>
<event>
 7    1  0.3508738E-013  0.7246156E+02  0.7816164E-02  0.1226708E+00
        -11   -1    0    0    0    0  0.00000000000E+00  0.00000000000E+00  0.45593999997E+02  0.45594000000E+02  0.51100000000E-03 0.  1.
         11   -1    0    0    0    0 -0.00000000000E+00 -0.00000000000E+00 -0.45593999997E+02  0.45594000000E+02  0.51100000000E-03 0. -1.
    9900012    2    1    2    0    0 -0.15586956988E+02 -0.99301812914E+01 -0.30195788084E+01  0.72461559206E+02  0.69999985555E+02 0.  0.
        -12    1    1    2    0    0  0.15586956988E+02  0.99301812914E+01  0.30195788084E+01  0.18726440794E+02  0.00000000000E+00 0.  1.
         11    1    3    3    0    0  0.24574005001E+02 -0.35954350744E+01 -0.20722865850E+01  0.24921943084E+02  0.51100000000E-03 0. -1.
        -11    1    3    3    0    0 -0.22980244677E+01  0.37550155638E+01  0.63050160432E+01  0.76898820475E+01  0.51100000000E-03 0.  1.
        -12    1    3    3    0    0 -0.37862937522E+02 -0.10089761781E+02 -0.72523082667E+01  0.39849734074E+02  0.00000000000E+00 0.  1.
</event>
<event>
 7    1  0.3508738E-013  0.7246160E+02  0.7816164E-02  0.1226708E+00
        -11   -1    0    0    0    0  0.00000000000E+00  0.00000000000E+00  0.45593999997E+02  0.45594000000E+02  0.51100000000E-03 0. -1.
         11   -1    0    0    0    0 -0.00000000000E+00 -0.00000000000E+00 -0.45593999997E+02  0.45594000000E+02  0.51100000000E-03 0.  1.
    9900012    2    1    2    0    0 -0.54906749639E+01  0.77360435304E+01  0.16145716705E+02  0.72461600213E+02  0.70000038975E+02 0.  0.
        -12    1    1    2    0    0  0.54906749639E+01 -0.77360435304E+01 -0.16145716705E+02  0.18726399787E+02  0.00000000000E+00 0.  1.
         11    1    3    3    0    0  0.28460254134E+01  0.17132422805E+01 -0.83022241731E+00  0.34240807947E+01  0.51100000000E-03 0. -1.
        -11    1    3    3    0    0  0.16974849003E+02 -0.19395551473E+02  0.20583481162E+02  0.32985036193E+02  0.51100000000E-03 0.  1.
         12    1    3    3    0    0 -0.25311549380E+02  0.25418352723E+02 -0.36075420402E+01  0.36052483226E+02  0.00000000000E+00 0. -1.
</event>
<event>
 7    1  0.3508738E-013  0.7246159E+02  0.7816164E-02  0.1226708E+00
        -11   -1    0    0    0    0  0.00000000000E+00  0.00000000000E+00  0.45593999997E+02  0.45594000000E+02  0.51100000000E-03 0. -1.
         11   -1    0    0    0    0 -0.00000000000E+00 -0.00000000000E+00 -0.45593999997E+02  0.45594000000E+02  0.51100000000E-03 0.  1.
    9900012    2    1    2    0    0 -0.79321847140E+01  0.55293018204E+00  0.16954443020E+02  0.72461590193E+02  0.70000025922E+02 0.  0.
        -12    1    1    2    0    0  0.79321847140E+01 -0.55293018204E+00 -0.16954443020E+02  0.18726409807E+02  0.00000000000E+00 0.  1.
         11    1    3    3    0    0  0.59185060771E+01  0.15121587562E+02  0.64605327687E+01  0.17476544524E+02  0.51100000000E-03 0. -1.
        -11    1    3    3    0    0 -0.14429601305E+02  0.61699607303E+01 -0.15276657935E+02  0.21901097853E+02  0.51100000000E-03 0.  1.
         12    1    3    3    0    0  0.57891051351E+00 -0.20738618110E+02  0.25770568187E+02  0.33083947817E+02  0.00000000000E+00 0. -1.
</event>
<event>
 7    1  0.3508738E-013  0.7246157E+02  0.7816164E-02  0.1226708E+00
        -11   -1    0    0    0    0  0.00000000000E+00  0.00000000000E+00  0.45593999997E+02  0.45594000000E+02  0.51100000000E-03 0. -1.
         11   -1    0    0    0    0 -0.00000000000E+00 -0.00000000000E+00 -0.45593999997E+02  0.45594000000E+02  0.51100000000E-03 0.  1.
    9900012    2    1    2    0    0 -0.92741010874E+01  0.61579036329E+01  0.15058233521E+02  0.72461571486E+02  0.70000001552E+02 0.  0.
        -12    1    1    2    0    0  0.92741010874E+01 -0.61579036329E+01 -0.15058233521E+02  0.18726428514E+02  0.00000000000E+00 0.  1.
         11    1    3    3    0    0 -0.11350674991E+02 -0.86020077499E+01  0.22931657193E+02  0.26994319068E+02  0.51100000000E-03 0. -1.
        -11    1    3    3    0    0  0.98420573940E+00 -0.28699614257E+01  0.15711123704E+02  0.16001398308E+02  0.51100000000E-03 0.  1.
        -12    1    3    3    0    0  0.10923681643E+01  0.17629872809E+02 -0.23584547376E+02  0.29465854109E+02  0.00000000000E+00 0.  1.
</event>
<event>
 7    1  0.3508738E-013  0.7246150E+02  0.7816164E-02  0.1226708E+00
        -11   -1    0    0    0    0  0.00000000000E+00  0.00000000000E+00  0.45593999997E+02  0.45594000000E+02  0.51100000000E-03 0.  1.
         11   -1    0    0    0    0 -0.00000000000E+00 -0.00000000000E+00 -0.45593999997E+02  0.45594000000E+02  0.51100000000E-03 0. -1.
    9900012    2    1    2    0    0  0.43435391265E+01  0.14613253342E+02 -0.10875128705E+02  0.72461496596E+02  0.69999903995E+02 0.  0.
        -12    1    1    2    0    0 -0.43435391265E+01 -0.14613253342E+02  0.10875128705E+02  0.18726503404E+02  0.00000000000E+00 0.  1.
         11    1    3    3    0    0  0.89002989480E+01  0.49723948544E+01  0.13081609759E+02  0.16585190566E+02  0.51100000000E-03 0.  1.
        -11    1    3    3    0    0 -0.18171772889E+01 -0.16056861402E+02  0.51424857902E+01  0.16957891724E+02  0.51100000000E-03 0. -1.
         12    1    3    3    0    0 -0.27395825327E+01  0.25697719889E+02 -0.29099224254E+02  0.38918414306E+02  0.00000000000E+00 0. -1.
</event>
<event>
 7    1  0.3508738E-013  0.7246160E+02  0.7816164E-02  0.1226708E+00
        -11   -1    0    0    0    0  0.00000000000E+00  0.00000000000E+00  0.45593999997E+02  0.45594000000E+02  0.51100000000E-03 0. -1.
         11   -1    0    0    0    0 -0.00000000000E+00 -0.00000000000E+00 -0.45593999997E+02  0.45594000000E+02  0.51100000000E-03 0.  1.
    9900012    2    1    2    0    0 -0.55224750597E+01  0.16902272334E+02 -0.58731290698E+01  0.72461596557E+02  0.70000034212E+02 0.  0.
        -12    1    1    2    0    0  0.55224750597E+01 -0.16902272334E+02  0.58731290698E+01  0.18726403443E+02  0.00000000000E+00 0.  1.
         11    1    3    3    0    0  0.11928108748E+02 -0.11245470424E+02  0.18040283887E+02  0.24376058466E+02  0.51100000000E-03 0. -1.
        -11    1    3    3    0    0 -0.80724750841E+01 -0.33946840477E+01 -0.60361599376E+01  0.10635974841E+02  0.51100000000E-03 0.  1.
        -12    1    3    3    0    0 -0.93781087233E+01  0.31542426806E+02 -0.17877253019E+02  0.37449563249E+02  0.00000000000E+00 0.  1.
</event>
<event>
 7    1  0.3508738E-013  0.7246154E+02  0.7816164E-02  0.1226708E+00
        -11   -1    0    0    0    0  0.00000000000E+00  0.00000000000E+00  0.45593999997E+02  0.45594000000E+02  0.51100000000E-03 0. -1.
         11   -1    0    0    0    0 -0.00000000000E+00 -0.00000000000E+00 -0.45593999997E+02  0.45594000000E+02  0.51100000000E-03 0.  1.
    9900012    2    1    2    0    0  0.96240738551E+01  0.15140190775E+02  0.53695523212E+01  0.72461541008E+02  0.69999961849E+02 0.  0.
        -12    1    1    2    0    0 -0.96240738551E+01 -0.15140190775E+02 -0.53695523212E+01  0.18726458992E+02  0.00000000000E+00 0.  1.
         11    1    3    3    0    0 -0.79272582464E+01  0.13989890906E+02 -0.51566577282E+01  0.16886372910E+02  0.51100000000E-03 0. -1.
        -11    1    3    3    0    0  0.20702394941E+02  0.20944018504E+02 -0.54436968366E+01  0.29947869755E+02  0.51100000000E-03 0.  1.
         12    1    3    3    0    0 -0.31510628394E+01 -0.19793718634E+02  0.15969906886E+02  0.25627298343E+02  0.00000000000E+00 0. -1.
</event>
<event>
 7    1  0.3508738E-013  0.7246158E+02  0.7816164E-02  0.1226708E+00
        -11   -1    0    0    0    0  0.00000000000E+00  0.00000000000E+00  0.45593999997E+02  0.45594000000E+02  0.51100000000E-03 0.  1.
         11   -1    0    0    0    0 -0.00000000000E+00 -0.00000000000E+00 -0.45593999997E+02  0.45594000000E+02  0.51100000000E-03 0. -1.
    9900012    2    1    2    0    0  0.61733841939E+01 -0.48847909815E+01 -0.16991380509E+02  0.72461578373E+02  0.70000010525E+02 0.  0.
        -12    1    1    2    0    0 -0.61733841939E+01  0.48847909815E+01  0.16991380509E+02  0.18726421627E+02  0.00000000000E+00 0.  1.
         11    1    3    3    0    0  0.23920997379E+02 -0.15126435455E+02  0.23432730444E+01  0.28399191784E+02  0.51100000000E-03 0. -1.
        -11    1    3    3    0    0  0.88102714053E+01  0.57996415831E+01 -0.12356204162E+02  0.16245999701E+02  0.51100000000E-03 0.  1.
        -12    1    3    3    0    0 -0.26557884590E+02  0.44420028908E+01 -0.69784493914E+01  0.27816386888E+02  0.00000000000E+00 0.  1.
</event>
<event>
 7    1  0.3508738E-013  0.7246159E+02  0.7816164E-02  0.1226708E+00
        -11   -1    0    0    0    0  0.00000000000E+00  0.00000000000E+00  0.45593999997E+02  0.45594000000E+02  0.51100000000E-03 0. -1.
         11   -1    0    0    0    0 -0.00000000000E+00 -0.00000000000E+00 -0.45593999997E+02  0.45594000000E+02  0.51100000000E-03 0.  1.
    9900012    2    1    2    0    0  0.42336806302E+01  0.44612930767E+01  0.17687599906E+02  0.72461591427E+02  0.70000027530E+02 0.  0.
        -12    1    1    2    0    0 -0.42336806302E+01 -0.44612930767E+01 -0.17687599906E+02  0.18726408573E+02  0.00000000000E+00 0.  1.
         11    1    3    3    0    0  0.72591126709E+01 -0.17417827739E+02  0.37377780338E+02  0.41870919540E+02  0.51100000000E-03 0. -1.
        -11    1    3    3    0    0 -0.82764477450E-01  0.24514377743E+01  0.40418085340E+00  0.24859122156E+01  0.51100000000E-03 0.  1.
        -12    1    3    3    0    0 -0.29426675632E+01  0.19427683041E+02 -0.20094361285E+02  0.28104759672E+02  0.00000000000E+00 0.  1.
</event>
<event>
 7    1  0.3508738E-013  0.7246223E+02  0.7816164E-02  0.1226706E+00
        -11   -1    0    0    0    0  0.00000000000E+00  0.00000000000E+00  0.45593999997E+02  0.45594000000E+02  0.51100000000E-03 0. -1.
         11   -1    0    0    0    0 -0.00000000000E+00 -0.00000000000E+00 -0.45593999997E+02  0.45594000000E+02  0.51100000000E-03 0.  1.
    9900012    2    1    2    0    0  0.76367237550E+01  0.75337361002E+01  0.15348540893E+02  0.72462230673E+02  0.70000860261E+02 0.  0.
        -12    1    1    2    0    0 -0.76367237550E+01 -0.75337361002E+01 -0.15348540893E+02  0.18725769327E+02  0.00000000000E+00 0.  1.
         11    1    3    3    0    0  0.81923962955E+00  0.39455827510E+01  0.20012927643E+01  0.44993277059E+01  0.51100000000E-03 0. -1.
        -11    1    3    3    0    0  0.26806307284E+02 -0.20854278205E+02  0.13057490890E+02  0.36386496098E+02  0.51100000000E-03 0.  1.
         12    1    3    3    0    0 -0.19988823159E+02  0.24442431554E+02  0.28975723887E+00  0.31576406870E+02  0.00000000000E+00 0. -1.
</event>
<event>
 7    1  0.3508738E-013  0.7246160E+02  0.7816164E-02  0.1226708E+00
        -11   -1    0    0    0    0  0.00000000000E+00  0.00000000000E+00  0.45593999997E+02  0.45594000000E+02  0.51100000000E-03 0.  1.
         11   -1    0    0    0    0 -0.00000000000E+00 -0.00000000000E+00 -0.45593999997E+02  0.45594000000E+02  0.51100000000E-03 0. -1.
    9900012    2    1    2    0    0  0.11438677570E+02  0.12135174611E+01 -0.14777085214E+02  0.72461595738E+02  0.70000033144E+02 0.  0.
        -12    1    1    2    0    0 -0.11438677570E+02 -0.12135174611E+01  0.14777085214E+02  0.18726404262E+02  0.00000000000E+00 0.  1.
         11    1    3    3    0    0 -0.18450838623E+02 -0.66833605177E+01 -0.49412513793E+00  0.19630204115E+02  0.51100000000E-03 0. -1.
        -11    1    3    3    0    0  0.10356194450E+02  0.20135845252E+02  0.45133988816E+01  0.23088390962E+02  0.51100000000E-03 0.  1.
         12    1    3    3    0    0  0.19533321742E+02 -0.12238967273E+02 -0.18796358958E+02  0.29743000660E+02  0.00000000000E+00 0. -1.
</event>
<event>
 7    1  0.3508738E-013  0.7246153E+02  0.7816164E-02  0.1226708E+00
        -11   -1    0    0    0    0  0.00000000000E+00  0.00000000000E+00  0.45593999997E+02  0.45594000000E+02  0.51100000000E-03 0.  1.
         11   -1    0    0    0    0 -0.00000000000E+00 -0.00000000000E+00 -0.45593999997E+02  0.45594000000E+02  0.51100000000E-03 0. -1.
    9900012    2    1    2    0    0 -0.35479705060E+01 -0.14828202228E+02 -0.10872771798E+02  0.72461525623E+02  0.69999941807E+02 0.  0.
        -12    1    1    2    0    0  0.35479705060E+01  0.14828202228E+02  0.10872771798E+02  0.18726474377E+02  0.00000000000E+00 0.  1.
         11    1    3    3    0    0 -0.50145176651E+01 -0.25772133561E+02  0.17524432512E+02  0.31566659481E+02  0.51100000000E-03 0. -1.
        -11    1    3    3    0    0 -0.74074577190E+01  0.15765110973E+01  0.20334110769E+01  0.78415928208E+01  0.51100000000E-03 0.  1.
         12    1    3    3    0    0  0.88740048781E+01  0.93674202356E+01 -0.30430615386E+02  0.33053273321E+02  0.00000000000E+00 0. -1.
</event>
<event>
 7    1  0.3508738E-013  0.7246155E+02  0.7816164E-02  0.1226708E+00
        -11   -1    0    0    0    0  0.00000000000E+00  0.00000000000E+00  0.45593999997E+02  0.45594000000E+02  0.51100000000E-03 0.  1.
         11   -1    0    0    0    0 -0.00000000000E+00 -0.00000000000E+00 -0.45593999997E+02  0.45594000000E+02  0.51100000000E-03 0. -1.
    9900012    2    1    2    0    0  0.88991555166E+01  0.13724512435E+02 -0.91171729275E+01  0.72461546714E+02  0.69999969282E+02 0.  0.
        -12    1    1    2    0    0 -0.88991555166E+01 -0.13724512435E+02  0.91171729275E+01  0.18726453286E+02  0.00000000000E+00 0.  1.
         11    1    3    3    0    0  0.69209645194E+01  0.17793062482E+02 -0.22105287505E+02  0.29208501473E+02  0.51100000000E-03 0. -1.
        -11    1    3    3    0    0 -0.31282629818E+01  0.16593996361E+02 -0.23070353809E+01  0.17043155723E+02  0.51100000000E-03 0.  1.
        -12    1    3    3    0    0  0.51064539790E+01 -0.20662546407E+02  0.15295149958E+02  0.26209889517E+02  0.00000000000E+00 0.  1.
</event>
<event>
 7    1  0.3508738E-013  0.7246157E+02  0.7816164E-02  0.1226708E+00
        -11   -1    0    0    0    0  0.00000000000E+00  0.00000000000E+00  0.45593999997E+02  0.45594000000E+02  0.51100000000E-03 0.  1.
         11   -1    0    0    0    0 -0.00000000000E+00 -0.00000000000E+00 -0.45593999997E+02  0.45594000000E+02  0.51100000000E-03 0. -1.
    9900012    2    1    2    0    0 -0.18434042449E+02 -0.20157360339E+01 -0.26080771810E+01  0.72461570032E+02  0.69999999658E+02 0.  0.
        -12    1    1    2    0    0  0.18434042449E+02  0.20157360339E+01  0.26080771810E+01  0.18726429968E+02  0.00000000000E+00 0.  1.
         11    1    3    3    0    0 -0.57954396944E+01 -0.12097138319E+01  0.34580126462E+01  0.68562657860E+01  0.51100000000E-03 0. -1.
        -11    1    3    3    0    0 -0.60404248968E+01 -0.12626834000E+02  0.26703428426E+02  0.30149573127E+02  0.51100000000E-03 0.  1.
         12    1    3    3    0    0 -0.65981778576E+01  0.11820811798E+02 -0.32769518253E+02  0.35455731119E+02  0.00000000000E+00 0. -1.
</event>
<event>
 7    1  0.3508738E-013  0.7246152E+02  0.7816164E-02  0.1226708E+00
        -11   -1    0    0    0    0  0.00000000000E+00  0.00000000000E+00  0.45593999997E+02  0.45594000000E+02  0.51100000000E-03 0. -1.
         11   -1    0    0    0    0 -0.00000000000E+00 -0.00000000000E+00 -0.45593999997E+02  0.45594000000E+02  0.51100000000E-03 0.  1.
    9900012    2    1    2    0    0  0.65835653142E+01 -0.11973643710E+02  0.12805063063E+02  0.72461518323E+02  0.69999932298E+02 0.  0.
        -12    1    1    2    0    0 -0.65835653142E+01  0.11973643710E+02 -0.12805063063E+02  0.18726481677E+02  0.00000000000E+00 0.  1.
         11    1    3    3    0    0 -0.45703086387E+01  0.13469630452E+02  0.10596555560E+02  0.17737126474E+02  0.51100000000E-03 0. -1.
        -11    1    3    3    0    0 -0.18552455151E+02 -0.11816644620E+02  0.10639156022E+01  0.22021775561E+02  0.51100000000E-03 0.  1.
         12    1    3    3    0    0  0.29706329103E+02 -0.13626629543E+02  0.11445919009E+01  0.32702616288E+02  0.00000000000E+00 0. -1.
</event>
<event>
 7    1  0.3508738E-013  0.7246156E+02  0.7816164E-02  0.1226708E+00
        -11   -1    0    0    0    0  0.00000000000E+00  0.00000000000E+00  0.45593999997E+02  0.45594000000E+02  0.51100000000E-03 0. -1.
         11   -1    0    0    0    0 -0.00000000000E+00 -0.00000000000E+00 -0.45593999997E+02  0.45594000000E+02  0.51100000000E-03 0.  1.
    9900012    2    1    2    0    0 -0.85101997284E+01  0.15411848050E+02  0.63820745679E+01  0.72461563192E+02  0.69999990748E+02 0.  0.
        -12    1    1    2    0    0  0.85101997284E+01 -0.15411848050E+02 -0.63820745679E+01  0.18726436808E+02  0.00000000000E+00 0.  1.
         11    1    3    3    0    0 -0.20682011121E+01  0.62189387146E+01  0.24625825991E+01  0.70012118876E+01  0.51100000000E-03 0. -1.
        -11    1    3    3    0    0 -0.29616655645E+02  0.15485289332E+02 -0.13238017583E+02  0.35946983004E+02  0.51100000000E-03 0.  1.
         12    1    3    3    0    0  0.23174657029E+02 -0.62923799967E+01  0.17157509552E+02  0.29513368301E+02  0.00000000000E+00 0. -1.
</event>
<event>
 7    1  0.3508738E-013  0.7246147E+02  0.7816164E-02  0.1226708E+00
        -11   -1    0    0    0    0  0.00000000000E+00  0.00000000000E+00  0.45593999997E+02  0.45594000000E+02  0.51100000000E-03 0.  1.
         11   -1    0    0    0    0 -0.00000000000E+00 -0.00000000000E+00 -0.45593999997E+02  0.45594000000E+02  0.51100000000E-03 0. -1.
    9900012    2    1    2    0    0  0.15187953141E+02  0.17412628758E+01 -0.10815597425E+02  0.72461466293E+02  0.69999864519E+02 0.  0.
        -12    1    1    2    0    0 -0.15187953141E+02 -0.17412628758E+01  0.10815597425E+02  0.18726533707E+02  0.00000000000E+00 0.  1.
         11    1    3    3    0    0  0.42809833504E+00 -0.10082252114E+02 -0.15453802041E+01  0.10208980170E+02  0.51100000000E-03 0. -1.
        -11    1    3    3    0    0  0.20036492640E+02 -0.19845828404E+02  0.18837738931E+01  0.28264227332E+02  0.51100000000E-03 0.  1.
        -12    1    3    3    0    0 -0.52766378340E+01  0.31669343394E+02 -0.11153991114E+02  0.33988258791E+02  0.00000000000E+00 0.  1.
</event>
<event>
 7    1  0.3508738E-013  0.7246159E+02  0.7816164E-02  0.1226708E+00
        -11   -1    0    0    0    0  0.00000000000E+00  0.00000000000E+00  0.45593999997E+02  0.45594000000E+02  0.51100000000E-03 0. -1.
         11   -1    0    0    0    0 -0.00000000000E+00 -0.00000000000E+00 -0.45593999997E+02  0.45594000000E+02  0.51100000000E-03 0.  1.
    9900012    2    1    2    0    0  0.33079531825E+01  0.18075315693E+02 -0.36081728129E+01  0.72461588098E+02  0.70000023193E+02 0.  0.
        -12    1    1    2    0    0 -0.33079531825E+01 -0.18075315693E+02  0.36081728129E+01  0.18726411902E+02  0.00000000000E+00 0.  1.
         11    1    3    3    0    0  0.60340959340E+01  0.26230216046E+02  0.53243743930E+01  0.27436900527E+02  0.51100000000E-03 0.  1.
        -11    1    3    3    0    0  0.11438560320E+02 -0.65834416152E+01  0.13222293271E+02  0.18681846946E+02  0.51100000000E-03 0. -1.
        -12    1    3    3    0    0 -0.14164703071E+02 -0.15714587376E+01 -0.22154840477E+02  0.26342840626E+02  0.00000000000E+00 0.  1.
</event>
<event>
 7    1  0.3508738E-013  0.7246160E+02  0.7816164E-02  0.1226708E+00
        -11   -1    0    0    0    0  0.00000000000E+00  0.00000000000E+00  0.45593999997E+02  0.45594000000E+02  0.51100000000E-03 0.  1.
         11   -1    0    0    0    0 -0.00000000000E+00 -0.00000000000E+00 -0.45593999997E+02  0.45594000000E+02  0.51100000000E-03 0. -1.
    9900012    2    1    2    0    0 -0.15088637334E+01 -0.18473351373E+02 -0.26714688952E+01  0.72461598136E+02  0.70000036269E+02 0.  0.
        -12    1    1    2    0    0  0.15088637334E+01  0.18473351373E+02  0.26714688952E+01  0.18726401864E+02  0.00000000000E+00 0.  1.
         11    1    3    3    0    0 -0.12265819236E+02 -0.22548868354E+02  0.90816817255E+01  0.27228270764E+02  0.51100000000E-03 0. -1.
        -11    1    3    3    0    0 -0.32779566021E+01 -0.17392166339E+02 -0.20745551608E+01  0.17819546257E+02  0.51100000000E-03 0.  1.
         12    1    3    3    0    0  0.14034912105E+02  0.21467683320E+02 -0.96785954599E+01  0.27413781115E+02  0.00000000000E+00 0. -1.
</event>
<event>
 7    1  0.3508738E-013  0.7246158E+02  0.7816164E-02  0.1226708E+00
        -11   -1    0    0    0    0  0.00000000000E+00  0.00000000000E+00  0.45593999997E+02  0.45594000000E+02  0.51100000000E-03 0.  1.
         11   -1    0    0    0    0 -0.00000000000E+00 -0.00000000000E+00 -0.45593999997E+02  0.45594000000E+02  0.51100000000E-03 0. -1.
    9900012    2    1    2    0    0 -0.10406509055E+02  0.80167336905E+01 -0.13345990927E+02  0.72461576861E+02  0.70000008554E+02 0.  0.
        -12    1    1    2    0    0  0.10406509055E+02 -0.80167336905E+01  0.13345990927E+02  0.18726423139E+02  0.00000000000E+00 0.  1.
         11    1    3    3    0    0 -0.17612064467E+01  0.18558339766E+02 -0.36748557599E+02  0.41206435285E+02  0.51100000000E-03 0. -1.
        -11    1    3    3    0    0  0.31431017786E+01  0.17767986866E+01  0.32536104630E+01  0.48602555149E+01  0.51100000000E-03 0.  1.
        -12    1    3    3    0    0 -0.11788404387E+02 -0.12318404762E+02  0.20148956209E+02  0.26394886061E+02  0.00000000000E+00 0.  1.
</event>
<event>
 7    1  0.3508738E-013  0.7246157E+02  0.7816164E-02  0.1226708E+00
        -11   -1    0    0    0    0  0.00000000000E+00  0.00000000000E+00  0.45593999997E+02  0.45594000000E+02  0.51100000000E-03 0. -1.
         11   -1    0    0    0    0 -0.00000000000E+00 -0.00000000000E+00 -0.45593999997E+02  0.45594000000E+02  0.51100000000E-03 0.  1.
    9900012    2    1    2    0    0 -0.17794372190E+02 -0.56066666118E+01  0.16139520909E+01  0.72461568587E+02  0.69999997776E+02 0.  0.
        -12    1    1    2    0    0  0.17794372190E+02  0.56066666118E+01 -0.16139520909E+01  0.18726431413E+02  0.00000000000E+00 0.  1.
         11    1    3    3    0    0  0.67640833996E+01  0.88101930042E+01  0.54752123893E+01  0.12383467849E+02  0.51100000000E-03 0. -1.
        -11    1    3    3    0    0 -0.29397989446E+02 -0.96791165017E+01 -0.23785479342E+02  0.39034293993E+02  0.51100000000E-03 0.  1.
         12    1    3    3    0    0  0.48395338572E+01 -0.47377431143E+01  0.19924219044E+02  0.21043806744E+02  0.00000000000E+00 0. -1.
</event>
<event>
 7    1  0.3508738E-013  0.7246158E+02  0.7816164E-02  0.1226708E+00
        -11   -1    0    0    0    0  0.00000000000E+00  0.00000000000E+00  0.45593999997E+02  0.45594000000E+02  0.51100000000E-03 0.  1.
         11   -1    0    0    0    0 -0.00000000000E+00 -0.00000000000E+00 -0.45593999997E+02  0.45594000000E+02  0.51100000000E-03 0. -1.
    9900012    2    1    2    0    0  0.13977994867E+02 -0.91162745446E+01 -0.84963570989E+01  0.72461577864E+02  0.70000009861E+02 0.  0.
        -12    1    1    2    0    0 -0.13977994867E+02  0.91162745446E+01  0.84963570989E+01  0.18726422136E+02  0.00000000000E+00 0.  1.
         11    1    3    3    0    0 -0.25962553840E+01 -0.73113964985E+01 -0.67328065195E+01  0.10272669793E+02  0.51100000000E-03 0. -1.
        -11    1    3    3    0    0 -0.20013654966E+02 -0.84903686222E+01 -0.10256219337E+02  0.24037944583E+02  0.51100000000E-03 0.  1.
         12    1    3    3    0    0  0.36587905217E+02  0.66854905760E+01  0.84926687571E+01  0.38150963488E+02  0.00000000000E+00 0. -1.
</event>
<event>
 7    1  0.3508738E-013  0.7246141E+02  0.7816164E-02  0.1226708E+00
        -11   -1    0    0    0    0  0.00000000000E+00  0.00000000000E+00  0.45593999997E+02  0.45594000000E+02  0.51100000000E-03 0. -1.
         11   -1    0    0    0    0 -0.00000000000E+00 -0.00000000000E+00 -0.45593999997E+02  0.45594000000E+02  0.51100000000E-03 0.  1.
    9900012    2    1    2    0    0 -0.69620380545E+01  0.23460288092E+01  0.17225307109E+02  0.72461413817E+02  0.69999796159E+02 0.  0.
        -12    1    1    2    0    0  0.69620380545E+01 -0.23460288092E+01 -0.17225307109E+02  0.18726586183E+02  0.00000000000E+00 0.  1.
         11    1    3    3    0    0 -0.39912357433E+01  0.51431595790E+01  0.22761235384E+02  0.23673949601E+02  0.51100000000E-03 0. -1.
        -11    1    3    3    0    0 -0.14072912919E+02 -0.17351822865E+02  0.10282644051E+02  0.24594011541E+02  0.51100000000E-03 0.  1.
        -12    1    3    3    0    0  0.11102110608E+02  0.14554692095E+02 -0.15818572325E+02  0.24193452675E+02  0.00000000000E+00 0.  1.
</event>
<event>
 7    1  0.4654659E-013  0.7246153E+02  0.7816164E-02  0.1226708E+00
        -11   -1    0    0    0    0  0.00000000000E+00  0.00000000000E+00  0.45593999997E+02  0.45594000000E+02  0.51100000000E-03 0.  1.
         11   -1    0    0    0    0 -0.00000000000E+00 -0.00000000000E+00 -0.45593999997E+02  0.45594000000E+02  0.51100000000E-03 0. -1.
    9900012    2    1    2    0    0  0.13442649964E+02  0.91378234947E+01 -0.92992463115E+01  0.72461531080E+02  0.69999948915E+02 0.  0.
        -12    1    1    2    0    0 -0.13442649964E+02 -0.91378234947E+01  0.92992463115E+01  0.18726468920E+02  0.00000000000E+00 0.  1.
         11    1    3    3    0    0  0.23329660332E+02  0.13498831637E+02 -0.17833889620E+02  0.32319330531E+02  0.51100000000E-03 0. -1.
        -11    1    3    3    0    0  0.91199371495E+01 -0.51414409114E+01 -0.93466160812E+01  0.14034489684E+02  0.51100000000E-03 0.  1.
        -12    1    3    3    0    0 -0.19006947517E+02  0.78043276888E+00  0.17881259389E+02  0.26107710865E+02  0.00000000000E+00 0.  1.
</event>
<event>
 7    1  0.3508738E-013  0.7246159E+02  0.7816164E-02  0.1226708E+00
        -11   -1    0    0    0    0  0.00000000000E+00  0.00000000000E+00  0.45593999997E+02  0.45594000000E+02  0.51100000000E-03 0. -1.
         11   -1    0    0    0    0 -0.00000000000E+00 -0.00000000000E+00 -0.45593999997E+02  0.45594000000E+02  0.51100000000E-03 0.  1.
    9900012    2    1    2    0    0  0.46320238006E+01 -0.77591005175E+00  0.18127900957E+02  0.72461588865E+02  0.70000024192E+02 0.  0.
        -12    1    1    2    0    0 -0.46320238006E+01  0.77591005175E+00 -0.18127900957E+02  0.18726411135E+02  0.00000000000E+00 0.  1.
         11    1    3    3    0    0  0.62110788850E+01 -0.60744165724E+01  0.25159676436E+01  0.90446741819E+01  0.51100000000E-03 0. -1.
        -11    1    3    3    0    0 -0.20279152018E+02 -0.12730371233E+02 -0.10893399429E+02  0.26305370358E+02  0.51100000000E-03 0.  1.
         12    1    3    3    0    0  0.18700096934E+02  0.18028877753E+02  0.26505332742E+02  0.37111544325E+02  0.00000000000E+00 0. -1.
</event>
<event>
 7    1  0.3508738E-013  0.7246169E+02  0.7816164E-02  0.1226708E+00
        -11   -1    0    0    0    0  0.00000000000E+00  0.00000000000E+00  0.45593999997E+02  0.45594000000E+02  0.51100000000E-03 0. -1.
         11   -1    0    0    0    0 -0.00000000000E+00 -0.00000000000E+00 -0.45593999997E+02  0.45594000000E+02  0.51100000000E-03 0.  1.
    9900012    2    1    2    0    0  0.47068294200E+01  0.79607425440E+01  0.16283339588E+02  0.72461686610E+02  0.70000151523E+02 0.  0.
        -12    1    1    2    0    0 -0.47068294200E+01 -0.79607425440E+01 -0.16283339588E+02  0.18726313390E+02  0.00000000000E+00 0.  1.
         11    1    3    3    0    0 -0.12387536575E+02  0.60566029198E+01 -0.83055155911E+01  0.16097052240E+02  0.51100000000E-03 0. -1.
        -11    1    3    3    0    0  0.53867801903E+01 -0.73539032453E+01 -0.13024742934E+02  0.15897837039E+02  0.51100000000E-03 0.  1.
         12    1    3    3    0    0  0.11707585805E+02  0.92580428695E+01  0.37613598114E+02  0.40466797331E+02  0.00000000000E+00 0. -1.
</event>
<event>
 7    1  0.3578228E-013  0.7246166E+02  0.7816164E-02  0.1226708E+00
        -11   -1    0    0    0    0  0.00000000000E+00  0.00000000000E+00  0.45593999997E+02  0.45594000000E+02  0.51100000000E-03 0.  1.
         11   -1    0    0    0    0 -0.00000000000E+00 -0.00000000000E+00 -0.45593999997E+02  0.45594000000E+02  0.51100000000E-03 0. -1.
    9900012    2    1    2    0    0 -0.15050532008E+02  0.43141233815E+01 -0.10273545876E+02  0.72461657080E+02  0.70000113055E+02 0.  0.
        -12    1    1    2    0    0  0.15050532008E+02 -0.43141233815E+01  0.10273545876E+02  0.18726342920E+02  0.00000000000E+00 0.  1.
         11    1    3    3    0    0 -0.14712749842E+02  0.14651733791E+02 -0.81280696314E+01  0.22298067790E+02  0.51100000000E-03 0. -1.
        -11    1    3    3    0    0  0.38655234019E+01 -0.23981683756E+01 -0.25102557554E+02  0.25511406836E+02  0.51100000000E-03 0.  1.
        -12    1    3    3    0    0 -0.42033055686E+01 -0.79394420337E+01  0.22957081309E+02  0.24652182454E+02  0.00000000000E+00 0.  1.
</event>
<event>
 7    1  0.3508738E-013  0.7246159E+02  0.7816164E-02  0.1226708E+00
        -11   -1    0    0    0    0  0.00000000000E+00  0.00000000000E+00  0.45593999997E+02  0.45594000000E+02  0.51100000000E-03 0.  1.
         11   -1    0    0    0    0 -0.00000000000E+00 -0.00000000000E+00 -0.45593999997E+02  0.45594000000E+02  0.51100000000E-03 0. -1.
    9900012    2    1    2    0    0  0.11308985596E+02  0.74792197239E+01 -0.12916904559E+02  0.72461593344E+02  0.70000030026E+02 0.  0.
        -12    1    1    2    0    0 -0.11308985596E+02 -0.74792197239E+01  0.12916904559E+02  0.18726406656E+02  0.00000000000E+00 0.  1.
         11    1    3    3    0    0  0.29897504563E+02 -0.10852491358E+02  0.31687886537E+01  0.31963707068E+02  0.51100000000E-03 0. -1.
        -11    1    3    3    0    0 -0.22343800379E+01 -0.65780287935E+01 -0.75818365461E+00  0.69884017971E+01  0.51100000000E-03 0.  1.
        -12    1    3    3    0    0 -0.16354138929E+02  0.24909739875E+02 -0.15327509558E+02  0.33509484478E+02  0.00000000000E+00 0.  1.
</event>
<event>
 7    1  0.3508738E-013  0.7246156E+02  0.7816164E-02  0.1226708E+00
        -11   -1    0    0    0    0  0.00000000000E+00  0.00000000000E+00  0.45593999997E+02  0.45594000000E+02  0.51100000000E-03 0.  1.
         11   -1    0    0    0    0 -0.00000000000E+00 -0.00000000000E+00 -0.45593999997E+02  0.45594000000E+02  0.51100000000E-03 0. -1.
    9900012    2    1    2    0    0 -0.53675784364E+01  0.17436608859E+02  0.42229409089E+01  0.72461562627E+02  0.69999990012E+02 0.  0.
        -12    1    1    2    0    0  0.53675784364E+01 -0.17436608859E+02 -0.42229409089E+01  0.18726437373E+02  0.00000000000E+00 0.  1.
         11    1    3    3    0    0  0.18182257698E+02 -0.16324747755E+01  0.35753233767E+01  0.18602215094E+02  0.51100000000E-03 0. -1.
        -11    1    3    3    0    0  0.11559118479E+02  0.63390201337E+01  0.85150852144E+01  0.15694045773E+02  0.51100000000E-03 0.  1.
         12    1    3    3    0    0 -0.35108954613E+02  0.12730063501E+02 -0.78674676822E+01  0.38165301760E+02  0.00000000000E+00 0. -1.
</event>
<event>
 7    1  0.3508738E-013  0.7246157E+02  0.7816164E-02  0.1226708E+00
        -11   -1    0    0    0    0  0.00000000000E+00  0.00000000000E+00  0.45593999997E+02  0.45594000000E+02  0.51100000000E-03 0.  1.
         11   -1    0    0    0    0 -0.00000000000E+00 -0.00000000000E+00 -0.45593999997E+02  0.45594000000E+02  0.51100000000E-03 0. -1.
    9900012    2    1    2    0    0 -0.15131390248E+02 -0.13930891929E+01 -0.10944385420E+02  0.72461568397E+02  0.69999997529E+02 0.  0.
        -12    1    1    2    0    0  0.15131390248E+02  0.13930891929E+01  0.10944385420E+02  0.18726431603E+02  0.00000000000E+00 0.  1.
         11    1    3    3    0    0 -0.32038362614E+02 -0.16119997687E+02 -0.27642017838E+01  0.35971541754E+02  0.51100000000E-03 0. -1.
        -11    1    3    3    0    0  0.13552217706E+02 -0.49124469621E+01  0.12070234763E+01  0.14465533030E+02  0.51100000000E-03 0.  1.
        -12    1    3    3    0    0  0.33547546592E+01  0.19639355456E+02 -0.93872071129E+01  0.22024493613E+02  0.00000000000E+00 0.  1.
</event>
<event>
 7    1  0.3508738E-013  0.7246154E+02  0.7816164E-02  0.1226708E+00
        -11   -1    0    0    0    0  0.00000000000E+00  0.00000000000E+00  0.45593999997E+02  0.45594000000E+02  0.51100000000E-03 0. -1.
         11   -1    0    0    0    0 -0.00000000000E+00 -0.00000000000E+00 -0.45593999997E+02  0.45594000000E+02  0.51100000000E-03 0.  1.
    9900012    2    1    2    0    0 -0.13558124476E+02 -0.11443695083E+02 -0.59916181101E+01  0.72461537866E+02  0.69999957756E+02 0.  0.
        -12    1    1    2    0    0  0.13558124476E+02  0.11443695083E+02  0.59916181101E+01  0.18726462134E+02  0.00000000000E+00 0.  1.
         11    1    3    3    0    0  0.49983228851E+01  0.46962662173E+01  0.15266299681E+01  0.70262897298E+01  0.51100000000E-03 0. -1.
        -11    1    3    3    0    0 -0.32518381017E+02 -0.12251416408E+02  0.15646781040E+02  0.38109894583E+02  0.51100000000E-03 0.  1.
         12    1    3    3    0    0  0.13961933655E+02 -0.38885448922E+01 -0.23165029118E+02  0.27325353553E+02  0.00000000000E+00 0. -1.
</event>
<event>
 7    1  0.3508738E-013  0.7246160E+02  0.7816164E-02  0.1226708E+00
        -11   -1    0    0    0    0  0.00000000000E+00  0.00000000000E+00  0.45593999997E+02  0.45594000000E+02  0.51100000000E-03 0.  1.
         11   -1    0    0    0    0 -0.00000000000E+00 -0.00000000000E+00 -0.45593999997E+02  0.45594000000E+02  0.51100000000E-03 0. -1.
    9900012    2    1    2    0    0 -0.85900347877E+01  0.14185028208E+02  0.86991000874E+01  0.72461599778E+02  0.70000038408E+02 0.  0.
        -12    1    1    2    0    0  0.85900347877E+01 -0.14185028208E+02 -0.86991000874E+01  0.18726400222E+02  0.00000000000E+00 0.  1.
         11    1    3    3    0    0  0.12968540695E+02  0.37110229882E+01 -0.18838572809E+02  0.23169949614E+02  0.51100000000E-03 0. -1.
        -11    1    3    3    0    0 -0.15913379196E+02  0.85629841167E+01 -0.28769828160E+01  0.18298561823E+02  0.51100000000E-03 0.  1.
        -12    1    3    3    0    0 -0.56451962872E+01  0.19110211036E+01  0.30414655713E+02  0.30993088341E+02  0.00000000000E+00 0.  1.
</event>
<event>
 7    1  0.3508738E-013  0.7246155E+02  0.7816164E-02  0.1226708E+00
        -11   -1    0    0    0    0  0.00000000000E+00  0.00000000000E+00  0.45593999997E+02  0.45594000000E+02  0.51100000000E-03 0.  1.
         11   -1    0    0    0    0 -0.00000000000E+00 -0.00000000000E+00 -0.45593999997E+02  0.45594000000E+02  0.51100000000E-03 0. -1.
    9900012    2    1    2    0    0  0.15783106828E+02  0.10011099345E+02  0.11624191282E+01  0.72461553741E+02  0.69999978437E+02 0.  0.
        -12    1    1    2    0    0 -0.15783106828E+02 -0.10011099345E+02 -0.11624191282E+01  0.18726446259E+02  0.00000000000E+00 0.  1.
         11    1    3    3    0    0  0.17757164840E+02 -0.67779218371E+01 -0.22030306395E+02  0.29096245939E+02  0.51100000000E-03 0. -1.
        -11    1    3    3    0    0  0.48739377550E+01 -0.88247270438E+01  0.73897537124E+01  0.12499581466E+02  0.51100000000E-03 0.  1.
        -12    1    3    3    0    0 -0.68479957672E+01  0.25613748226E+02  0.15802971811E+02  0.30865726336E+02  0.00000000000E+00 0.  1.
</event>
<event>
 7    1  0.5215025E-013  0.7246167E+02  0.7816164E-02  0.1226708E+00
        -11   -1    0    0    0    0  0.00000000000E+00  0.00000000000E+00  0.45593999997E+02  0.45594000000E+02  0.51100000000E-03 0.  1.
         11   -1    0    0    0    0 -0.00000000000E+00 -0.00000000000E+00 -0.45593999997E+02  0.45594000000E+02  0.51100000000E-03 0. -1.
    9900012    2    1    2    0    0  0.48628300846E+01  0.10783546705E+02 -0.14517011358E+02  0.72461665209E+02  0.70000123643E+02 0.  0.
        -12    1    1    2    0    0 -0.48628300846E+01 -0.10783546705E+02  0.14517011358E+02  0.18726334791E+02  0.00000000000E+00 0.  1.
         11    1    3    3    0    0 -0.28432131096E+01 -0.47345882974E+01 -0.33434243763E+02  0.33887296195E+02  0.51100000000E-03 0. -1.
        -11    1    3    3    0    0 -0.10541312141E+02  0.23012822352E+01  0.85793784829E+01  0.13784806745E+02  0.51100000000E-03 0.  1.
        -12    1    3    3    0    0  0.18247355335E+02  0.13216852767E+02  0.10337853922E+02  0.24789562269E+02  0.00000000000E+00 0.  1.
</event>
<event>
 7    1  0.3508738E-013  0.7246156E+02  0.7816164E-02  0.1226708E+00
        -11   -1    0    0    0    0  0.00000000000E+00  0.00000000000E+00  0.45593999997E+02  0.45594000000E+02  0.51100000000E-03 0. -1.
         11   -1    0    0    0    0 -0.00000000000E+00 -0.00000000000E+00 -0.45593999997E+02  0.45594000000E+02  0.51100000000E-03 0.  1.
    9900012    2    1    2    0    0 -0.13906523819E+02  0.22015316225E+01 -0.12346713243E+02  0.72461562161E+02  0.69999989405E+02 0.  0.
        -12    1    1    2    0    0  0.13906523819E+02 -0.22015316225E+01  0.12346713243E+02  0.18726437839E+02  0.00000000000E+00 0.  1.
         11    1    3    3    0    0 -0.14274650216E+02  0.55272644354E+01  0.11025541818E+02  0.18864751882E+02  0.51100000000E-03 0. -1.
        -11    1    3    3    0    0  0.15584616944E+01  0.59604746991E+01  0.13880136457E+02  0.15185988602E+02  0.51100000000E-03 0.  1.
        -12    1    3    3    0    0 -0.11903352971E+01 -0.92862075119E+01 -0.37252391518E+02  0.38410821677E+02  0.00000000000E+00 0.  1.
</event>
<event>
 7    1  0.3508738E-013  0.7246158E+02  0.7816164E-02  0.1226708E+00
        -11   -1    0    0    0    0  0.00000000000E+00  0.00000000000E+00  0.45593999997E+02  0.45594000000E+02  0.51100000000E-03 0.  1.
         11   -1    0    0    0    0 -0.00000000000E+00 -0.00000000000E+00 -0.45593999997E+02  0.45594000000E+02  0.51100000000E-03 0. -1.
    9900012    2    1    2    0    0 -0.10613920819E+02 -0.13596995758E+02 -0.72900812576E+01  0.72461577663E+02  0.70000009599E+02 0.  0.
        -12    1    1    2    0    0  0.10613920819E+02  0.13596995758E+02  0.72900812576E+01  0.18726422337E+02  0.00000000000E+00 0.  1.
         11    1    3    3    0    0 -0.18924322864E+02 -0.23097706348E+02 -0.52876772693E+01  0.30324801163E+02  0.51100000000E-03 0. -1.
        -11    1    3    3    0    0  0.38179204166E+01 -0.88445710222E+01  0.14262644216E+02  0.17211216493E+02  0.51100000000E-03 0.  1.
         12    1    3    3    0    0  0.44924816286E+01  0.18345281612E+02 -0.16265048204E+02  0.24925560008E+02  0.00000000000E+00 0. -1.
</event>
<event>
 7    1  0.3508738E-013  0.7246159E+02  0.7816164E-02  0.1226708E+00
        -11   -1    0    0    0    0  0.00000000000E+00  0.00000000000E+00  0.45593999997E+02  0.45594000000E+02  0.51100000000E-03 0.  1.
         11   -1    0    0    0    0 -0.00000000000E+00 -0.00000000000E+00 -0.45593999997E+02  0.45594000000E+02  0.51100000000E-03 0. -1.
    9900012    2    1    2    0    0  0.14514716745E+02 -0.73700847263E+01 -0.92565290814E+01  0.72461588659E+02  0.70000023924E+02 0.  0.
        -12    1    1    2    0    0 -0.14514716745E+02  0.73700847263E+01  0.92565290814E+01  0.18726411341E+02  0.00000000000E+00 0.  1.
         11    1    3    3    0    0 -0.78888896171E+01 -0.13114038059E+02 -0.87291182190E+01  0.17618458467E+02  0.51100000000E-03 0. -1.
        -11    1    3    3    0    0  0.14461601700E+02  0.17184888522E+02 -0.20556907526E+02  0.30447409817E+02  0.51100000000E-03 0.  1.
        -12    1    3    3    0    0  0.79420046623E+01 -0.11440935190E+02  0.20029496663E+02  0.24395720376E+02  0.00000000000E+00 0.  1.
</event>
<event>
 7    1  0.3508738E-013  0.7246151E+02  0.7816164E-02  0.1226708E+00
        -11   -1    0    0    0    0  0.00000000000E+00  0.00000000000E+00  0.45593999997E+02  0.45594000000E+02  0.51100000000E-03 0. -1.
         11   -1    0    0    0    0 -0.00000000000E+00 -0.00000000000E+00 -0.45593999997E+02  0.45594000000E+02  0.51100000000E-03 0.  1.
    9900012    2    1    2    0    0  0.23012688550E+01  0.18555752816E+02  0.10341599725E+01  0.72461513737E+02  0.69999926324E+02 0.  0.
        -12    1    1    2    0    0 -0.23012688550E+01 -0.18555752816E+02 -0.10341599725E+01  0.18726486263E+02  0.00000000000E+00 0.  1.
         11    1    3    3    0    0 -0.12422324277E+02  0.60819734445E+01  0.11249257752E+02  0.17828357795E+02  0.51100000000E-03 0. -1.
        -11    1    3    3    0    0 -0.47268252639E+01 -0.13461906676E+02  0.90751204603E+01  0.16909276155E+02  0.51100000000E-03 0.  1.
        -12    1    3    3    0    0  0.19450418396E+02  0.25935686048E+02 -0.19290218240E+02  0.37723879788E+02  0.00000000000E+00 0.  1.
</event>
<event>
 7    1  0.4659929E-013  0.7246157E+02  0.7816164E-02  0.1226708E+00
        -11   -1    0    0    0    0  0.00000000000E+00  0.00000000000E+00  0.45593999997E+02  0.45594000000E+02  0.51100000000E-03 0. -1.
         11   -1    0    0    0    0 -0.00000000000E+00 -0.00000000000E+00 -0.45593999997E+02  0.45594000000E+02  0.51100000000E-03 0.  1.
    9900012    2    1    2    0    0 -0.39730126947E+01  0.12921978207E+02  0.12958271585E+02  0.72461570733E+02  0.70000000571E+02 0.  0.
        -12    1    1    2    0    0  0.39730126947E+01 -0.12921978207E+02 -0.12958271585E+02  0.18726429267E+02  0.00000000000E+00 0.  1.
         11    1    3    3    0    0 -0.18223004210E+02 -0.67526470729E+01  0.19921931971E+02  0.27830909052E+02  0.51100000000E-03 0. -1.
        -11    1    3    3    0    0  0.41510744097E+00 -0.10351519329E+02  0.15918603688E+01  0.10481425777E+02  0.51100000000E-03 0.  1.
        -12    1    3    3    0    0  0.13834884074E+02  0.30026144609E+02 -0.85555207554E+01  0.34149235904E+02  0.00000000000E+00 0.  1.
</event>
<event>
 7    1  0.3508738E-013  0.7246181E+02  0.7816164E-02  0.1226707E+00
        -11   -1    0    0    0    0  0.00000000000E+00  0.00000000000E+00  0.45593999997E+02  0.45594000000E+02  0.51100000000E-03 0. -1.
         11   -1    0    0    0    0 -0.00000000000E+00 -0.00000000000E+00 -0.45593999997E+02  0.45594000000E+02  0.51100000000E-03 0.  1.
    9900012    2    1    2    0    0 -0.12507143431E+02  0.83233116284E+01  0.11178731404E+02  0.72461810076E+02  0.70000312359E+02 0.  0.
        -12    1    1    2    0    0  0.12507143431E+02 -0.83233116284E+01 -0.11178731404E+02  0.18726189924E+02  0.00000000000E+00 0.  1.
         11    1    3    3    0    0 -0.12779972204E+02 -0.19655372461E+02  0.59305754288E+01  0.24183322380E+02  0.51100000000E-03 0. -1.
        -11    1    3    3    0    0 -0.37316342154E+01 -0.61428676027E+01  0.11301621856E+02  0.13393527285E+02  0.51100000000E-03 0.  1.
        -12    1    3    3    0    0  0.40044629892E+01  0.34121551692E+02 -0.60534658805E+01  0.34884960411E+02  0.00000000000E+00 0.  1.
</event>
<event>
 7    1  0.3508738E-013  0.7246146E+02  0.7816164E-02  0.1226708E+00
        -11   -1    0    0    0    0  0.00000000000E+00  0.00000000000E+00  0.45593999997E+02  0.45594000000E+02  0.51100000000E-03 0.  1.
         11   -1    0    0    0    0 -0.00000000000E+00 -0.00000000000E+00 -0.45593999997E+02  0.45594000000E+02  0.51100000000E-03 0. -1.
    9900012    2    1    2    0    0  0.57252987561E+01  0.13786015548E+01 -0.17776490670E+02  0.72461462449E+02  0.69999859512E+02 0.  0.
        -12    1    1    2    0    0 -0.57252987561E+01 -0.13786015548E+01  0.17776490670E+02  0.18726537551E+02  0.00000000000E+00 0.  1.
         11    1    3    3    0    0  0.31066325044E+01 -0.97590749979E+01 -0.38082846101E+02  0.39435946518E+02  0.51100000000E-03 0. -1.
        -11    1    3    3    0    0 -0.29693632641E+00  0.10847125997E+01 -0.52707883565E+01  0.53894325087E+01  0.51100000000E-03 0.  1.
        -12    1    3    3    0    0  0.29156025782E+01  0.10052963953E+02  0.25577143787E+02  0.27636083423E+02  0.00000000000E+00 0.  1.
</event>
<event>
 7    1  0.3508738E-013  0.7246153E+02  0.7816164E-02  0.1226708E+00
        -11   -1    0    0    0    0  0.00000000000E+00  0.00000000000E+00  0.45593999997E+02  0.45594000000E+02  0.51100000000E-03 0.  1.
         11   -1    0    0    0    0 -0.00000000000E+00 -0.00000000000E+00 -0.45593999997E+02  0.45594000000E+02  0.51100000000E-03 0. -1.
    9900012    2    1    2    0    0 -0.17438826150E+02  0.43802321982E+01  0.52327427437E+01  0.72461529744E+02  0.69999947176E+02 0.  0.
        -12    1    1    2    0    0  0.17438826150E+02 -0.43802321982E+01 -0.52327427437E+01  0.18726470256E+02  0.00000000000E+00 0.  1.
         11    1    3    3    0    0  0.52613993237E+01 -0.86918813012E+01  0.14085095518E+02  0.17367240408E+02  0.51100000000E-03 0. -1.
        -11    1    3    3    0    0  0.23125860290E+01 -0.12909253582E+02 -0.13392872574E+02  0.18744757087E+02  0.51100000000E-03 0.  1.
         12    1    3    3    0    0 -0.25012811503E+02  0.25981367081E+02  0.45405198005E+01  0.36349532249E+02  0.00000000000E+00 0. -1.
</event>
<event>
 7    1  0.3508738E-013  0.7246155E+02  0.7816164E-02  0.1226708E+00
        -11   -1    0    0    0    0  0.00000000000E+00  0.00000000000E+00  0.45593999997E+02  0.45594000000E+02  0.51100000000E-03 0.  1.
         11   -1    0    0    0    0 -0.00000000000E+00 -0.00000000000E+00 -0.45593999997E+02  0.45594000000E+02  0.51100000000E-03 0. -1.
    9900012    2    1    2    0    0  0.12054245519E+02  0.22989519175E+01 -0.14145316305E+02  0.72461548432E+02  0.69999971520E+02 0.  0.
        -12    1    1    2    0    0 -0.12054245519E+02 -0.22989519175E+01  0.14145316305E+02  0.18726451568E+02  0.00000000000E+00 0.  1.
         11    1    3    3    0    0  0.14938913358E+02  0.15775730225E+02  0.59142387578E+01  0.22517171598E+02  0.51100000000E-03 0.  1.
        -11    1    3    3    0    0  0.12636120734E+02 -0.20596532942E+02 -0.76097010978E+00  0.24175768699E+02  0.51100000000E-03 0. -1.
        -12    1    3    3    0    0 -0.15520788573E+02  0.71197546351E+01 -0.19298584953E+02  0.25768608134E+02  0.00000000000E+00 0.  1.
</event>
<event>
 7    1  0.3508738E-013  0.7246137E+02  0.7816164E-02  0.1226709E+00
        -11   -1    0    0    0    0  0.00000000000E+00  0.00000000000E+00  0.45593999997E+02  0.45594000000E+02  0.51100000000E-03 0. -1.
         11   -1    0    0    0    0 -0.00000000000E+00 -0.00000000000E+00 -0.45593999997E+02  0.45594000000E+02  0.51100000000E-03 0.  1.
    9900012    2    1    2    0    0  0.24968995032E+01  0.14549503989E+02  0.11522334288E+02  0.72461367604E+02  0.69999735958E+02 0.  0.
        -12    1    1    2    0    0 -0.24968995032E+01 -0.14549503989E+02 -0.11522334288E+02  0.18726632396E+02  0.00000000000E+00 0.  1.
         11    1    3    3    0    0 -0.10525387339E+02 -0.49398224172E+01  0.18938537644E+01  0.11780165809E+02  0.51100000000E-03 0. -1.
        -11    1    3    3    0    0 -0.18767140470E+02  0.80644530837E+01 -0.87540289007E+01  0.22223275799E+02  0.51100000000E-03 0.  1.
         12    1    3    3    0    0  0.31789427312E+02  0.11424873322E+02  0.18382509424E+02  0.38457925997E+02  0.00000000000E+00 0. -1.
</event>
<event>
 7    1  0.3508738E-013  0.7246157E+02  0.7816164E-02  0.1226708E+00
        -11   -1    0    0    0    0  0.00000000000E+00  0.00000000000E+00  0.45593999997E+02  0.45594000000E+02  0.51100000000E-03 0.  1.
         11   -1    0    0    0    0 -0.00000000000E+00 -0.00000000000E+00 -0.45593999997E+02  0.45594000000E+02  0.51100000000E-03 0. -1.
    9900012    2    1    2    0    0 -0.18530262008E+02 -0.57853712688E+00 -0.26408276586E+01  0.72461567184E+02  0.69999995948E+02 0.  0.
        -12    1    1    2    0    0  0.18530262008E+02  0.57853712688E+00  0.26408276586E+01  0.18726432816E+02  0.00000000000E+00 0.  1.
         11    1    3    3    0    0 -0.90014709859E+01  0.14131759017E+02  0.20334096984E+02  0.26347838493E+02  0.51100000000E-03 0. -1.
        -11    1    3    3    0    0 -0.15400099345E+02  0.64110570745E+01 -0.40814499128E+01  0.17173320771E+02  0.51100000000E-03 0.  1.
        -12    1    3    3    0    0  0.58713083230E+01 -0.21121353219E+02 -0.18893474730E+02  0.28940407920E+02  0.00000000000E+00 0.  1.
</event>
<event>
 7    1  0.3508738E-013  0.7246160E+02  0.7816164E-02  0.1226708E+00
        -11   -1    0    0    0    0  0.00000000000E+00  0.00000000000E+00  0.45593999997E+02  0.45594000000E+02  0.51100000000E-03 0.  1.
         11   -1    0    0    0    0 -0.00000000000E+00 -0.00000000000E+00 -0.45593999997E+02  0.45594000000E+02  0.51100000000E-03 0. -1.
    9900012    2    1    2    0    0 -0.18675182989E+02  0.81417159251E+00  0.11192180888E+01  0.72461601943E+02  0.70000041228E+02 0.  0.
        -12    1    1    2    0    0  0.18675182989E+02 -0.81417159251E+00 -0.11192180888E+01  0.18726398057E+02  0.00000000000E+00 0.  1.
         11    1    3    3    0    0 -0.50289468134E+01 -0.11698080071E+02 -0.63976380258E+01  0.14250093192E+02  0.51100000000E-03 0. -1.
        -11    1    3    3    0    0 -0.10328977527E+02  0.33613271727E+02 -0.10928233892E+01  0.35181445055E+02  0.51100000000E-03 0.  1.
         12    1    3    3    0    0 -0.33172586489E+01 -0.21101020064E+02  0.86096795039E+01  0.23030063696E+02  0.00000000000E+00 0. -1.
</event>
<event>
 7    1  0.3508738E-013  0.7246158E+02  0.7816164E-02  0.1226708E+00
        -11   -1    0    0    0    0  0.00000000000E+00  0.00000000000E+00  0.45593999997E+02  0.45594000000E+02  0.51100000000E-03 0. -1.
         11   -1    0    0    0    0 -0.00000000000E+00 -0.00000000000E+00 -0.45593999997E+02  0.45594000000E+02  0.51100000000E-03 0.  1.
    9900012    2    1    2    0    0 -0.26277105163E+01  0.17416023174E+02 -0.63604990429E+01  0.72461583529E+02  0.70000017241E+02 0.  0.
        -12    1    1    2    0    0  0.26277105163E+01 -0.17416023174E+02  0.63604990429E+01  0.18726416471E+02  0.00000000000E+00 0.  1.
         11    1    3    3    0    0  0.13630431459E+02  0.54959469772E+01 -0.22532260727E+02  0.26901614611E+02  0.51100000000E-03 0. -1.
        -11    1    3    3    0    0 -0.13544428430E+02  0.13913766598E+02 -0.81119068276E+01  0.21043941529E+02  0.51100000000E-03 0.  1.
         12    1    3    3    0    0 -0.27137135458E+01 -0.19936904006E+01  0.24283668511E+02  0.24516027390E+02  0.00000000000E+00 0. -1.
</event>
<event>
 7    1  0.3508738E-013  0.7246154E+02  0.7816164E-02  0.1226708E+00
        -11   -1    0    0    0    0  0.00000000000E+00  0.00000000000E+00  0.45593999997E+02  0.45594000000E+02  0.51100000000E-03 0.  1.
         11   -1    0    0    0    0 -0.00000000000E+00 -0.00000000000E+00 -0.45593999997E+02  0.45594000000E+02  0.51100000000E-03 0. -1.
    9900012    2    1    2    0    0  0.10029872965E+02 -0.22167368990E+01 -0.15657843440E+02  0.72461539166E+02  0.69999959450E+02 0.  0.
        -12    1    1    2    0    0 -0.10029872965E+02  0.22167368990E+01  0.15657843440E+02  0.18726460834E+02  0.00000000000E+00 0.  1.
         11    1    3    3    0    0 -0.48877251609E+00  0.22460154716E+02 -0.24183571094E+02  0.33008219576E+02  0.51100000000E-03 0.  1.
        -11    1    3    3    0    0  0.12384996356E+02 -0.20320701668E+02 -0.56901640294E+01  0.24468285963E+02  0.51100000000E-03 0. -1.
        -12    1    3    3    0    0 -0.18663508751E+01 -0.43561899474E+01  0.14215891684E+02  0.14985033627E+02  0.00000000000E+00 0.  1.
</event>
<event>
 7    1  0.3508738E-013  0.7246159E+02  0.7816164E-02  0.1226708E+00
        -11   -1    0    0    0    0  0.00000000000E+00  0.00000000000E+00  0.45593999997E+02  0.45594000000E+02  0.51100000000E-03 0. -1.
         11   -1    0    0    0    0 -0.00000000000E+00 -0.00000000000E+00 -0.45593999997E+02  0.45594000000E+02  0.51100000000E-03 0.  1.
    9900012    2    1    2    0    0  0.51963721817E+01  0.17715904393E+02  0.31341696749E+01  0.72461586252E+02  0.70000020788E+02 0.  0.
        -12    1    1    2    0    0 -0.51963721817E+01 -0.17715904393E+02 -0.31341696749E+01  0.18726413748E+02  0.00000000000E+00 0.  1.
         11    1    3    3    0    0  0.21145062460E+02  0.12068467246E+02 -0.34811453829E+00  0.24349183807E+02  0.51100000000E-03 0. -1.
        -11    1    3    3    0    0  0.74425833532E+01  0.10359015519E+02 -0.13692321285E+02  0.18713121384E+02  0.51100000000E-03 0.  1.
        -12    1    3    3    0    0 -0.23391273631E+02 -0.47115783723E+01  0.17174605498E+02  0.29399281060E+02  0.00000000000E+00 0.  1.
</event>
<event>
 7    1  0.3508738E-013  0.7246157E+02  0.7816164E-02  0.1226708E+00
        -11   -1    0    0    0    0  0.00000000000E+00  0.00000000000E+00  0.45593999997E+02  0.45594000000E+02  0.51100000000E-03 0.  1.
         11   -1    0    0    0    0 -0.00000000000E+00 -0.00000000000E+00 -0.45593999997E+02  0.45594000000E+02  0.51100000000E-03 0. -1.
    9900012    2    1    2    0    0  0.18692319034E+02 -0.11101702375E+01  0.20978387529E+00  0.72461567396E+02  0.69999996224E+02 0.  0.
        -12    1    1    2    0    0 -0.18692319034E+02  0.11101702375E+01 -0.20978387529E+00  0.18726432604E+02  0.00000000000E+00 0.  1.
         11    1    3    3    0    0  0.13280420967E+02  0.65395175520E+01 -0.30095943135E+02  0.33539538821E+02  0.51100000000E-03 0. -1.
        -11    1    3    3    0    0  0.90033079790E+01  0.28403124841E+01  0.37747942288E+01  0.10167398945E+02  0.51100000000E-03 0.  1.
         12    1    3    3    0    0 -0.35914099128E+01 -0.10490000274E+02  0.26530932781E+02  0.28754629630E+02  0.00000000000E+00 0. -1.
</event>
<event>
 7    1  0.3508738E-013  0.7246151E+02  0.7816164E-02  0.1226708E+00
        -11   -1    0    0    0    0  0.00000000000E+00  0.00000000000E+00  0.45593999997E+02  0.45594000000E+02  0.51100000000E-03 0. -1.
         11   -1    0    0    0    0 -0.00000000000E+00 -0.00000000000E+00 -0.45593999997E+02  0.45594000000E+02  0.51100000000E-03 0.  1.
    9900012    2    1    2    0    0  0.56152700635E+01 -0.54000974476E+01  0.17029063091E+02  0.72461513408E+02  0.69999925895E+02 0.  0.
        -12    1    1    2    0    0 -0.56152700635E+01  0.54000974476E+01 -0.17029063091E+02  0.18726486592E+02  0.00000000000E+00 0.  1.
         11    1    3    3    0    0 -0.14175640890E+00 -0.16880965153E+02  0.90398444537E+01  0.19149565723E+02  0.51100000000E-03 0. -1.
        -11    1    3    3    0    0 -0.18993060161E+02 -0.46291495846E+01  0.12834632980E+02  0.23385747030E+02  0.51100000000E-03 0.  1.
         12    1    3    3    0    0  0.24750086634E+02  0.16110017290E+02 -0.48454143426E+01  0.29926200654E+02  0.00000000000E+00 0. -1.
</event>
<event>
 7    1  0.3508738E-013  0.7246155E+02  0.7816164E-02  0.1226708E+00
        -11   -1    0    0    0    0  0.00000000000E+00  0.00000000000E+00  0.45593999997E+02  0.45594000000E+02  0.51100000000E-03 0. -1.
         11   -1    0    0    0    0 -0.00000000000E+00 -0.00000000000E+00 -0.45593999997E+02  0.45594000000E+02  0.51100000000E-03 0.  1.
    9900012    2    1    2    0    0 -0.16847160060E+02 -0.55830840725E+00  0.81572990182E+01  0.72461547115E+02  0.69999969805E+02 0.  0.
        -12    1    1    2    0    0  0.16847160060E+02  0.55830840725E+00 -0.81572990182E+01  0.18726452885E+02  0.00000000000E+00 0.  1.
         11    1    3    3    0    0  0.22641675822E+01 -0.18418365263E+02  0.64985757796E+01  0.19661996878E+02  0.51100000000E-03 0. -1.
        -11    1    3    3    0    0 -0.69572652541E+01 -0.12989585303E+02  0.10957286744E+02  0.18362870125E+02  0.51100000000E-03 0.  1.
        -12    1    3    3    0    0 -0.12154062388E+02  0.30849642159E+02 -0.92985635052E+01  0.34436680112E+02  0.00000000000E+00 0.  1.
</event>
<event>
 7    1  0.3508738E-013  0.7246182E+02  0.7816164E-02  0.1226707E+00
        -11   -1    0    0    0    0  0.00000000000E+00  0.00000000000E+00  0.45593999997E+02  0.45594000000E+02  0.51100000000E-03 0.  1.
         11   -1    0    0    0    0 -0.00000000000E+00 -0.00000000000E+00 -0.45593999997E+02  0.45594000000E+02  0.51100000000E-03 0. -1.
    9900012    2    1    2    0    0 -0.50099401648E+01  0.17634998179E+02 -0.38179854098E+01  0.72461823833E+02  0.70000330281E+02 0.  0.
        -12    1    1    2    0    0  0.50099401648E+01 -0.17634998179E+02  0.38179854098E+01  0.18726176167E+02  0.00000000000E+00 0.  1.
         11    1    3    3    0    0 -0.71741760149E+01  0.16405077625E+00  0.75627746777E+01  0.10425510790E+02  0.51100000000E-03 0. -1.
        -11    1    3    3    0    0  0.13249944978E+02  0.14190836360E+02  0.20433700604E+02  0.28186468370E+02  0.51100000000E-03 0.  1.
         12    1    3    3    0    0 -0.11085709128E+02  0.32801110433E+01 -0.31814460691E+02  0.33849844673E+02  0.00000000000E+00 0. -1.
</event>
<event>
 7    1  0.3508738E-013  0.7246181E+02  0.7816164E-02  0.1226707E+00
        -11   -1    0    0    0    0  0.00000000000E+00  0.00000000000E+00  0.45593999997E+02  0.45594000000E+02  0.51100000000E-03 0. -1.
         11   -1    0    0    0    0 -0.00000000000E+00 -0.00000000000E+00 -0.45593999997E+02  0.45594000000E+02  0.51100000000E-03 0.  1.
    9900012    2    1    2    0    0 -0.98660295948E+01 -0.14603038644E+02  0.63311188334E+01  0.72461805959E+02  0.70000306996E+02 0.  0.
        -12    1    1    2    0    0  0.98660295948E+01  0.14603038644E+02 -0.63311188334E+01  0.18726194041E+02  0.00000000000E+00 0.  1.
         11    1    3    3    0    0  0.66567742853E+00  0.77520276550E+01  0.73013420344E+01  0.10669894796E+02  0.51100000000E-03 0. -1.
        -11    1    3    3    0    0 -0.21445833956E+02  0.12058517080E+02  0.52494332658E+01  0.25157268892E+02  0.51100000000E-03 0.  1.
        -12    1    3    3    0    0  0.10914126933E+02 -0.34413583379E+02 -0.62196564668E+01  0.36634642270E+02  0.00000000000E+00 0.  1.
</event>
<event>
 7    1  0.3508738E-013  0.7246155E+02  0.7816164E-02  0.1226708E+00
        -11   -1    0    0    0    0  0.00000000000E+00  0.00000000000E+00  0.45593999997E+02  0.45594000000E+02  0.51100000000E-03 0.  1.
         11   -1    0    0    0    0 -0.00000000000E+00 -0.00000000000E+00 -0.45593999997E+02  0.45594000000E+02  0.51100000000E-03 0. -1.
    9900012    2    1    2    0    0 -0.14365239258E+02  0.11222508052E+02 -0.42866117342E+01  0.72461552764E+02  0.69999977163E+02 0.  0.
        -12    1    1    2    0    0  0.14365239258E+02 -0.11222508052E+02  0.42866117342E+01  0.18726447236E+02  0.00000000000E+00 0.  1.
         11    1    3    3    0    0  0.17812054259E+02  0.19862057026E+02  0.14364970145E+01  0.26717674116E+02  0.51100000000E-03 0. -1.
        -11    1    3    3    0    0  0.52619325617E+01 -0.14381222328E+01 -0.53150548387E+01  0.76161629474E+01  0.51100000000E-03 0.  1.
        -12    1    3    3    0    0 -0.37439226079E+02 -0.72014267412E+01 -0.40805390995E+00  0.38127715700E+02  0.00000000000E+00 0.  1.
</event>
<event>
 7    1  0.3508738E-013  0.7246156E+02  0.7816164E-02  0.1226708E+00
        -11   -1    0    0    0    0  0.00000000000E+00  0.00000000000E+00  0.45593999997E+02  0.45594000000E+02  0.51100000000E-03 0.  1.
         11   -1    0    0    0    0 -0.00000000000E+00 -0.00000000000E+00 -0.45593999997E+02  0.45594000000E+02  0.51100000000E-03 0. -1.
    9900012    2    1    2    0    0 -0.13201340835E+02  0.16748194378E+01 -0.13175702771E+02  0.72461559775E+02  0.69999986296E+02 0.  0.
        -12    1    1    2    0    0  0.13201340835E+02 -0.16748194378E+01  0.13175702771E+02  0.18726440225E+02  0.00000000000E+00 0.  1.
         11    1    3    3    0    0  0.74778220166E+01  0.16027201062E+02 -0.18708932736E+02  0.25745157999E+02  0.51100000000E-03 0. -1.
        -11    1    3    3    0    0  0.70818706984E+01  0.43992378653E+01  0.98882248237E+01  0.12933799782E+02  0.51100000000E-03 0.  1.
        -12    1    3    3    0    0 -0.27761033550E+02 -0.18751619489E+02 -0.43549948588E+01  0.33782601994E+02  0.00000000000E+00 0.  1.
</event>
<event>
 7    1  0.3508738E-013  0.7246154E+02  0.7816164E-02  0.1226708E+00
        -11   -1    0    0    0    0  0.00000000000E+00  0.00000000000E+00  0.45593999997E+02  0.45594000000E+02  0.51100000000E-03 0.  1.
         11   -1    0    0    0    0 -0.00000000000E+00 -0.00000000000E+00 -0.45593999997E+02  0.45594000000E+02  0.51100000000E-03 0. -1.
    9900012    2    1    2    0    0 -0.19447316594E+01  0.76946378771E+01 -0.16961457761E+02  0.72461535233E+02  0.69999954326E+02 0.  0.
        -12    1    1    2    0    0  0.19447316594E+01 -0.76946378771E+01  0.16961457761E+02  0.18726464767E+02  0.00000000000E+00 0.  1.
         11    1    3    3    0    0  0.13432694546E+01  0.36457558901E+01 -0.29379083637E+02  0.29634885936E+02  0.51100000000E-03 0. -1.
        -11    1    3    3    0    0 -0.14866863836E+02  0.16849247550E+02  0.17559444623E+01  0.22538946838E+02  0.51100000000E-03 0.  1.
        -12    1    3    3    0    0  0.11578862722E+02 -0.12800365563E+02  0.10661681413E+02  0.20287702459E+02  0.00000000000E+00 0.  1.
</event>
<event>
 7    1  0.3508738E-013  0.7246163E+02  0.7816164E-02  0.1226708E+00
        -11   -1    0    0    0    0  0.00000000000E+00  0.00000000000E+00  0.45593999997E+02  0.45594000000E+02  0.51100000000E-03 0.  1.
         11   -1    0    0    0    0 -0.00000000000E+00 -0.00000000000E+00 -0.45593999997E+02  0.45594000000E+02  0.51100000000E-03 0. -1.
    9900012    2    1    2    0    0 -0.12792954378E+02 -0.47112562963E+01 -0.12838279126E+02  0.72461627459E+02  0.70000074468E+02 0.  0.
        -12    1    1    2    0    0  0.12792954378E+02  0.47112562963E+01  0.12838279126E+02  0.18726372541E+02  0.00000000000E+00 0.  1.
         11    1    3    3    0    0 -0.21522211560E+02 -0.45478525933E+01  0.71519709704E+01  0.23130915301E+02  0.51100000000E-03 0. -1.
        -11    1    3    3    0    0 -0.11308075877E+02  0.15362671623E+02 -0.12834240990E+02  0.22991346230E+02  0.51100000000E-03 0.  1.
         12    1    3    3    0    0  0.20037333059E+02 -0.15526075326E+02 -0.71560091071E+01  0.26339365928E+02  0.00000000000E+00 0. -1.
</event>
<event>
 7    1  0.3508738E-013  0.7246161E+02  0.7816164E-02  0.1226708E+00
        -11   -1    0    0    0    0  0.00000000000E+00  0.00000000000E+00  0.45593999997E+02  0.45594000000E+02  0.51100000000E-03 0.  1.
         11   -1    0    0    0    0 -0.00000000000E+00 -0.00000000000E+00 -0.45593999997E+02  0.45594000000E+02  0.51100000000E-03 0. -1.
    9900012    2    1    2    0    0  0.30331762082E+01  0.18440160938E+02 -0.11991090659E+01  0.72461613379E+02  0.70000056125E+02 0.  0.
        -12    1    1    2    0    0 -0.30331762082E+01 -0.18440160938E+02  0.11991090659E+01  0.18726386621E+02  0.00000000000E+00 0.  1.
         11    1    3    3    0    0  0.39219905887E+00 -0.19428328115E+01 -0.17856518766E+02  0.17966181624E+02  0.51100000000E-03 0. -1.
        -11    1    3    3    0    0  0.16337368399E+02 -0.52754775435E+01 -0.53945632442E+01  0.17995598972E+02  0.51100000000E-03 0.  1.
        -12    1    3    3    0    0 -0.13696391250E+02  0.25658471293E+02  0.22051972944E+02  0.36499832782E+02  0.00000000000E+00 0.  1.
</event>
<event>
 7    1  0.3508738E-013  0.7246155E+02  0.7816164E-02  0.1226708E+00
        -11   -1    0    0    0    0  0.00000000000E+00  0.00000000000E+00  0.45593999997E+02  0.45594000000E+02  0.51100000000E-03 0.  1.
         11   -1    0    0    0    0 -0.00000000000E+00 -0.00000000000E+00 -0.45593999997E+02  0.45594000000E+02  0.51100000000E-03 0. -1.
    9900012    2    1    2    0    0 -0.32501748919E+01  0.80959070924E+01 -0.16570226498E+02  0.72461554671E+02  0.69999979647E+02 0.  0.
        -12    1    1    2    0    0  0.32501748919E+01 -0.80959070924E+01  0.16570226498E+02  0.18726445329E+02  0.00000000000E+00 0.  1.
         11    1    3    3    0    0  0.41435535773E+01  0.90107097773E+01 -0.58334744315E+01  0.11506144061E+02  0.51100000000E-03 0. -1.
        -11    1    3    3    0    0 -0.76860894134E+01  0.31085915492E+01 -0.35199264017E+02  0.36162515116E+02  0.51100000000E-03 0.  1.
        -12    1    3    3    0    0  0.29236094417E+00 -0.40233942341E+01  0.24462511950E+02  0.24792895495E+02  0.00000000000E+00 0.  1.
</event>
<event>
 7    1  0.3508738E-013  0.7246155E+02  0.7816164E-02  0.1226708E+00
        -11   -1    0    0    0    0  0.00000000000E+00  0.00000000000E+00  0.45593999997E+02  0.45594000000E+02  0.51100000000E-03 0.  1.
         11   -1    0    0    0    0 -0.00000000000E+00 -0.00000000000E+00 -0.45593999997E+02  0.45594000000E+02  0.51100000000E-03 0. -1.
    9900012    2    1    2    0    0 -0.56082466784E+01  0.40509525316E+01 -0.17401646821E+02  0.72461549207E+02  0.69999972530E+02 0.  0.
        -12    1    1    2    0    0  0.56082466784E+01 -0.40509525316E+01  0.17401646821E+02  0.18726450793E+02  0.00000000000E+00 0.  1.
         11    1    3    3    0    0 -0.12308708246E+02  0.10885039239E+02 -0.20157230731E+02  0.26005813368E+02  0.51100000000E-03 0. -1.
        -11    1    3    3    0    0 -0.16506483998E+02  0.74093502083E+01 -0.37092350149E+01  0.18469458821E+02  0.51100000000E-03 0.  1.
         12    1    3    3    0    0  0.23206945565E+02 -0.14243436916E+02  0.64648189242E+01  0.27986277019E+02  0.00000000000E+00 0. -1.
</event>
<event>
 7    1  0.4685388E-013  0.7246154E+02  0.7816164E-02  0.1226708E+00
        -11   -1    0    0    0    0  0.00000000000E+00  0.00000000000E+00  0.45593999997E+02  0.45594000000E+02  0.51100000000E-03 0.  1.
         11   -1    0    0    0    0 -0.00000000000E+00 -0.00000000000E+00 -0.45593999997E+02  0.45594000000E+02  0.51100000000E-03 0. -1.
    9900012    2    1    2    0    0 -0.12105890825E+02  0.13743656715E+02 -0.39038127243E+01  0.72461536203E+02  0.69999955589E+02 0.  0.
        -12    1    1    2    0    0  0.12105890825E+02 -0.13743656715E+02  0.39038127243E+01  0.18726463797E+02  0.00000000000E+00 0.  1.
         11    1    3    3    0    0 -0.11357252167E+02  0.25319098244E+02 -0.77083294166E+01  0.28800386375E+02  0.51100000000E-03 0. -1.
        -11    1    3    3    0    0 -0.54971033907E+01  0.49137693216E+01 -0.15903654264E+02  0.17529674664E+02  0.51100000000E-03 0.  1.
        -12    1    3    3    0    0  0.47484647324E+01 -0.16489210851E+02  0.19708170956E+02  0.26131475164E+02  0.00000000000E+00 0.  1.
</event>
<event>
 7    1  0.4461551E-013  0.7246157E+02  0.7816164E-02  0.1226708E+00
        -11   -1    0    0    0    0  0.00000000000E+00  0.00000000000E+00  0.45593999997E+02  0.45594000000E+02  0.51100000000E-03 0.  1.
         11   -1    0    0    0    0 -0.00000000000E+00 -0.00000000000E+00 -0.45593999997E+02  0.45594000000E+02  0.51100000000E-03 0. -1.
    9900012    2    1    2    0    0 -0.51642925425E+01 -0.40389605975E+01 -0.17541267523E+02  0.72461569841E+02  0.69999999410E+02 0.  0.
        -12    1    1    2    0    0  0.51642925425E+01  0.40389605975E+01  0.17541267523E+02  0.18726430159E+02  0.00000000000E+00 0.  1.
         11    1    3    3    0    0  0.14838272679E+02  0.55578578357E+01 -0.33244948592E+02  0.36827852598E+02  0.51100000000E-03 0. -1.
        -11    1    3    3    0    0 -0.40840698979E+01 -0.42200757659E+01 -0.58604313637E+01  0.82965849860E+01  0.51100000000E-03 0.  1.
        -12    1    3    3    0    0 -0.15918495324E+02 -0.53767426672E+01  0.21564112432E+02  0.27337132258E+02  0.00000000000E+00 0.  1.
</event>
<event>
 7    1  0.3508738E-013  0.7246163E+02  0.7816164E-02  0.1226708E+00
        -11   -1    0    0    0    0  0.00000000000E+00  0.00000000000E+00  0.45593999997E+02  0.45594000000E+02  0.51100000000E-03 0.  1.
         11   -1    0    0    0    0 -0.00000000000E+00 -0.00000000000E+00 -0.45593999997E+02  0.45594000000E+02  0.51100000000E-03 0. -1.
    9900012    2    1    2    0    0  0.21763150345E+01 -0.17865245119E+02 -0.51743041434E+01  0.72461634798E+02  0.70000084029E+02 0.  0.
        -12    1    1    2    0    0 -0.21763150345E+01  0.17865245119E+02  0.51743041434E+01  0.18726365202E+02  0.00000000000E+00 0.  1.
         11    1    3    3    0    0  0.16429096523E+02 -0.21906494068E+02 -0.60276719242E+01  0.28038233253E+02  0.51100000000E-03 0. -1.
        -11    1    3    3    0    0  0.10757169239E+02 -0.25658412703E+01  0.11944540125E+02  0.16277968869E+02  0.51100000000E-03 0.  1.
        -12    1    3    3    0    0 -0.25009950727E+02  0.66070902187E+01 -0.11091172344E+02  0.28145432676E+02  0.00000000000E+00 0.  1.
</event>
<event>
 7    1  0.3508738E-013  0.7246150E+02  0.7816164E-02  0.1226708E+00
        -11   -1    0    0    0    0  0.00000000000E+00  0.00000000000E+00  0.45593999997E+02  0.45594000000E+02  0.51100000000E-03 0.  1.
         11   -1    0    0    0    0 -0.00000000000E+00 -0.00000000000E+00 -0.45593999997E+02  0.45594000000E+02  0.51100000000E-03 0. -1.
    9900012    2    1    2    0    0  0.10965554233E+02  0.15040722884E+02  0.20530748551E+01  0.72461498969E+02  0.69999907086E+02 0.  0.
        -12    1    1    2    0    0 -0.10965554233E+02 -0.15040722884E+02 -0.20530748551E+01  0.18726501031E+02  0.00000000000E+00 0.  1.
         11    1    3    3    0    0  0.41332508492E+00  0.54501338686E+01  0.12772945450E+02  0.13893269325E+02  0.51100000000E-03 0. -1.
        -11    1    3    3    0    0 -0.18255428796E+02 -0.46720472204E+01  0.89724340119E+01  0.20870871522E+02  0.51100000000E-03 0.  1.
         12    1    3    3    0    0  0.28807657944E+02  0.14262636235E+02 -0.19692304607E+02  0.37697358121E+02  0.00000000000E+00 0. -1.
</event>
<event>
 7    1  0.3790024E-013  0.7246157E+02  0.7816164E-02  0.1226708E+00
        -11   -1    0    0    0    0  0.00000000000E+00  0.00000000000E+00  0.45593999997E+02  0.45594000000E+02  0.51100000000E-03 0.  1.
         11   -1    0    0    0    0 -0.00000000000E+00 -0.00000000000E+00 -0.45593999997E+02  0.45594000000E+02  0.51100000000E-03 0. -1.
    9900012    2    1    2    0    0 -0.97139694417E+00 -0.18501030312E+02 -0.27289790145E+01  0.72461573189E+02  0.70000003771E+02 0.  0.
        -12    1    1    2    0    0  0.97139694417E+00  0.18501030312E+02  0.27289790145E+01  0.18726426811E+02  0.00000000000E+00 0.  1.
         11    1    3    3    0    0 -0.38063559028E+01 -0.31122894245E+02 -0.23932261848E+02  0.39444594672E+02  0.51100000000E-03 0. -1.
        -11    1    3    3    0    0  0.28066591479E+01 -0.20445980265E+01 -0.30844109845E+01  0.46444922268E+01  0.51100000000E-03 0.  1.
        -12    1    3    3    0    0  0.28299810706E-01  0.14666461959E+02  0.24287693818E+02  0.28372486290E+02  0.00000000000E+00 0.  1.
</event>
<event>
 7    1  0.3508738E-013  0.7246166E+02  0.7816164E-02  0.1226708E+00
        -11   -1    0    0    0    0  0.00000000000E+00  0.00000000000E+00  0.45593999997E+02  0.45594000000E+02  0.51100000000E-03 0.  1.
         11   -1    0    0    0    0 -0.00000000000E+00 -0.00000000000E+00 -0.45593999997E+02  0.45594000000E+02  0.51100000000E-03 0. -1.
    9900012    2    1    2    0    0  0.94672527458E+01  0.49994288780E+01 -0.15364006128E+02  0.72461658981E+02  0.70000115530E+02 0.  0.
        -12    1    1    2    0    0 -0.94672527458E+01 -0.49994288780E+01  0.15364006128E+02  0.18726341019E+02  0.00000000000E+00 0.  1.
         11    1    3    3    0    0 -0.11181876696E+02  0.49416392015E+01 -0.10368840341E+02  0.16030190726E+02  0.51100000000E-03 0. -1.
        -11    1    3    3    0    0 -0.28463605568E+01 -0.22361272560E+02 -0.77565112062E+01  0.23838870470E+02  0.51100000000E-03 0.  1.
         12    1    3    3    0    0  0.23495489999E+02  0.22419062236E+02  0.27613454187E+01  0.32592597785E+02  0.00000000000E+00 0. -1.
</event>
<event>
 7    1  0.3508738E-013  0.7246157E+02  0.7816164E-02  0.1226708E+00
        -11   -1    0    0    0    0  0.00000000000E+00  0.00000000000E+00  0.45593999997E+02  0.45594000000E+02  0.51100000000E-03 0.  1.
         11   -1    0    0    0    0 -0.00000000000E+00 -0.00000000000E+00 -0.45593999997E+02  0.45594000000E+02  0.51100000000E-03 0. -1.
    9900012    2    1    2    0    0 -0.14402666389E+02  0.11963209933E+02  0.35211477458E+00  0.72461570126E+02  0.69999999781E+02 0.  0.
        -12    1    1    2    0    0  0.14402666389E+02 -0.11963209933E+02 -0.35211477458E+00  0.18726429874E+02  0.00000000000E+00 0.  1.
         11    1    3    3    0    0  0.82667767052E+00 -0.41780696013E+01 -0.83023840026E+01  0.93310900731E+01  0.51100000000E-03 0. -1.
        -11    1    3    3    0    0  0.49689645782E+01 -0.56867672072E+01  0.27101762325E+02  0.28134239844E+02  0.51100000000E-03 0.  1.
         12    1    3    3    0    0 -0.20198308638E+02  0.21828046741E+02 -0.18447263547E+02  0.34996240209E+02  0.00000000000E+00 0. -1.
</event>
<event>
 7    1  0.3508738E-013  0.7246158E+02  0.7816164E-02  0.1226708E+00
        -11   -1    0    0    0    0  0.00000000000E+00  0.00000000000E+00  0.45593999997E+02  0.45594000000E+02  0.51100000000E-03 0. -1.
         11   -1    0    0    0    0 -0.00000000000E+00 -0.00000000000E+00 -0.45593999997E+02  0.45594000000E+02  0.51100000000E-03 0.  1.
    9900012    2    1    2    0    0 -0.22942276142E+01 -0.11054117211E+02  0.14940613144E+02  0.72461577256E+02  0.70000009069E+02 0.  0.
        -12    1    1    2    0    0  0.22942276142E+01  0.11054117211E+02 -0.14940613144E+02  0.18726422744E+02  0.00000000000E+00 0.  1.
         11    1    3    3    0    0 -0.12700449107E+02 -0.29360328572E+02  0.82936473151E+01  0.33047161564E+02  0.51100000000E-03 0. -1.
        -11    1    3    3    0    0  0.25704329675E+01 -0.95617196517E+01  0.16544333451E+01  0.10038463941E+02  0.51100000000E-03 0.  1.
        -12    1    3    3    0    0  0.78357885253E+01  0.27867931012E+02  0.49925324836E+01  0.29375951752E+02  0.00000000000E+00 0.  1.
</event>
<event>
 7    1  0.3508738E-013  0.7246171E+02  0.7816164E-02  0.1226708E+00
        -11   -1    0    0    0    0  0.00000000000E+00  0.00000000000E+00  0.45593999997E+02  0.45594000000E+02  0.51100000000E-03 0.  1.
         11   -1    0    0    0    0 -0.00000000000E+00 -0.00000000000E+00 -0.45593999997E+02  0.45594000000E+02  0.51100000000E-03 0. -1.
    9900012    2    1    2    0    0 -0.48136135609E+00 -0.75890593042E+01 -0.17112809284E+02  0.72461714424E+02  0.70000187756E+02 0.  0.
        -12    1    1    2    0    0  0.48136135609E+00  0.75890593042E+01  0.17112809284E+02  0.18726285576E+02  0.00000000000E+00 0.  1.
         11    1    3    3    0    0 -0.29168935648E+01 -0.18433654825E+01  0.73801939439E+00  0.35285885646E+01  0.51100000000E-03 0. -1.
        -11    1    3    3    0    0  0.98445224418E+01 -0.11908479091E+02  0.22585215405E+02  0.27364547347E+02  0.51100000000E-03 0.  1.
         12    1    3    3    0    0 -0.74089902331E+01  0.61627852692E+01 -0.40436044083E+02  0.41568578513E+02  0.00000000000E+00 0. -1.
</event>
<event>
 7    1  0.3508738E-013  0.7246158E+02  0.7816164E-02  0.1226708E+00
        -11   -1    0    0    0    0  0.00000000000E+00  0.00000000000E+00  0.45593999997E+02  0.45594000000E+02  0.51100000000E-03 0.  1.
         11   -1    0    0    0    0 -0.00000000000E+00 -0.00000000000E+00 -0.45593999997E+02  0.45594000000E+02  0.51100000000E-03 0. -1.
    9900012    2    1    2    0    0 -0.41907264155E+01  0.52100033518E+01 -0.17492067403E+02  0.72461581633E+02  0.70000014771E+02 0.  0.
        -12    1    1    2    0    0  0.41907264155E+01 -0.52100033518E+01  0.17492067403E+02  0.18726418367E+02  0.00000000000E+00 0.  1.
         11    1    3    3    0    0 -0.20042973811E+01 -0.63556373599E+00 -0.11148722187E+02  0.11345270200E+02  0.51100000000E-03 0. -1.
        -11    1    3    3    0    0 -0.29441543411E+02  0.10108819128E+02 -0.11245433465E+02  0.33097620407E+02  0.51100000000E-03 0.  1.
         12    1    3    3    0    0  0.27255114376E+02 -0.42632520399E+01  0.49020882483E+01  0.28018691026E+02  0.00000000000E+00 0. -1.
</event>
<event>
 7    1  0.3508738E-013  0.7246162E+02  0.7816164E-02  0.1226708E+00
        -11   -1    0    0    0    0  0.00000000000E+00  0.00000000000E+00  0.45593999997E+02  0.45594000000E+02  0.51100000000E-03 0. -1.
         11   -1    0    0    0    0 -0.00000000000E+00 -0.00000000000E+00 -0.45593999997E+02  0.45594000000E+02  0.51100000000E-03 0.  1.
    9900012    2    1    2    0    0 -0.17693976554E+02  0.51149520167E+01  0.33819648929E+01  0.72461622161E+02  0.70000067566E+02 0.  0.
        -12    1    1    2    0    0  0.17693976554E+02 -0.51149520167E+01 -0.33819648929E+01  0.18726377839E+02  0.00000000000E+00 0.  1.
         11    1    3    3    0    0 -0.42034333340E+02  0.42433334111E+01 -0.69149991992E+01  0.42810142162E+02  0.51100000000E-03 0. -1.
        -11    1    3    3    0    0  0.64886705452E+01 -0.55113142778E+01  0.11135766067E+01  0.85858886339E+01  0.51100000000E-03 0.  1.
        -12    1    3    3    0    0  0.17851686241E+02  0.63829328835E+01  0.91833874855E+01  0.21065591365E+02  0.00000000000E+00 0.  1.
</event>
<event>
 7    1  0.3508738E-013  0.7246158E+02  0.7816164E-02  0.1226708E+00
        -11   -1    0    0    0    0  0.00000000000E+00  0.00000000000E+00  0.45593999997E+02  0.45594000000E+02  0.51100000000E-03 0. -1.
         11   -1    0    0    0    0 -0.00000000000E+00 -0.00000000000E+00 -0.45593999997E+02  0.45594000000E+02  0.51100000000E-03 0.  1.
    9900012    2    1    2    0    0 -0.12620815601E+02  0.13729513334E+02 -0.17012818096E+01  0.72461577954E+02  0.70000009979E+02 0.  0.
        -12    1    1    2    0    0  0.12620815601E+02 -0.13729513334E+02  0.17012818096E+01  0.18726422046E+02  0.00000000000E+00 0.  1.
         11    1    3    3    0    0 -0.21829360622E+01 -0.67017573588E+01 -0.97789249309E+01  0.12054299424E+02  0.51100000000E-03 0. -1.
        -11    1    3    3    0    0  0.64109779519E+01  0.18205241375E+01 -0.20976379043E+02  0.22009621179E+02  0.51100000000E-03 0.  1.
         12    1    3    3    0    0 -0.16848857491E+02  0.18610746555E+02  0.29054022164E+02  0.38397657351E+02  0.00000000000E+00 0. -1.
</event>
<event>
 7    1  0.3508738E-013  0.7246155E+02  0.7816164E-02  0.1226708E+00
        -11   -1    0    0    0    0  0.00000000000E+00  0.00000000000E+00  0.45593999997E+02  0.45594000000E+02  0.51100000000E-03 0. -1.
         11   -1    0    0    0    0 -0.00000000000E+00 -0.00000000000E+00 -0.45593999997E+02  0.45594000000E+02  0.51100000000E-03 0.  1.
    9900012    2    1    2    0    0  0.77226212239E+01  0.16207718166E+02  0.53245430217E+01  0.72461554392E+02  0.69999979284E+02 0.  0.
        -12    1    1    2    0    0 -0.77226212239E+01 -0.16207718166E+02 -0.53245430217E+01  0.18726445608E+02  0.00000000000E+00 0.  1.
         11    1    3    3    0    0 -0.72333636536E+01  0.93751552340E+01  0.12878460486E+02  0.17494851533E+02  0.51100000000E-03 0. -1.
        -11    1    3    3    0    0 -0.18492284202E+02 -0.37851291879E+01 -0.61249752366E+01  0.19844573563E+02  0.51100000000E-03 0.  1.
         12    1    3    3    0    0  0.33448269080E+02  0.10617692120E+02 -0.14289422280E+01  0.35122129296E+02  0.00000000000E+00 0. -1.
</event>
<event>
 7    1  0.3508738E-013  0.7246158E+02  0.7816164E-02  0.1226708E+00
        -11   -1    0    0    0    0  0.00000000000E+00  0.00000000000E+00  0.45593999997E+02  0.45594000000E+02  0.51100000000E-03 0. -1.
         11   -1    0    0    0    0 -0.00000000000E+00 -0.00000000000E+00 -0.45593999997E+02  0.45594000000E+02  0.51100000000E-03 0.  1.
    9900012    2    1    2    0    0 -0.38455079614E+01 -0.18100393626E+02 -0.28751672326E+01  0.72461581028E+02  0.70000013983E+02 0.  0.
        -12    1    1    2    0    0  0.38455079614E+01  0.18100393626E+02  0.28751672326E+01  0.18726418972E+02  0.00000000000E+00 0.  1.
         11    1    3    3    0    0  0.71587551859E+01 -0.41291024317E+01 -0.16456585074E+02  0.18415114859E+02  0.51100000000E-03 0. -1.
        -11    1    3    3    0    0 -0.12459821494E+02  0.10238849893E+02 -0.10994223702E+02  0.19518046876E+02  0.51100000000E-03 0.  1.
         12    1    3    3    0    0  0.14555583467E+01 -0.24210141087E+02  0.24575641544E+02  0.34528419293E+02  0.00000000000E+00 0. -1.
</event>
<event>
 7    1  0.3508738E-013  0.7246152E+02  0.7816164E-02  0.1226708E+00
        -11   -1    0    0    0    0  0.00000000000E+00  0.00000000000E+00  0.45593999997E+02  0.45594000000E+02  0.51100000000E-03 0.  1.
         11   -1    0    0    0    0 -0.00000000000E+00 -0.00000000000E+00 -0.45593999997E+02  0.45594000000E+02  0.51100000000E-03 0. -1.
    9900012    2    1    2    0    0 -0.84771548802E+01  0.14017600478E+02 -0.90733486829E+01  0.72461523173E+02  0.69999938616E+02 0.  0.
        -12    1    1    2    0    0  0.84771548802E+01 -0.14017600478E+02  0.90733486829E+01  0.18726476827E+02  0.00000000000E+00 0.  1.
         11    1    3    3    0    0  0.57165110443E+01  0.42608902854E+01 -0.86510616548E+00  0.71820674936E+01  0.51100000000E-03 0. -1.
        -11    1    3    3    0    0  0.10258493943E+02  0.22059327541E+02  0.15684676233E+02  0.28945806231E+02  0.51100000000E-03 0.  1.
         12    1    3    3    0    0 -0.24452159867E+02 -0.12302617348E+02 -0.23892918751E+02  0.36333649448E+02  0.00000000000E+00 0. -1.
</event>
<event>
 7    1  0.3508738E-013  0.7246158E+02  0.7816164E-02  0.1226708E+00
        -11   -1    0    0    0    0  0.00000000000E+00  0.00000000000E+00  0.45593999997E+02  0.45594000000E+02  0.51100000000E-03 0. -1.
         11   -1    0    0    0    0 -0.00000000000E+00 -0.00000000000E+00 -0.45593999997E+02  0.45594000000E+02  0.51100000000E-03 0.  1.
    9900012    2    1    2    0    0  0.17943857229E+02 -0.35715578032E+01 -0.39925809668E+01  0.72461581758E+02  0.70000014934E+02 0.  0.
        -12    1    1    2    0    0 -0.17943857229E+02  0.35715578032E+01  0.39925809668E+01  0.18726418242E+02  0.00000000000E+00 0.  1.
         11    1    3    3    0    0  0.38061051615E+01 -0.15901094752E+02  0.33690696581E+01  0.16693767743E+02  0.51100000000E-03 0. -1.
        -11    1    3    3    0    0 -0.14900878284E+02  0.18691804999E+02 -0.10024749614E+02  0.25921330075E+02  0.51100000000E-03 0.  1.
         12    1    3    3    0    0  0.29038630351E+02 -0.63622680500E+01  0.26630989889E+01  0.29846483941E+02  0.00000000000E+00 0. -1.
</event>
<event>
 7    1  0.3508738E-013  0.7246161E+02  0.7816164E-02  0.1226708E+00
        -11   -1    0    0    0    0  0.00000000000E+00  0.00000000000E+00  0.45593999997E+02  0.45594000000E+02  0.51100000000E-03 0.  1.
         11   -1    0    0    0    0 -0.00000000000E+00 -0.00000000000E+00 -0.45593999997E+02  0.45594000000E+02  0.51100000000E-03 0. -1.
    9900012    2    1    2    0    0  0.14940861662E+02  0.67815562085E+01 -0.90254601840E+01  0.72461607306E+02  0.70000048214E+02 0.  0.
        -12    1    1    2    0    0 -0.14940861662E+02 -0.67815562085E+01  0.90254601840E+01  0.18726392694E+02  0.00000000000E+00 0.  1.
         11    1    3    3    0    0  0.10255029832E+02 -0.15718524647E+02 -0.15173048406E+02  0.24134188450E+02  0.51100000000E-03 0. -1.
        -11    1    3    3    0    0 -0.71334728492E+01  0.24356860395E+02 -0.10799915423E+02  0.27582263442E+02  0.51100000000E-03 0.  1.
        -12    1    3    3    0    0  0.11819304679E+02 -0.18567795394E+01  0.16947503645E+02  0.20745155414E+02  0.00000000000E+00 0.  1.
</event>
<event>
 7    1  0.3508738E-013  0.7246157E+02  0.7816164E-02  0.1226708E+00
        -11   -1    0    0    0    0  0.00000000000E+00  0.00000000000E+00  0.45593999997E+02  0.45594000000E+02  0.51100000000E-03 0.  1.
         11   -1    0    0    0    0 -0.00000000000E+00 -0.00000000000E+00 -0.45593999997E+02  0.45594000000E+02  0.51100000000E-03 0. -1.
    9900012    2    1    2    0    0  0.17320211500E+01  0.11197146862E+02 -0.14909834526E+02  0.72461570530E+02  0.70000000307E+02 0.  0.
        -12    1    1    2    0    0 -0.17320211500E+01 -0.11197146862E+02  0.14909834526E+02  0.18726429470E+02  0.00000000000E+00 0.  1.
         11    1    3    3    0    0 -0.14431597378E+02  0.16451200780E+02 -0.57838354914E+01  0.22635497857E+02  0.51100000000E-03 0. -1.
        -11    1    3    3    0    0  0.10536464740E+02 -0.20650489703E+02  0.94643753601E+01  0.25040651257E+02  0.51100000000E-03 0.  1.
         12    1    3    3    0    0  0.56271537886E+01  0.15396435784E+02 -0.18590374394E+02  0.24785421416E+02  0.00000000000E+00 0. -1.
</event>
<event>
 7    1  0.3508738E-013  0.7246123E+02  0.7816164E-02  0.1226709E+00
        -11   -1    0    0    0    0  0.00000000000E+00  0.00000000000E+00  0.45593999997E+02  0.45594000000E+02  0.51100000000E-03 0.  1.
         11   -1    0    0    0    0 -0.00000000000E+00 -0.00000000000E+00 -0.45593999997E+02  0.45594000000E+02  0.51100000000E-03 0. -1.
    9900012    2    1    2    0    0  0.67826532501E+00 -0.18449634796E+02 -0.31373133393E+01  0.72461232982E+02  0.69999560586E+02 0.  0.
        -12    1    1    2    0    0 -0.67826532501E+00  0.18449634796E+02  0.31373133393E+01  0.18726767018E+02  0.00000000000E+00 0.  1.
         11    1    3    3    0    0  0.25141590960E+01 -0.38507201467E+02 -0.10503998764E+02  0.39993243817E+02  0.51100000000E-03 0. -1.
        -11    1    3    3    0    0 -0.41678991805E+01 -0.25733760688E+01 -0.46367371495E+01  0.67448483767E+01  0.51100000000E-03 0.  1.
        -12    1    3    3    0    0  0.23320054095E+01  0.22630942739E+02  0.12003422574E+02  0.25723140788E+02  0.00000000000E+00 0.  1.
</event>
<event>
 7    1  0.3508738E-013  0.7246153E+02  0.7816164E-02  0.1226708E+00
        -11   -1    0    0    0    0  0.00000000000E+00  0.00000000000E+00  0.45593999997E+02  0.45594000000E+02  0.51100000000E-03 0.  1.
         11   -1    0    0    0    0 -0.00000000000E+00 -0.00000000000E+00 -0.45593999997E+02  0.45594000000E+02  0.51100000000E-03 0. -1.
    9900012    2    1    2    0    0  0.91274417526E+01  0.15732345963E+02 -0.44568619453E+01  0.72461534213E+02  0.69999952998E+02 0.  0.
        -12    1    1    2    0    0 -0.91274417526E+01 -0.15732345963E+02  0.44568619453E+01  0.18726465787E+02  0.00000000000E+00 0.  1.
         11    1    3    3    0    0 -0.14693182720E+02  0.67471665325E+01  0.14556901106E+02  0.21755855413E+02  0.51100000000E-03 0. -1.
        -11    1    3    3    0    0  0.82004098591E+00  0.90794236278E+01  0.10097814998E+02  0.13604200404E+02  0.51100000000E-03 0.  1.
         12    1    3    3    0    0  0.23000583487E+02 -0.94244197063E-01 -0.29111578049E+02  0.37101478397E+02  0.00000000000E+00 0. -1.
</event>
<event>
 7    1  0.3508738E-013  0.7246155E+02  0.7816164E-02  0.1226708E+00
        -11   -1    0    0    0    0  0.00000000000E+00  0.00000000000E+00  0.45593999997E+02  0.45594000000E+02  0.51100000000E-03 0.  1.
         11   -1    0    0    0    0 -0.00000000000E+00 -0.00000000000E+00 -0.45593999997E+02  0.45594000000E+02  0.51100000000E-03 0. -1.
    9900012    2    1    2    0    0 -0.17764050062E+02 -0.57601561617E+01 -0.13924545872E+01  0.72461553370E+02  0.69999977952E+02 0.  0.
        -12    1    1    2    0    0  0.17764050062E+02  0.57601561617E+01  0.13924545872E+01  0.18726446630E+02  0.00000000000E+00 0.  1.
         11    1    3    3    0    0  0.74013356503E+01 -0.79183196900E+01  0.58574620534E+01  0.12320284822E+02  0.51100000000E-03 0. -1.
        -11    1    3    3    0    0 -0.49105846850E+01 -0.10846954727E+02  0.20314263727E+02  0.23546540719E+02  0.51100000000E-03 0.  1.
         12    1    3    3    0    0 -0.20254801028E+02  0.13005118255E+02 -0.27564180368E+02  0.36594727829E+02  0.00000000000E+00 0. -1.
</event>
<event>
 7    1  0.3508738E-013  0.7246181E+02  0.7816164E-02  0.1226707E+00
        -11   -1    0    0    0    0  0.00000000000E+00  0.00000000000E+00  0.45593999997E+02  0.45594000000E+02  0.51100000000E-03 0.  1.
         11   -1    0    0    0    0 -0.00000000000E+00 -0.00000000000E+00 -0.45593999997E+02  0.45594000000E+02  0.51100000000E-03 0. -1.
    9900012    2    1    2    0    0  0.30813396921E+01 -0.27035941850E+01 -0.18272004510E+02  0.72461809127E+02  0.70000311123E+02 0.  0.
        -12    1    1    2    0    0 -0.30813396921E+01  0.27035941850E+01  0.18272004510E+02  0.18726190873E+02  0.00000000000E+00 0.  1.
         11    1    3    3    0    0 -0.11945449583E+01  0.15225685885E+01 -0.75474127267E+01  0.77915718499E+01  0.51100000000E-03 0. -1.
        -11    1    3    3    0    0  0.42003958735E+01 -0.31622155727E+02 -0.17588389117E+02  0.36427400268E+02  0.51100000000E-03 0.  1.
        -12    1    3    3    0    0  0.75488776858E-01  0.27395992953E+02  0.68637973335E+01  0.28242837009E+02  0.00000000000E+00 0.  1.
</event>
<event>
 7    1  0.3508738E-013  0.7246158E+02  0.7816164E-02  0.1226708E+00
        -11   -1    0    0    0    0  0.00000000000E+00  0.00000000000E+00  0.45593999997E+02  0.45594000000E+02  0.51100000000E-03 0. -1.
         11   -1    0    0    0    0 -0.00000000000E+00 -0.00000000000E+00 -0.45593999997E+02  0.45594000000E+02  0.51100000000E-03 0.  1.
    9900012    2    1    2    0    0 -0.48680908753E+01 -0.11455186540E+02  0.13991396935E+02  0.72461580277E+02  0.70000013005E+02 0.  0.
        -12    1    1    2    0    0  0.48680908753E+01  0.11455186540E+02 -0.13991396935E+02  0.18726419723E+02  0.00000000000E+00 0.  1.
         11    1    3    3    0    0  0.84031571464E+00 -0.21820006492E+02  0.16394778782E+02  0.27305815962E+02  0.51100000000E-03 0. -1.
        -11    1    3    3    0    0  0.44922237794E+01 -0.12233431190E+02 -0.12803275393E+02  0.18269120784E+02  0.51100000000E-03 0.  1.
         12    1    3    3    0    0 -0.10200630369E+02  0.22598251142E+02  0.10399893546E+02  0.26886643531E+02  0.00000000000E+00 0. -1.
</event>
<event>
 7    1  0.3508738E-013  0.7246153E+02  0.7816164E-02  0.1226708E+00
        -11   -1    0    0    0    0  0.00000000000E+00  0.00000000000E+00  0.45593999997E+02  0.45594000000E+02  0.51100000000E-03 0.  1.
         11   -1    0    0    0    0 -0.00000000000E+00 -0.00000000000E+00 -0.45593999997E+02  0.45594000000E+02  0.51100000000E-03 0. -1.
    9900012    2    1    2    0    0 -0.12814227654E+01 -0.36544594168E+01 -0.18321664298E+02  0.72461534754E+02  0.69999953702E+02 0.  0.
        -12    1    1    2    0    0  0.12814227654E+01  0.36544594168E+01  0.18321664298E+02  0.18726465246E+02  0.00000000000E+00 0.  1.
         11    1    3    3    0    0 -0.35872619741E+01  0.77374294717E+01  0.56735490941E+01  0.10243311129E+02  0.51100000000E-03 0. -1.
        -11    1    3    3    0    0 -0.20593948194E+01  0.20242921789E+02 -0.22373949208E+02  0.30242529540E+02  0.51100000000E-03 0.  1.
         12    1    3    3    0    0  0.43652340280E+01 -0.31634810677E+02 -0.16212641848E+01  0.31975694085E+02  0.00000000000E+00 0. -1.
</event>
<event>
 7    1  0.3508738E-013  0.7246152E+02  0.7816164E-02  0.1226708E+00
        -11   -1    0    0    0    0  0.00000000000E+00  0.00000000000E+00  0.45593999997E+02  0.45594000000E+02  0.51100000000E-03 0. -1.
         11   -1    0    0    0    0 -0.00000000000E+00 -0.00000000000E+00 -0.45593999997E+02  0.45594000000E+02  0.51100000000E-03 0.  1.
    9900012    2    1    2    0    0 -0.30361050684E+01  0.60103735491E+01  0.17473939777E+02  0.72461518870E+02  0.69999933010E+02 0.  0.
        -12    1    1    2    0    0  0.30361050684E+01 -0.60103735491E+01 -0.17473939777E+02  0.18726481130E+02  0.00000000000E+00 0.  1.
         11    1    3    3    0    0  0.41614826139E+01  0.21989150298E+00  0.24853383022E+02  0.25200336064E+02  0.51100000000E-03 0. -1.
        -11    1    3    3    0    0 -0.23775434963E+02 -0.66840591846E+01  0.13915987827E+01  0.24736299285E+02  0.51100000000E-03 0.  1.
        -12    1    3    3    0    0  0.16577847281E+02  0.12474541231E+02 -0.87710420276E+01  0.22524883521E+02  0.00000000000E+00 0.  1.
</event>
<event>
 7    1  0.3508738E-013  0.7246156E+02  0.7816164E-02  0.1226708E+00
        -11   -1    0    0    0    0  0.00000000000E+00  0.00000000000E+00  0.45593999997E+02  0.45594000000E+02  0.51100000000E-03 0. -1.
         11   -1    0    0    0    0 -0.00000000000E+00 -0.00000000000E+00 -0.45593999997E+02  0.45594000000E+02  0.51100000000E-03 0.  1.
    9900012    2    1    2    0    0  0.91821175195E+01  0.15169577545E+02  0.60209763727E+01  0.72461560896E+02  0.69999987757E+02 0.  0.
        -12    1    1    2    0    0 -0.91821175195E+01 -0.15169577545E+02 -0.60209763727E+01  0.18726439104E+02  0.00000000000E+00 0.  1.
         11    1    3    3    0    0  0.12069637676E+02  0.15848404575E+02  0.25403124037E+01  0.20082362126E+02  0.51100000000E-03 0. -1.
        -11    1    3    3    0    0  0.15171501516E+02 -0.19954188943E+02  0.62117221295E+01  0.25824980285E+02  0.51100000000E-03 0.  1.
         12    1    3    3    0    0 -0.18059021673E+02  0.19275361913E+02 -0.27310581605E+01  0.26554218485E+02  0.00000000000E+00 0. -1.
</event>
<event>
 7    1  0.3508738E-013  0.7246158E+02  0.7816164E-02  0.1226708E+00
        -11   -1    0    0    0    0  0.00000000000E+00  0.00000000000E+00  0.45593999997E+02  0.45594000000E+02  0.51100000000E-03 0. -1.
         11   -1    0    0    0    0 -0.00000000000E+00 -0.00000000000E+00 -0.45593999997E+02  0.45594000000E+02  0.51100000000E-03 0.  1.
    9900012    2    1    2    0    0  0.14604032176E+02 -0.11635532674E+02 -0.14196570536E+01  0.72461580092E+02  0.70000012763E+02 0.  0.
        -12    1    1    2    0    0 -0.14604032176E+02  0.11635532674E+02  0.14196570536E+01  0.18726419908E+02  0.00000000000E+00 0.  1.
         11    1    3    3    0    0 -0.40490124631E+01  0.68250897310E+00  0.24843409928E+01  0.47991948132E+01  0.51100000000E-03 0. -1.
        -11    1    3    3    0    0  0.75385152685E+01  0.22906385052E+02 -0.15832262983E+02  0.28847742374E+02  0.51100000000E-03 0.  1.
         12    1    3    3    0    0  0.11114529371E+02 -0.35224426700E+02  0.11928264937E+02  0.38814642905E+02  0.00000000000E+00 0. -1.
</event>
<event>
 7    1  0.3508738E-013  0.7246139E+02  0.7816164E-02  0.1226708E+00
        -11   -1    0    0    0    0  0.00000000000E+00  0.00000000000E+00  0.45593999997E+02  0.45594000000E+02  0.51100000000E-03 0. -1.
         11   -1    0    0    0    0 -0.00000000000E+00 -0.00000000000E+00 -0.45593999997E+02  0.45594000000E+02  0.51100000000E-03 0.  1.
    9900012    2    1    2    0    0 -0.10428460620E+02  0.14259984475E+02  0.62117596462E+01  0.72461390429E+02  0.69999765691E+02 0.  0.
        -12    1    1    2    0    0  0.10428460620E+02 -0.14259984475E+02 -0.62117596462E+01  0.18726609571E+02  0.00000000000E+00 0.  1.
         11    1    3    3    0    0 -0.22083924972E+02  0.13916099496E+02 -0.20846782314E+02  0.33405776454E+02  0.51100000000E-03 0. -1.
        -11    1    3    3    0    0  0.14687826462E+02  0.29120405821E+01  0.37842186601E+01  0.15444498621E+02  0.51100000000E-03 0.  1.
        -12    1    3    3    0    0 -0.30323621101E+01 -0.25681556029E+01  0.23274323300E+02  0.23611115354E+02  0.00000000000E+00 0.  1.
</event>
<event>
 7    1  0.3508738E-013  0.7246158E+02  0.7816164E-02  0.1226708E+00
        -11   -1    0    0    0    0  0.00000000000E+00  0.00000000000E+00  0.45593999997E+02  0.45594000000E+02  0.51100000000E-03 0. -1.
         11   -1    0    0    0    0 -0.00000000000E+00 -0.00000000000E+00 -0.45593999997E+02  0.45594000000E+02  0.51100000000E-03 0.  1.
    9900012    2    1    2    0    0  0.12259612310E+02 -0.24300051532E+01  0.13945456574E+02  0.72461580746E+02  0.70000013615E+02 0.  0.
        -12    1    1    2    0    0 -0.12259612310E+02  0.24300051532E+01 -0.13945456574E+02  0.18726419254E+02  0.00000000000E+00 0.  1.
         11    1    3    3    0    0  0.69240974389E+01 -0.13198046180E+02  0.29572745273E+02  0.33116141254E+02  0.51100000000E-03 0. -1.
        -11    1    3    3    0    0  0.14822444672E+02 -0.65937685665E+01 -0.85103000079E+01  0.18319603065E+02  0.51100000000E-03 0.  1.
        -12    1    3    3    0    0 -0.94869298008E+01  0.17361809593E+02 -0.71169886914E+01  0.21025836427E+02  0.00000000000E+00 0.  1.
</event>
<event>
 7    1  0.3508738E-013  0.7246153E+02  0.7816164E-02  0.1226708E+00
        -11   -1    0    0    0    0  0.00000000000E+00  0.00000000000E+00  0.45593999997E+02  0.45594000000E+02  0.51100000000E-03 0.  1.
         11   -1    0    0    0    0 -0.00000000000E+00 -0.00000000000E+00 -0.45593999997E+02  0.45594000000E+02  0.51100000000E-03 0. -1.
    9900012    2    1    2    0    0 -0.18072453794E+02 -0.35317773733E+01 -0.34049441919E+01  0.72461529897E+02  0.69999947375E+02 0.  0.
        -12    1    1    2    0    0  0.18072453794E+02  0.35317773733E+01  0.34049441919E+01  0.18726470103E+02  0.00000000000E+00 0.  1.
         11    1    3    3    0    0 -0.29336653009E+01 -0.17992307450E+01  0.52904535317E+01  0.63113011498E+01  0.51100000000E-03 0. -1.
        -11    1    3    3    0    0 -0.35313726664E+02 -0.15945142098E+02  0.29565103745E+01  0.38859333516E+02  0.51100000000E-03 0.  1.
         12    1    3    3    0    0  0.20174938171E+02  0.14212595470E+02 -0.11651908098E+02  0.27290895231E+02  0.00000000000E+00 0. -1.
</event>
<event>
 7    1  0.3508738E-013  0.7246154E+02  0.7816164E-02  0.1226708E+00
        -11   -1    0    0    0    0  0.00000000000E+00  0.00000000000E+00  0.45593999997E+02  0.45594000000E+02  0.51100000000E-03 0.  1.
         11   -1    0    0    0    0 -0.00000000000E+00 -0.00000000000E+00 -0.45593999997E+02  0.45594000000E+02  0.51100000000E-03 0. -1.
    9900012    2    1    2    0    0  0.92538503706E+01 -0.66957293511E+01 -0.14839598044E+02  0.72461542558E+02  0.69999963868E+02 0.  0.
        -12    1    1    2    0    0 -0.92538503706E+01  0.66957293511E+01  0.14839598044E+02  0.18726457442E+02  0.00000000000E+00 0.  1.
         11    1    3    3    0    0  0.78911151739E+00 -0.11771162146E+02 -0.19699319007E+01  0.11960919163E+02  0.51100000000E-03 0. -1.
        -11    1    3    3    0    0  0.97619067604E+01 -0.44882973325E+01  0.21912182437E+02  0.24404576947E+02  0.51100000000E-03 0.  1.
         12    1    3    3    0    0 -0.12971679072E+01  0.95637301278E+01 -0.34781848580E+02  0.36096046448E+02  0.00000000000E+00 0. -1.
</event>
<event>
 7    1  0.3508738E-013  0.7246109E+02  0.7816164E-02  0.1226709E+00
        -11   -1    0    0    0    0  0.00000000000E+00  0.00000000000E+00  0.45593999997E+02  0.45594000000E+02  0.51100000000E-03 0.  1.
         11   -1    0    0    0    0 -0.00000000000E+00 -0.00000000000E+00 -0.45593999997E+02  0.45594000000E+02  0.51100000000E-03 0. -1.
    9900012    2    1    2    0    0 -0.24584586793E+01 -0.18512502905E+02  0.13929770079E+01  0.72461089742E+02  0.69999373988E+02 0.  0.
        -12    1    1    2    0    0  0.24584586793E+01  0.18512502905E+02 -0.13929770079E+01  0.18726910258E+02  0.00000000000E+00 0.  1.
         11    1    3    3    0    0 -0.47699828116E+01 -0.27520570244E+02  0.31967379013E+01  0.28113229200E+02  0.51100000000E-03 0. -1.
        -11    1    3    3    0    0 -0.17771510567E+02  0.10235095479E+02  0.79408638965E+01  0.21991841373E+02  0.51100000000E-03 0.  1.
        -12    1    3    3    0    0  0.20083034699E+02 -0.12270281395E+01 -0.97446247899E+01  0.22356019169E+02  0.00000000000E+00 0.  1.
</event>
<event>
 7    1  0.3508738E-013  0.7246164E+02  0.7816164E-02  0.1226708E+00
        -11   -1    0    0    0    0  0.00000000000E+00  0.00000000000E+00  0.45593999997E+02  0.45594000000E+02  0.51100000000E-03 0.  1.
         11   -1    0    0    0    0 -0.00000000000E+00 -0.00000000000E+00 -0.45593999997E+02  0.45594000000E+02  0.51100000000E-03 0. -1.
    9900012    2    1    2    0    0 -0.11546417813E+02  0.15114571783E+01 -0.14665336868E+02  0.72461644974E+02  0.70000097284E+02 0.  0.
        -12    1    1    2    0    0  0.11546417813E+02 -0.15114571783E+01  0.14665336868E+02  0.18726355026E+02  0.00000000000E+00 0.  1.
         11    1    3    3    0    0 -0.28359040993E+01  0.10749200039E+02  0.12816481209E+02  0.16966138170E+02  0.51100000000E-03 0.  1.
        -11    1    3    3    0    0  0.18873654669E+02 -0.35364947928E+01 -0.61522145997E+01  0.20163615269E+02  0.51100000000E-03 0. -1.
         12    1    3    3    0    0 -0.27584168383E+02 -0.57012480682E+01 -0.21329603478E+02  0.35331891535E+02  0.00000000000E+00 0. -1.
</event>
<event>
 7    1  0.3508738E-013  0.7246160E+02  0.7816164E-02  0.1226708E+00
        -11   -1    0    0    0    0  0.00000000000E+00  0.00000000000E+00  0.45593999997E+02  0.45594000000E+02  0.51100000000E-03 0.  1.
         11   -1    0    0    0    0 -0.00000000000E+00 -0.00000000000E+00 -0.45593999997E+02  0.45594000000E+02  0.51100000000E-03 0. -1.
    9900012    2    1    2    0    0  0.73360123227E+01 -0.36787034263E+01 -0.16832347918E+02  0.72461604935E+02  0.70000045126E+02 0.  0.
        -12    1    1    2    0    0 -0.73360123227E+01  0.36787034263E+01  0.16832347918E+02  0.18726395065E+02  0.00000000000E+00 0.  1.
         11    1    3    3    0    0  0.68324304167E+00 -0.14168984664E+02  0.19462937055E+01  0.14318345117E+02  0.51100000000E-03 0. -1.
        -11    1    3    3    0    0 -0.52464461043E+01  0.23140584000E+02  0.90041612803E+01  0.25378864143E+02  0.51100000000E-03 0.  1.
         12    1    3    3    0    0  0.11899215385E+02 -0.12650302762E+02 -0.27782802904E+02  0.32764395675E+02  0.00000000000E+00 0. -1.
</event>
<event>
 7    1  0.3508738E-013  0.7246156E+02  0.7816164E-02  0.1226708E+00
        -11   -1    0    0    0    0  0.00000000000E+00  0.00000000000E+00  0.45593999997E+02  0.45594000000E+02  0.51100000000E-03 0.  1.
         11   -1    0    0    0    0 -0.00000000000E+00 -0.00000000000E+00 -0.45593999997E+02  0.45594000000E+02  0.51100000000E-03 0. -1.
    9900012    2    1    2    0    0  0.63935319422E+01 -0.98255348584E+01 -0.14603464601E+02  0.72461559754E+02  0.69999986269E+02 0.  0.
        -12    1    1    2    0    0 -0.63935319422E+01  0.98255348584E+01  0.14603464601E+02  0.18726440246E+02  0.00000000000E+00 0.  1.
         11    1    3    3    0    0 -0.10359805270E+02  0.22000902459E+01 -0.57707175310E+01  0.12060976055E+02  0.51100000000E-03 0. -1.
        -11    1    3    3    0    0 -0.80800278526E+01 -0.10118326042E+01 -0.26680884019E+02  0.27895881912E+02  0.51100000000E-03 0.  1.
         12    1    3    3    0    0  0.24833365065E+02 -0.11013792500E+02  0.17848136950E+02  0.32504701787E+02  0.00000000000E+00 0. -1.
</event>
<event>
 7    1  0.3508738E-013  0.7246155E+02  0.7816164E-02  0.1226708E+00
        -11   -1    0    0    0    0  0.00000000000E+00  0.00000000000E+00  0.45593999997E+02  0.45594000000E+02  0.51100000000E-03 0. -1.
         11   -1    0    0    0    0 -0.00000000000E+00 -0.00000000000E+00 -0.45593999997E+02  0.45594000000E+02  0.51100000000E-03 0.  1.
    9900012    2    1    2    0    0 -0.12479007990E+01 -0.10012836105E+02  0.15775479795E+02  0.72461550629E+02  0.69999974383E+02 0.  0.
        -12    1    1    2    0    0  0.12479007990E+01  0.10012836105E+02 -0.15775479795E+02  0.18726449371E+02  0.00000000000E+00 0.  1.
         11    1    3    3    0    0  0.10917543742E+02  0.68277854534E+01 -0.16391959608E+02  0.20844849619E+02  0.51100000000E-03 0. -1.
        -11    1    3    3    0    0 -0.11163402836E+02 -0.45006983766E+01 -0.45502872318E+01  0.12867904372E+02  0.51100000000E-03 0.  1.
         12    1    3    3    0    0 -0.10020417049E+01 -0.12339923182E+02  0.36717726635E+02  0.38748796639E+02  0.00000000000E+00 0. -1.
</event>
<event>
 7    1  0.3508738E-013  0.7246161E+02  0.7816164E-02  0.1226708E+00
        -11   -1    0    0    0    0  0.00000000000E+00  0.00000000000E+00  0.45593999997E+02  0.45594000000E+02  0.51100000000E-03 0.  1.
         11   -1    0    0    0    0 -0.00000000000E+00 -0.00000000000E+00 -0.45593999997E+02  0.45594000000E+02  0.51100000000E-03 0. -1.
    9900012    2    1    2    0    0  0.17275382182E+02 -0.61124555405E+01  0.38570170420E+01  0.72461614264E+02  0.70000057278E+02 0.  0.
        -12    1    1    2    0    0 -0.17275382182E+02  0.61124555405E+01 -0.38570170420E+01  0.18726385736E+02  0.00000000000E+00 0.  1.
         11    1    3    3    0    0 -0.27459733478E+00 -0.89654535911E+01  0.85138186130E+01  0.12366886004E+02  0.51100000000E-03 0. -1.
        -11    1    3    3    0    0 -0.13466603448E+02 -0.13818940965E+02 -0.13789532195E+02  0.23716317932E+02  0.51100000000E-03 0.  1.
         12    1    3    3    0    0  0.31016582965E+02  0.16671939015E+02  0.91327306241E+01  0.36378410329E+02  0.00000000000E+00 0. -1.
</event>
<event>
 7    1  0.3508738E-013  0.7246159E+02  0.7816164E-02  0.1226708E+00
        -11   -1    0    0    0    0  0.00000000000E+00  0.00000000000E+00  0.45593999997E+02  0.45594000000E+02  0.51100000000E-03 0.  1.
         11   -1    0    0    0    0 -0.00000000000E+00 -0.00000000000E+00 -0.45593999997E+02  0.45594000000E+02  0.51100000000E-03 0. -1.
    9900012    2    1    2    0    0  0.13517375400E+02  0.28601897895E+01 -0.12640347942E+02  0.72461587652E+02  0.70000022611E+02 0.  0.
        -12    1    1    2    0    0 -0.13517375400E+02 -0.28601897895E+01  0.12640347942E+02  0.18726412348E+02  0.00000000000E+00 0.  1.
         11    1    3    3    0    0  0.11470962443E+02  0.38972085915E+01  0.57299488185E+01  0.13401624077E+02  0.51100000000E-03 0. -1.
        -11    1    3    3    0    0  0.32968301146E+01 -0.21503674538E+01  0.20136090665E+02  0.20517195630E+02  0.51100000000E-03 0.  1.
        -12    1    3    3    0    0 -0.12504171569E+01  0.11133486517E+01 -0.38506387426E+02  0.38542767945E+02  0.00000000000E+00 0.  1.
</event>
<event>
 7    1  0.3508738E-013  0.7246157E+02  0.7816164E-02  0.1226708E+00
        -11   -1    0    0    0    0  0.00000000000E+00  0.00000000000E+00  0.45593999997E+02  0.45594000000E+02  0.51100000000E-03 0.  1.
         11   -1    0    0    0    0 -0.00000000000E+00 -0.00000000000E+00 -0.45593999997E+02  0.45594000000E+02  0.51100000000E-03 0. -1.
    9900012    2    1    2    0    0  0.10820419757E+02 -0.44237438042E+01 -0.14629698656E+02  0.72461572799E+02  0.70000003263E+02 0.  0.
        -12    1    1    2    0    0 -0.10820419757E+02  0.44237438042E+01  0.14629698656E+02  0.18726427201E+02  0.00000000000E+00 0.  1.
         11    1    3    3    0    0  0.30099333995E+02 -0.65965234474E+01 -0.61412329938E+00  0.30819817913E+02  0.51100000000E-03 0. -1.
        -11    1    3    3    0    0 -0.39766318576E+01 -0.13092801447E+01  0.11191322928E+02  0.11948787578E+02  0.51100000000E-03 0.  1.
        -12    1    3    3    0    0 -0.15302282380E+02  0.34820597879E+01 -0.25206898285E+02  0.29692967308E+02  0.00000000000E+00 0.  1.
</event>
<event>
 7    1  0.3508738E-013  0.7246145E+02  0.7816164E-02  0.1226708E+00
        -11   -1    0    0    0    0  0.00000000000E+00  0.00000000000E+00  0.45593999997E+02  0.45594000000E+02  0.51100000000E-03 0.  1.
         11   -1    0    0    0    0 -0.00000000000E+00 -0.00000000000E+00 -0.45593999997E+02  0.45594000000E+02  0.51100000000E-03 0. -1.
    9900012    2    1    2    0    0 -0.80731562167E+01 -0.50058563431E+01 -0.16138443011E+02  0.72461446878E+02  0.69999839227E+02 0.  0.
        -12    1    1    2    0    0  0.80731562167E+01  0.50058563431E+01  0.16138443011E+02  0.18726553122E+02  0.00000000000E+00 0.  1.
         11    1    3    3    0    0  0.13228990747E+02 -0.90883963143E+01 -0.85803706963E+01  0.18199667725E+02  0.51100000000E-03 0. -1.
        -11    1    3    3    0    0  0.75818476503E+01  0.68380932639E+01 -0.20183353224E+02  0.22618834649E+02  0.51100000000E-03 0.  1.
        -12    1    3    3    0    0 -0.28883994614E+02 -0.27555532927E+01  0.12625280909E+02  0.31642944504E+02  0.00000000000E+00 0.  1.
</event>
<event>
 7    1  0.3508738E-013  0.7246157E+02  0.7816164E-02  0.1226708E+00
        -11   -1    0    0    0    0  0.00000000000E+00  0.00000000000E+00  0.45593999997E+02  0.45594000000E+02  0.51100000000E-03 0.  1.
         11   -1    0    0    0    0 -0.00000000000E+00 -0.00000000000E+00 -0.45593999997E+02  0.45594000000E+02  0.51100000000E-03 0. -1.
    9900012    2    1    2    0    0 -0.14081799946E+01 -0.82468891185E+01 -0.16753653212E+02  0.72461573566E+02  0.70000004262E+02 0.  0.
        -12    1    1    2    0    0  0.14081799946E+01  0.82468891185E+01  0.16753653212E+02  0.18726426434E+02  0.00000000000E+00 0.  1.
         11    1    3    3    0    0  0.11155810118E+02  0.62205437621E+01 -0.10099592752E+02  0.16283397622E+02  0.51100000000E-03 0. -1.
        -11    1    3    3    0    0  0.15020012112E+02 -0.56598281258E+01  0.13438473189E+02  0.20933871600E+02  0.51100000000E-03 0.  1.
         12    1    3    3    0    0 -0.27584002225E+02 -0.88076047548E+01 -0.20092533649E+02  0.35244304344E+02  0.00000000000E+00 0. -1.
</event>
<event>
 7    1  0.3508738E-013  0.7246144E+02  0.7816164E-02  0.1226708E+00
        -11   -1    0    0    0    0  0.00000000000E+00  0.00000000000E+00  0.45593999997E+02  0.45594000000E+02  0.51100000000E-03 0.  1.
         11   -1    0    0    0    0 -0.00000000000E+00 -0.00000000000E+00 -0.45593999997E+02  0.45594000000E+02  0.51100000000E-03 0. -1.
    9900012    2    1    2    0    0 -0.17961787759E+02 -0.52569354001E+01  0.65021297563E+00  0.72461442222E+02  0.69999833162E+02 0.  0.
        -12    1    1    2    0    0  0.17961787759E+02  0.52569354001E+01 -0.65021297563E+00  0.18726557778E+02  0.00000000000E+00 0.  1.
         11    1    3    3    0    0 -0.56202544700E+01 -0.18038491389E+02 -0.15589947644E+02  0.24495324037E+02  0.51100000000E-03 0. -1.
        -11    1    3    3    0    0 -0.82702369017E+01  0.77927651709E+01 -0.13437444922E+02  0.17597980956E+02  0.51100000000E-03 0.  1.
        -12    1    3    3    0    0 -0.40712963872E+01  0.49887908180E+01  0.29677605541E+02  0.30368137229E+02  0.00000000000E+00 0.  1.
</event>
<event>
 7    1  0.3508738E-013  0.7246159E+02  0.7816164E-02  0.1226708E+00
        -11   -1    0    0    0    0  0.00000000000E+00  0.00000000000E+00  0.45593999997E+02  0.45594000000E+02  0.51100000000E-03 0.  1.
         11   -1    0    0    0    0 -0.00000000000E+00 -0.00000000000E+00 -0.45593999997E+02  0.45594000000E+02  0.51100000000E-03 0. -1.
    9900012    2    1    2    0    0 -0.11981542040E+02 -0.13481462097E+02  0.50370077544E+01  0.72461585045E+02  0.70000019216E+02 0.  0.
        -12    1    1    2    0    0  0.11981542040E+02  0.13481462097E+02 -0.50370077544E+01  0.18726414955E+02  0.00000000000E+00 0.  1.
         11    1    3    3    0    0 -0.20213912329E+02 -0.16354464880E+02 -0.13899540760E+02  0.29483351349E+02  0.51100000000E-03 0. -1.
        -11    1    3    3    0    0 -0.95109222936E+01 -0.11168040398E+02  0.12963163321E+02  0.19576168490E+02  0.51100000000E-03 0.  1.
         12    1    3    3    0    0  0.17743292582E+02  0.14041043180E+02  0.59733851940E+01  0.23402065207E+02  0.00000000000E+00 0. -1.
</event>
<event>
 7    1  0.3508738E-013  0.7246156E+02  0.7816164E-02  0.1226708E+00
        -11   -1    0    0    0    0  0.00000000000E+00  0.00000000000E+00  0.45593999997E+02  0.45594000000E+02  0.51100000000E-03 0.  1.
         11   -1    0    0    0    0 -0.00000000000E+00 -0.00000000000E+00 -0.45593999997E+02  0.45594000000E+02  0.51100000000E-03 0. -1.
    9900012    2    1    2    0    0  0.39581216882E+01  0.41575349881E+01 -0.17824919880E+02  0.72461558982E+02  0.69999985264E+02 0.  0.
        -12    1    1    2    0    0 -0.39581216882E+01 -0.41575349881E+01  0.17824919880E+02  0.18726441018E+02  0.00000000000E+00 0.  1.
         11    1    3    3    0    0  0.63336780446E+01 -0.16820587249E+02 -0.19893397675E+02  0.26810350693E+02  0.51100000000E-03 0. -1.
        -11    1    3    3    0    0  0.18505669003E+02  0.92523162265E+01 -0.37000446254E+01  0.21017979715E+02  0.51100000000E-03 0.  1.
        -12    1    3    3    0    0 -0.20881225359E+02  0.11725806011E+02  0.57685224204E+01  0.24633228575E+02  0.00000000000E+00 0.  1.
</event>
<event>
 7    1  0.3508738E-013  0.7246156E+02  0.7816164E-02  0.1226708E+00
        -11   -1    0    0    0    0  0.00000000000E+00  0.00000000000E+00  0.45593999997E+02  0.45594000000E+02  0.51100000000E-03 0. -1.
         11   -1    0    0    0    0 -0.00000000000E+00 -0.00000000000E+00 -0.45593999997E+02  0.45594000000E+02  0.51100000000E-03 0.  1.
    9900012    2    1    2    0    0 -0.11479936583E+02 -0.11067817582E+02  0.98180408958E+01  0.72461562618E+02  0.69999990001E+02 0.  0.
        -12    1    1    2    0    0  0.11479936583E+02  0.11067817582E+02 -0.98180408958E+01  0.18726437382E+02  0.00000000000E+00 0.  1.
         11    1    3    3    0    0 -0.13878718250E+02 -0.24131054190E+02  0.25599676494E+02  0.37818911055E+02  0.51100000000E-03 0. -1.
        -11    1    3    3    0    0 -0.59745997998E+01 -0.66235397428E+01 -0.76658074667E+01  0.11761450840E+02  0.51100000000E-03 0.  1.
        -12    1    3    3    0    0  0.83733814669E+01  0.19686776350E+02 -0.81158281314E+01  0.22881200723E+02  0.00000000000E+00 0.  1.
</event>
<event>
 7    1  0.3508738E-013  0.7246156E+02  0.7816164E-02  0.1226708E+00
        -11   -1    0    0    0    0  0.00000000000E+00  0.00000000000E+00  0.45593999997E+02  0.45594000000E+02  0.51100000000E-03 0.  1.
         11   -1    0    0    0    0 -0.00000000000E+00 -0.00000000000E+00 -0.45593999997E+02  0.45594000000E+02  0.51100000000E-03 0. -1.
    9900012    2    1    2    0    0 -0.16918514985E+02 -0.64036863341E+00 -0.80020795117E+01  0.72461561529E+02  0.69999988582E+02 0.  0.
        -12    1    1    2    0    0  0.16918514985E+02  0.64036863341E+00  0.80020795117E+01  0.18726438471E+02  0.00000000000E+00 0.  1.
         11    1    3    3    0    0 -0.73961248429E+01  0.12119177039E+02  0.24535911833E+02  0.28347629258E+02  0.51100000000E-03 0. -1.
        -11    1    3    3    0    0  0.64044583296E+01 -0.11132473060E+01 -0.54147595021E+00  0.65230056359E+01  0.51100000000E-03 0.  1.
         12    1    3    3    0    0 -0.15926848472E+02 -0.11646298367E+02 -0.31996515395E+02  0.37590926635E+02  0.00000000000E+00 0. -1.
</event>
<event>
 7    1  0.3508738E-013  0.7246157E+02  0.7816164E-02  0.1226708E+00
        -11   -1    0    0    0    0  0.00000000000E+00  0.00000000000E+00  0.45593999997E+02  0.45594000000E+02  0.51100000000E-03 0. -1.
         11   -1    0    0    0    0 -0.00000000000E+00 -0.00000000000E+00 -0.45593999997E+02  0.45594000000E+02  0.51100000000E-03 0.  1.
    9900012    2    1    2    0    0  0.80112536014E+01 -0.67493731304E+01  0.15522403428E+02  0.72461568677E+02  0.69999997893E+02 0.  0.
        -12    1    1    2    0    0 -0.80112536014E+01  0.67493731304E+01 -0.15522403428E+02  0.18726431323E+02  0.00000000000E+00 0.  1.
         11    1    3    3    0    0 -0.99084011851E+01  0.19709015583E+02  0.90185341494E+01  0.23831820487E+02  0.51100000000E-03 0. -1.
        -11    1    3    3    0    0 -0.25149190370E+01  0.72747812592E+01 -0.26517298315E+01  0.81411873515E+01  0.51100000000E-03 0.  1.
         12    1    3    3    0    0  0.20434573824E+02 -0.33733169972E+02  0.91555991096E+01  0.40488560838E+02  0.00000000000E+00 0. -1.
</event>
<event>
 7    1  0.3508738E-013  0.7246158E+02  0.7816164E-02  0.1226708E+00
        -11   -1    0    0    0    0  0.00000000000E+00  0.00000000000E+00  0.45593999997E+02  0.45594000000E+02  0.51100000000E-03 0.  1.
         11   -1    0    0    0    0 -0.00000000000E+00 -0.00000000000E+00 -0.45593999997E+02  0.45594000000E+02  0.51100000000E-03 0. -1.
    9900012    2    1    2    0    0  0.22395955123E+01  0.92605393078E+01 -0.16121583215E+02  0.72461579582E+02  0.70000012098E+02 0.  0.
        -12    1    1    2    0    0 -0.22395955123E+01 -0.92605393078E+01  0.16121583215E+02  0.18726420418E+02  0.00000000000E+00 0.  1.
         11    1    3    3    0    0 -0.21617709634E+01  0.18398430464E+01  0.69261410356E+01  0.74852993287E+01  0.51100000000E-03 0.  1.
        -11    1    3    3    0    0 -0.76871677492E+01 -0.24990613879E+02 -0.92611026344E+01  0.27737904613E+02  0.51100000000E-03 0. -1.
        -12    1    3    3    0    0  0.12088534225E+02  0.32411310140E+02 -0.13786621616E+02  0.37238375640E+02  0.00000000000E+00 0.  1.
</event>
<event>
 7    1  0.3508738E-013  0.7246162E+02  0.7816164E-02  0.1226708E+00
        -11   -1    0    0    0    0  0.00000000000E+00  0.00000000000E+00  0.45593999997E+02  0.45594000000E+02  0.51100000000E-03 0. -1.
         11   -1    0    0    0    0 -0.00000000000E+00 -0.00000000000E+00 -0.45593999997E+02  0.45594000000E+02  0.51100000000E-03 0.  1.
    9900012    2    1    2    0    0 -0.10951496025E+02 -0.58222555777E+01  0.14030090277E+02  0.72461618652E+02  0.70000062995E+02 0.  0.
        -12    1    1    2    0    0  0.10951496025E+02  0.58222555777E+01 -0.14030090277E+02  0.18726381348E+02  0.00000000000E+00 0.  1.
         11    1    3    3    0    0  0.53390770530E+00 -0.36351190526E+01  0.50578827799E+01  0.62515059338E+01  0.51100000000E-03 0. -1.
        -11    1    3    3    0    0 -0.38234552569E+02  0.27953320953E+01  0.39284143718E+01  0.38537349823E+02  0.51100000000E-03 0.  1.
         12    1    3    3    0    0  0.26749148838E+02 -0.49824686204E+01  0.50437931257E+01  0.27672762895E+02  0.00000000000E+00 0. -1.
</event>
<event>
 7    1  0.3508738E-013  0.7246149E+02  0.7816164E-02  0.1226708E+00
        -11   -1    0    0    0    0  0.00000000000E+00  0.00000000000E+00  0.45593999997E+02  0.45594000000E+02  0.51100000000E-03 0. -1.
         11   -1    0    0    0    0 -0.00000000000E+00 -0.00000000000E+00 -0.45593999997E+02  0.45594000000E+02  0.51100000000E-03 0.  1.
    9900012    2    1    2    0    0 -0.49216202876E+00  0.18713304987E+02 -0.50215116114E+00  0.72461490374E+02  0.69999895889E+02 0.  0.
        -12    1    1    2    0    0  0.49216202876E+00 -0.18713304987E+02  0.50215116114E+00  0.18726509626E+02  0.00000000000E+00 0.  1.
         11    1    3    3    0    0 -0.11521131604E+02  0.96425248578E+00  0.55929362557E+01  0.12843176886E+02  0.51100000000E-03 0. -1.
        -11    1    3    3    0    0 -0.74002381132E+01  0.25747306880E+02 -0.21460859419E+02  0.34325731208E+02  0.51100000000E-03 0.  1.
         12    1    3    3    0    0  0.18429207689E+02 -0.79982543792E+01  0.15365772002E+02  0.25292582280E+02  0.00000000000E+00 0. -1.
</event>
<event>
 7    1  0.3508738E-013  0.7246157E+02  0.7816164E-02  0.1226708E+00
        -11   -1    0    0    0    0  0.00000000000E+00  0.00000000000E+00  0.45593999997E+02  0.45594000000E+02  0.51100000000E-03 0.  1.
         11   -1    0    0    0    0 -0.00000000000E+00 -0.00000000000E+00 -0.45593999997E+02  0.45594000000E+02  0.51100000000E-03 0. -1.
    9900012    2    1    2    0    0 -0.15860951484E+01 -0.30546101809E+01 -0.18407415298E+02  0.72461567368E+02  0.69999996188E+02 0.  0.
        -12    1    1    2    0    0  0.15860951484E+01  0.30546101809E+01  0.18407415298E+02  0.18726432632E+02  0.00000000000E+00 0.  1.
         11    1    3    3    0    0  0.20187094029E+02 -0.43194298847E+01 -0.22594560674E+02  0.30605398416E+02  0.51100000000E-03 0. -1.
        -11    1    3    3    0    0  0.74173934753E+01 -0.78427331281E+01 -0.99998244819E+00  0.10840948023E+02  0.51100000000E-03 0.  1.
         12    1    3    3    0    0 -0.29190582653E+02  0.91075528319E+01  0.51871278247E+01  0.31015220929E+02  0.00000000000E+00 0. -1.
</event>
<event>
 7    1  0.3508738E-013  0.7246150E+02  0.7816164E-02  0.1226708E+00
        -11   -1    0    0    0    0  0.00000000000E+00  0.00000000000E+00  0.45593999997E+02  0.45594000000E+02  0.51100000000E-03 0. -1.
         11   -1    0    0    0    0 -0.00000000000E+00 -0.00000000000E+00 -0.45593999997E+02  0.45594000000E+02  0.51100000000E-03 0.  1.
    9900012    2    1    2    0    0 -0.10901486221E+02 -0.91211016072E+01  0.12192003073E+02  0.72461499118E+02  0.69999907279E+02 0.  0.
        -12    1    1    2    0    0  0.10901486221E+02  0.91211016072E+01 -0.12192003073E+02  0.18726500882E+02  0.00000000000E+00 0.  1.
         11    1    3    3    0    0  0.10965610173E+02  0.54662468564E+01 -0.39582886383E+01  0.12876044050E+02  0.51100000000E-03 0. -1.
        -11    1    3    3    0    0 -0.29449541448E+02 -0.28577385754E+02  0.14769865170E+02  0.43612972674E+02  0.51100000000E-03 0.  1.
         12    1    3    3    0    0  0.75824450537E+01  0.13990037291E+02  0.13804265417E+01  0.15972482394E+02  0.00000000000E+00 0. -1.
</event>
<event>
 7    1  0.3508738E-013  0.7246159E+02  0.7816164E-02  0.1226708E+00
        -11   -1    0    0    0    0  0.00000000000E+00  0.00000000000E+00  0.45593999997E+02  0.45594000000E+02  0.51100000000E-03 0. -1.
         11   -1    0    0    0    0 -0.00000000000E+00 -0.00000000000E+00 -0.45593999997E+02  0.45594000000E+02  0.51100000000E-03 0.  1.
    9900012    2    1    2    0    0 -0.77400560533E+00 -0.10716353429E+02  0.15337501037E+02  0.72461594751E+02  0.70000031860E+02 0.  0.
        -12    1    1    2    0    0  0.77400560533E+00  0.10716353429E+02 -0.15337501037E+02  0.18726405249E+02  0.00000000000E+00 0.  1.
         11    1    3    3    0    0 -0.23212882561E+02  0.69546153144E+01  0.41454278441E+01  0.24584327593E+02  0.51100000000E-03 0. -1.
        -11    1    3    3    0    0 -0.36547136156E+01 -0.61908481306E+01 -0.10028272542E+02  0.12338953871E+02  0.51100000000E-03 0.  1.
        -12    1    3    3    0    0  0.26093590571E+02 -0.11480120613E+02  0.21220345735E+02  0.35538313287E+02  0.00000000000E+00 0.  1.
</event>
<event>
 7    1  0.3508738E-013  0.7246161E+02  0.7816164E-02  0.1226708E+00
        -11   -1    0    0    0    0  0.00000000000E+00  0.00000000000E+00  0.45593999997E+02  0.45594000000E+02  0.51100000000E-03 0.  1.
         11   -1    0    0    0    0 -0.00000000000E+00 -0.00000000000E+00 -0.45593999997E+02  0.45594000000E+02  0.51100000000E-03 0. -1.
    9900012    2    1    2    0    0 -0.16897424697E+02  0.59826095191E+01 -0.54187722645E+01  0.72461610307E+02  0.70000052125E+02 0.  0.
        -12    1    1    2    0    0  0.16897424697E+02 -0.59826095191E+01  0.54187722645E+01  0.18726389693E+02  0.00000000000E+00 0.  1.
         11    1    3    3    0    0  0.17118105226E+02  0.67106040009E+01  0.17938258034E+02  0.25687406139E+02  0.51100000000E-03 0. -1.
        -11    1    3    3    0    0  0.31399270481E+01 -0.11349417285E+01 -0.24231402010E+01  0.41253900772E+01  0.51100000000E-03 0.  1.
        -12    1    3    3    0    0 -0.37155456971E+02  0.40694724668E+00 -0.20933890097E+02  0.42648814092E+02  0.00000000000E+00 0.  1.
</event>
<event>
 7    1  0.3508738E-013  0.7246181E+02  0.7816164E-02  0.1226707E+00
        -11   -1    0    0    0    0  0.00000000000E+00  0.00000000000E+00  0.45593999997E+02  0.45594000000E+02  0.51100000000E-03 0. -1.
         11   -1    0    0    0    0 -0.00000000000E+00 -0.00000000000E+00 -0.45593999997E+02  0.45594000000E+02  0.51100000000E-03 0.  1.
    9900012    2    1    2    0    0  0.12930629975E+02  0.25235932671E+01  0.13307909502E+02  0.72461810589E+02  0.70000313028E+02 0.  0.
        -12    1    1    2    0    0 -0.12930629975E+02 -0.25235932671E+01 -0.13307909502E+02  0.18726189411E+02  0.00000000000E+00 0.  1.
         11    1    3    3    0    0 -0.61103036313E+01  0.15146292063E+02  0.14612907939E+02  0.21915361106E+02  0.51100000000E-03 0. -1.
        -11    1    3    3    0    0 -0.20810458938E+01  0.15284689788E+02  0.10971595354E+01  0.15464677599E+02  0.51100000000E-03 0.  1.
         12    1    3    3    0    0  0.21121979500E+02 -0.27907388584E+02 -0.24021579723E+01  0.35081771884E+02  0.00000000000E+00 0. -1.
</event>
<event>
 7    1  0.3508738E-013  0.7246148E+02  0.7816164E-02  0.1226708E+00
        -11   -1    0    0    0    0  0.00000000000E+00  0.00000000000E+00  0.45593999997E+02  0.45594000000E+02  0.51100000000E-03 0.  1.
         11   -1    0    0    0    0 -0.00000000000E+00 -0.00000000000E+00 -0.45593999997E+02  0.45594000000E+02  0.51100000000E-03 0. -1.
    9900012    2    1    2    0    0 -0.10127752561E+02 -0.10082205795E+02 -0.12102071561E+02  0.72461484529E+02  0.69999888274E+02 0.  0.
        -12    1    1    2    0    0  0.10127752561E+02  0.10082205795E+02  0.12102071561E+02  0.18726515471E+02  0.00000000000E+00 0.  1.
         11    1    3    3    0    0  0.74023285565E+01 -0.26113437923E+01  0.52933738929E+01  0.94674913199E+01  0.51100000000E-03 0. -1.
        -11    1    3    3    0    0 -0.23620081678E+02  0.10957574717E+02  0.11273015187E+02  0.28373536506E+02  0.51100000000E-03 0.  1.
         12    1    3    3    0    0  0.60900005608E+01 -0.18428436721E+02 -0.28668460641E+02  0.34620456703E+02  0.00000000000E+00 0. -1.
</event>
<event>
 7    1  0.3508738E-013  0.7246157E+02  0.7816164E-02  0.1226708E+00
        -11   -1    0    0    0    0  0.00000000000E+00  0.00000000000E+00  0.45593999997E+02  0.45594000000E+02  0.51100000000E-03 0. -1.
         11   -1    0    0    0    0 -0.00000000000E+00 -0.00000000000E+00 -0.45593999997E+02  0.45594000000E+02  0.51100000000E-03 0.  1.
    9900012    2    1    2    0    0  0.74509126971E+01 -0.12089244842E+02  0.12207097655E+02  0.72461570175E+02  0.69999999844E+02 0.  0.
        -12    1    1    2    0    0 -0.74509126971E+01  0.12089244842E+02 -0.12207097655E+02  0.18726429825E+02  0.00000000000E+00 0.  1.
         11    1    3    3    0    0  0.95506883609E+01 -0.18377535472E+02  0.15972755593E+02  0.26154892079E+02  0.51100000000E-03 0. -1.
        -11    1    3    3    0    0  0.18591632466E+02 -0.81049208295E+01 -0.55836674440E+01  0.21036061461E+02  0.51100000000E-03 0.  1.
        -12    1    3    3    0    0 -0.20691408130E+02  0.14393211460E+02  0.18180095060E+01  0.25270616634E+02  0.00000000000E+00 0.  1.
</event>
<event>
 7    1  0.3508738E-013  0.7246160E+02  0.7816164E-02  0.1226708E+00
        -11   -1    0    0    0    0  0.00000000000E+00  0.00000000000E+00  0.45593999997E+02  0.45594000000E+02  0.51100000000E-03 0. -1.
         11   -1    0    0    0    0 -0.00000000000E+00 -0.00000000000E+00 -0.45593999997E+02  0.45594000000E+02  0.51100000000E-03 0.  1.
    9900012    2    1    2    0    0  0.13506598564E+02 -0.12188126087E+02  0.44383904290E+01  0.72461603340E+02  0.70000043048E+02 0.  0.
        -12    1    1    2    0    0 -0.13506598564E+02  0.12188126087E+02 -0.44383904290E+01  0.18726396660E+02  0.00000000000E+00 0.  1.
         11    1    3    3    0    0  0.23905911157E+02 -0.15967093014E+02  0.10989657597E+02  0.30776829302E+02  0.51100000000E-03 0. -1.
        -11    1    3    3    0    0 -0.54524669487E+01  0.15658967051E+02 -0.17990925716E+02  0.24466427065E+02  0.51100000000E-03 0.  1.
         12    1    3    3    0    0 -0.49468456442E+01 -0.11880000124E+02  0.11439658548E+02  0.17218346973E+02  0.00000000000E+00 0. -1.
</event>
<event>
 7    1  0.3508738E-013  0.7246160E+02  0.7816164E-02  0.1226708E+00
        -11   -1    0    0    0    0  0.00000000000E+00  0.00000000000E+00  0.45593999997E+02  0.45594000000E+02  0.51100000000E-03 0. -1.
         11   -1    0    0    0    0 -0.00000000000E+00 -0.00000000000E+00 -0.45593999997E+02  0.45594000000E+02  0.51100000000E-03 0.  1.
    9900012    2    1    2    0    0 -0.70972763770E+00 -0.17277454471E+02 -0.71877681024E+01  0.72461597340E+02  0.70000035232E+02 0.  0.
        -12    1    1    2    0    0  0.70972763770E+00  0.17277454471E+02  0.71877681024E+01  0.18726402660E+02  0.00000000000E+00 0.  1.
         11    1    3    3    0    0 -0.26086280349E+02 -0.10746115299E+02  0.19092541099E+02  0.34066084929E+02  0.51100000000E-03 0. -1.
        -11    1    3    3    0    0  0.66167738441E+00 -0.23880598845E+01 -0.67611340666E+00  0.25686137453E+01  0.51100000000E-03 0.  1.
        -12    1    3    3    0    0  0.24714875327E+02 -0.41432792869E+01 -0.25604195795E+02  0.35826898666E+02  0.00000000000E+00 0.  1.
</event>
<event>
 7    1  0.3508738E-013  0.7246161E+02  0.7816164E-02  0.1226708E+00
        -11   -1    0    0    0    0  0.00000000000E+00  0.00000000000E+00  0.45593999997E+02  0.45594000000E+02  0.51100000000E-03 0.  1.
         11   -1    0    0    0    0 -0.00000000000E+00 -0.00000000000E+00 -0.45593999997E+02  0.45594000000E+02  0.51100000000E-03 0. -1.
    9900012    2    1    2    0    0  0.16679335636E+01 -0.23356541623E+01 -0.18505144064E+02  0.72461611145E+02  0.70000053215E+02 0.  0.
        -12    1    1    2    0    0 -0.16679335636E+01  0.23356541623E+01  0.18505144064E+02  0.18726388855E+02  0.00000000000E+00 0.  1.
         11    1    3    3    0    0 -0.55059594198E+01  0.86922177047E+01 -0.28709487320E+02  0.30497621222E+02  0.51100000000E-03 0. -1.
        -11    1    3    3    0    0  0.59153142356E+01 -0.25400218412E+02  0.45795372110E+01  0.26478938785E+02  0.51100000000E-03 0.  1.
         12    1    3    3    0    0  0.12585787478E+01  0.14372346545E+02  0.56248060455E+01  0.15485051137E+02  0.00000000000E+00 0. -1.
</event>
<event>
 7    1  0.3508738E-013  0.7246161E+02  0.7816164E-02  0.1226708E+00
        -11   -1    0    0    0    0  0.00000000000E+00  0.00000000000E+00  0.45593999997E+02  0.45594000000E+02  0.51100000000E-03 0.  1.
         11   -1    0    0    0    0 -0.00000000000E+00 -0.00000000000E+00 -0.45593999997E+02  0.45594000000E+02  0.51100000000E-03 0. -1.
    9900012    2    1    2    0    0  0.10380844987E+02 -0.13017572220E+02 -0.85707970786E+01  0.72461609752E+02  0.70000051401E+02 0.  0.
        -12    1    1    2    0    0 -0.10380844987E+02  0.13017572220E+02  0.85707970786E+01  0.18726390248E+02  0.00000000000E+00 0.  1.
         11    1    3    3    0    0  0.74886642746E+01 -0.54576875198E+01 -0.29251737014E+01  0.97171542710E+01  0.51100000000E-03 0. -1.
        -11    1    3    3    0    0  0.17809703290E+02 -0.25559458664E+02  0.12073757736E+02  0.33410284115E+02  0.51100000000E-03 0.  1.
         12    1    3    3    0    0 -0.14917522578E+02  0.17999573963E+02 -0.17719381113E+02  0.29334171366E+02  0.00000000000E+00 0. -1.
</event>
<event>
 7    1  0.3508738E-013  0.7246161E+02  0.7816164E-02  0.1226708E+00
        -11   -1    0    0    0    0  0.00000000000E+00  0.00000000000E+00  0.45593999997E+02  0.45594000000E+02  0.51100000000E-03 0.  1.
         11   -1    0    0    0    0 -0.00000000000E+00 -0.00000000000E+00 -0.45593999997E+02  0.45594000000E+02  0.51100000000E-03 0. -1.
    9900012    2    1    2    0    0  0.54594253838E+01 -0.10621518326E+02  0.14424139429E+02  0.72461607520E+02  0.70000048493E+02 0.  0.
        -12    1    1    2    0    0 -0.54594253838E+01  0.10621518326E+02 -0.14424139429E+02  0.18726392480E+02  0.00000000000E+00 0.  1.
         11    1    3    3    0    0  0.12442811880E+02  0.87368106862E+01 -0.18107415408E+02  0.23643898187E+02  0.51100000000E-03 0.  1.
        -11    1    3    3    0    0 -0.12572584818E+02 -0.70407391983E+01  0.92621231799E+00  0.14439521009E+02  0.51100000000E-03 0. -1.
        -12    1    3    3    0    0  0.55891983217E+01 -0.12317589814E+02  0.31605342519E+02  0.34378188324E+02  0.00000000000E+00 0.  1.
</event>
<event>
 7    1  0.3508738E-013  0.7246164E+02  0.7816164E-02  0.1226708E+00
        -11   -1    0    0    0    0  0.00000000000E+00  0.00000000000E+00  0.45593999997E+02  0.45594000000E+02  0.51100000000E-03 0.  1.
         11   -1    0    0    0    0 -0.00000000000E+00 -0.00000000000E+00 -0.45593999997E+02  0.45594000000E+02  0.51100000000E-03 0. -1.
    9900012    2    1    2    0    0  0.90425442000E+01  0.16294475302E+02 -0.18436743163E+01  0.72461637140E+02  0.70000087079E+02 0.  0.
        -12    1    1    2    0    0 -0.90425442000E+01 -0.16294475302E+02  0.18436743163E+01  0.18726362860E+02  0.00000000000E+00 0.  1.
         11    1    3    3    0    0  0.16308960089E+02  0.12400932479E+02 -0.18177342899E+02  0.27389434107E+02  0.51100000000E-03 0. -1.
        -11    1    3    3    0    0  0.73320337551E+01  0.14766329974E+02 -0.48088616946E+01  0.17173478708E+02  0.51100000000E-03 0.  1.
        -12    1    3    3    0    0 -0.14598449644E+02 -0.10872787151E+02  0.21142530277E+02  0.27898724325E+02  0.00000000000E+00 0.  1.
</event>
<event>
 7    1  0.3508738E-013  0.7246147E+02  0.7816164E-02  0.1226708E+00
        -11   -1    0    0    0    0  0.00000000000E+00  0.00000000000E+00  0.45593999997E+02  0.45594000000E+02  0.51100000000E-03 0.  1.
         11   -1    0    0    0    0 -0.00000000000E+00 -0.00000000000E+00 -0.45593999997E+02  0.45594000000E+02  0.51100000000E-03 0. -1.
    9900012    2    1    2    0    0 -0.97582507318E+01  0.15396269611E+02 -0.42911932776E+01  0.72461470289E+02  0.69999869724E+02 0.  0.
        -12    1    1    2    0    0  0.97582507318E+01 -0.15396269611E+02  0.42911932776E+01  0.18726529711E+02  0.00000000000E+00 0.  1.
         11    1    3    3    0    0  0.68442583012E+01  0.68471254307E+00 -0.10543865879E+02  0.12589114778E+02  0.51100000000E-03 0. -1.
        -11    1    3    3    0    0 -0.11209972720E+02 -0.19280989994E+02 -0.63995048660E+01  0.23202881854E+02  0.51100000000E-03 0.  1.
        -12    1    3    3    0    0 -0.53925363125E+01  0.33992547062E+02  0.12652177467E+02  0.36669473657E+02  0.00000000000E+00 0.  1.
</event>
<event>
 7    1  0.3508738E-013  0.7246153E+02  0.7816164E-02  0.1226708E+00
        -11   -1    0    0    0    0  0.00000000000E+00  0.00000000000E+00  0.45593999997E+02  0.45594000000E+02  0.51100000000E-03 0. -1.
         11   -1    0    0    0    0 -0.00000000000E+00 -0.00000000000E+00 -0.45593999997E+02  0.45594000000E+02  0.51100000000E-03 0.  1.
    9900012    2    1    2    0    0  0.61258794754E+00 -0.29138396670E+01  0.18488233361E+02  0.72461534813E+02  0.69999953779E+02 0.  0.
        -12    1    1    2    0    0 -0.61258794754E+00  0.29138396670E+01 -0.18488233361E+02  0.18726465187E+02  0.00000000000E+00 0.  1.
         11    1    3    3    0    0  0.17722883122E+02  0.11037925289E+02  0.17740491851E+02  0.27398201259E+02  0.51100000000E-03 0. -1.
        -11    1    3    3    0    0  0.23041595016E+01  0.11520515250E+02 -0.45532607419E+01  0.12600143106E+02  0.51100000000E-03 0.  1.
         12    1    3    3    0    0 -0.19414454676E+02 -0.25472280206E+02  0.53010022513E+01  0.32463190449E+02  0.00000000000E+00 0. -1.
</event>
<event>
 7    1  0.3508738E-013  0.7246148E+02  0.7816164E-02  0.1226708E+00
        -11   -1    0    0    0    0  0.00000000000E+00  0.00000000000E+00  0.45593999997E+02  0.45594000000E+02  0.51100000000E-03 0.  1.
         11   -1    0    0    0    0 -0.00000000000E+00 -0.00000000000E+00 -0.45593999997E+02  0.45594000000E+02  0.51100000000E-03 0. -1.
    9900012    2    1    2    0    0 -0.17288712453E+01 -0.78727177460E+01 -0.16903074687E+02  0.72461478316E+02  0.69999880181E+02 0.  0.
        -12    1    1    2    0    0  0.17288712453E+01  0.78727177460E+01  0.16903074687E+02  0.18726521684E+02  0.00000000000E+00 0.  1.
         11    1    3    3    0    0 -0.19259819710E+00 -0.13758022057E+02 -0.20115218083E+02  0.24370930712E+02  0.51100000000E-03 0. -1.
        -11    1    3    3    0    0 -0.52882152559E+01  0.11486469728E+01 -0.21747089516E+02  0.22410276954E+02  0.51100000000E-03 0.  1.
        -12    1    3    3    0    0  0.37519422077E+01  0.47366573379E+01  0.24959232912E+02  0.25680270650E+02  0.00000000000E+00 0.  1.
</event>
<event>
 7    1  0.3508738E-013  0.7246158E+02  0.7816164E-02  0.1226708E+00
        -11   -1    0    0    0    0  0.00000000000E+00  0.00000000000E+00  0.45593999997E+02  0.45594000000E+02  0.51100000000E-03 0.  1.
         11   -1    0    0    0    0 -0.00000000000E+00 -0.00000000000E+00 -0.45593999997E+02  0.45594000000E+02  0.51100000000E-03 0. -1.
    9900012    2    1    2    0    0 -0.17027320408E+02  0.77940217696E+01 -0.50123014849E-01  0.72461576745E+02  0.70000008403E+02 0.  0.
        -12    1    1    2    0    0  0.17027320408E+02 -0.77940217696E+01  0.50123014849E-01  0.18726423255E+02  0.00000000000E+00 0.  1.
         11    1    3    3    0    0 -0.18343886306E+01  0.26241848782E+02 -0.79686154017E+01  0.27486331891E+02  0.51100000000E-03 0. -1.
        -11    1    3    3    0    0  0.22557213311E+01 -0.12158002549E+02 -0.12367024994E+02  0.17488528016E+02  0.51100000000E-03 0.  1.
         12    1    3    3    0    0 -0.17448653109E+02 -0.62898244630E+01  0.20285517381E+02  0.27486716837E+02  0.00000000000E+00 0. -1.
</event>
<event>
 7    1  0.3508738E-013  0.7246154E+02  0.7816164E-02  0.1226708E+00
        -11   -1    0    0    0    0  0.00000000000E+00  0.00000000000E+00  0.45593999997E+02  0.45594000000E+02  0.51100000000E-03 0.  1.
         11   -1    0    0    0    0 -0.00000000000E+00 -0.00000000000E+00 -0.45593999997E+02  0.45594000000E+02  0.51100000000E-03 0. -1.
    9900012    2    1    2    0    0  0.17440875476E+02 -0.14790272504E+01 -0.66564675303E+01  0.72461542274E+02  0.69999963499E+02 0.  0.
        -12    1    1    2    0    0 -0.17440875476E+02  0.14790272504E+01  0.66564675303E+01  0.18726457726E+02  0.00000000000E+00 0.  1.
         11    1    3    3    0    0  0.34701740347E+02 -0.15037276317E+02  0.44399223748E+00  0.37822316051E+02  0.51100000000E-03 0. -1.
        -11    1    3    3    0    0 -0.85348719128E+01 -0.27481037301E+00 -0.14390017583E+02  0.16732966432E+02  0.51100000000E-03 0.  1.
        -12    1    3    3    0    0 -0.87259929582E+01  0.13833059440E+02  0.72895578153E+01  0.17906259791E+02  0.00000000000E+00 0.  1.
</event>
<event>
 7    1  0.3508738E-013  0.7246156E+02  0.7816164E-02  0.1226708E+00
        -11   -1    0    0    0    0  0.00000000000E+00  0.00000000000E+00  0.45593999997E+02  0.45594000000E+02  0.51100000000E-03 0. -1.
         11   -1    0    0    0    0 -0.00000000000E+00 -0.00000000000E+00 -0.45593999997E+02  0.45594000000E+02  0.51100000000E-03 0.  1.
    9900012    2    1    2    0    0 -0.18696874823E+02  0.74458879356E+00  0.74289735122E+00  0.72461563150E+02  0.69999990693E+02 0.  0.
        -12    1    1    2    0    0  0.18696874823E+02 -0.74458879356E+00 -0.74289735122E+00  0.18726436850E+02  0.00000000000E+00 0.  1.
         11    1    3    3    0    0  0.13696144618E+02 -0.17423640309E+02  0.36650115470E+01  0.22463301826E+02  0.51100000000E-03 0. -1.
        -11    1    3    3    0    0 -0.22841646166E+02 -0.54344835247E+01  0.35002845198E+01  0.23738711059E+02  0.51100000000E-03 0.  1.
         12    1    3    3    0    0 -0.95513732753E+01  0.23602712628E+02 -0.64223987156E+01  0.26259550264E+02  0.00000000000E+00 0. -1.
</event>
<event>
 7    1  0.3508738E-013  0.7246158E+02  0.7816164E-02  0.1226708E+00
        -11   -1    0    0    0    0  0.00000000000E+00  0.00000000000E+00  0.45593999997E+02  0.45594000000E+02  0.51100000000E-03 0. -1.
         11   -1    0    0    0    0 -0.00000000000E+00 -0.00000000000E+00 -0.45593999997E+02  0.45594000000E+02  0.51100000000E-03 0.  1.
    9900012    2    1    2    0    0  0.13875329058E+02 -0.48972896635E+01  0.11583210358E+02  0.72461575763E+02  0.70000007124E+02 0.  0.
        -12    1    1    2    0    0 -0.13875329058E+02  0.48972896635E+01 -0.11583210358E+02  0.18726424237E+02  0.00000000000E+00 0.  1.
         11    1    3    3    0    0 -0.49945520637E+01 -0.27194273699E+02  0.23378201676E+02  0.36207932642E+02  0.51100000000E-03 0. -1.
        -11    1    3    3    0    0  0.35777088303E+01 -0.17760067104E+01 -0.59102372098E+01  0.71333795951E+01  0.51100000000E-03 0.  1.
        -12    1    3    3    0    0  0.15292172291E+02  0.24072990746E+02 -0.58847541085E+01  0.29120263525E+02  0.00000000000E+00 0.  1.
</event>
<event>
 7    1  0.3508738E-013  0.7246159E+02  0.7816164E-02  0.1226708E+00
        -11   -1    0    0    0    0  0.00000000000E+00  0.00000000000E+00  0.45593999997E+02  0.45594000000E+02  0.51100000000E-03 0.  1.
         11   -1    0    0    0    0 -0.00000000000E+00 -0.00000000000E+00 -0.45593999997E+02  0.45594000000E+02  0.51100000000E-03 0. -1.
    9900012    2    1    2    0    0  0.18168000636E+02 -0.37699497763E+01  0.25278078911E+01  0.72461586004E+02  0.70000020464E+02 0.  0.
        -12    1    1    2    0    0 -0.18168000636E+02  0.37699497763E+01 -0.25278078911E+01  0.18726413996E+02  0.00000000000E+00 0.  1.
         11    1    3    3    0    0  0.16384571450E+02 -0.71458648171E+01 -0.23853454762E+01  0.18033508779E+02  0.51100000000E-03 0. -1.
        -11    1    3    3    0    0  0.58632101798E+01 -0.18708656955E+02  0.19497035352E+02  0.27650053643E+02  0.51100000000E-03 0.  1.
         12    1    3    3    0    0 -0.40797809939E+01  0.22084571996E+02 -0.14583881984E+02  0.26778023582E+02  0.00000000000E+00 0. -1.
</event>
<event>
 7    1  0.3833050E-013  0.7246155E+02  0.7816164E-02  0.1226708E+00
        -11   -1    0    0    0    0  0.00000000000E+00  0.00000000000E+00  0.45593999997E+02  0.45594000000E+02  0.51100000000E-03 0. -1.
         11   -1    0    0    0    0 -0.00000000000E+00 -0.00000000000E+00 -0.45593999997E+02  0.45594000000E+02  0.51100000000E-03 0.  1.
    9900012    2    1    2    0    0  0.13142423044E+02  0.87388292937E+01  0.10079170565E+02  0.72461545446E+02  0.69999967630E+02 0.  0.
        -12    1    1    2    0    0 -0.13142423044E+02 -0.87388292937E+01 -0.10079170565E+02  0.18726454554E+02  0.00000000000E+00 0.  1.
         11    1    3    3    0    0  0.91991791468E+01  0.28010354845E+02  0.10620483004E+02  0.31336871813E+02  0.51100000000E-03 0. -1.
        -11    1    3    3    0    0 -0.74543156307E+01  0.51916893678E+01  0.87197831034E+01  0.12591865535E+02  0.51100000000E-03 0.  1.
        -12    1    3    3    0    0  0.11397559528E+02 -0.24463214919E+02 -0.92610955429E+01  0.28532808099E+02  0.00000000000E+00 0.  1.
</event>
<event>
 7    1  0.3508738E-013  0.7246156E+02  0.7816164E-02  0.1226708E+00
        -11   -1    0    0    0    0  0.00000000000E+00  0.00000000000E+00  0.45593999997E+02  0.45594000000E+02  0.51100000000E-03 0.  1.
         11   -1    0    0    0    0 -0.00000000000E+00 -0.00000000000E+00 -0.45593999997E+02  0.45594000000E+02  0.51100000000E-03 0. -1.
    9900012    2    1    2    0    0  0.75952601783E+01  0.15297449357E+02  0.76798250528E+01  0.72461557550E+02  0.69999983398E+02 0.  0.
        -12    1    1    2    0    0 -0.75952601783E+01 -0.15297449357E+02 -0.76798250528E+01  0.18726442450E+02  0.00000000000E+00 0.  1.
         11    1    3    3    0    0  0.64241406230E+01  0.10928282321E+02 -0.10694053670E+02  0.16584924522E+02  0.51100000000E-03 0. -1.
        -11    1    3    3    0    0  0.25385239682E+02  0.24648874668E+01  0.18633627507E+02  0.31586360003E+02  0.51100000000E-03 0.  1.
        -12    1    3    3    0    0 -0.24214120127E+02  0.19042795684E+01 -0.25974878385E+00  0.24290273025E+02  0.00000000000E+00 0.  1.
</event>
<event>
 7    1  0.3508738E-013  0.7246154E+02  0.7816164E-02  0.1226708E+00
        -11   -1    0    0    0    0  0.00000000000E+00  0.00000000000E+00  0.45593999997E+02  0.45594000000E+02  0.51100000000E-03 0. -1.
         11   -1    0    0    0    0 -0.00000000000E+00 -0.00000000000E+00 -0.45593999997E+02  0.45594000000E+02  0.51100000000E-03 0.  1.
    9900012    2    1    2    0    0 -0.71603942870E+01  0.14424224778E+01  0.17243219329E+02  0.72461536324E+02  0.69999955748E+02 0.  0.
        -12    1    1    2    0    0  0.71603942870E+01 -0.14424224778E+01 -0.17243219329E+02  0.18726463676E+02  0.00000000000E+00 0.  1.
         11    1    3    3    0    0 -0.37153700316E+01 -0.40548737423E+00 -0.34617366562E-01  0.37375918859E+01  0.51100000000E-03 0. -1.
        -11    1    3    3    0    0  0.53557615687E+01  0.12903921132E+02 -0.22514396281E+02  0.26497045170E+02  0.51100000000E-03 0.  1.
         12    1    3    3    0    0 -0.88007858240E+01 -0.11056011280E+02  0.39792232977E+02  0.42226899269E+02  0.00000000000E+00 0. -1.
</event>
<event>
 7    1  0.3508738E-013  0.7246157E+02  0.7816164E-02  0.1226708E+00
        -11   -1    0    0    0    0  0.00000000000E+00  0.00000000000E+00  0.45593999997E+02  0.45594000000E+02  0.51100000000E-03 0.  1.
         11   -1    0    0    0    0 -0.00000000000E+00 -0.00000000000E+00 -0.45593999997E+02  0.45594000000E+02  0.51100000000E-03 0. -1.
    9900012    2    1    2    0    0  0.10878066068E+02  0.67453843973E+01 -0.13669190352E+02  0.72461566893E+02  0.69999995569E+02 0.  0.
        -12    1    1    2    0    0 -0.10878066068E+02 -0.67453843973E+01  0.13669190352E+02  0.18726433107E+02  0.00000000000E+00 0.  1.
         11    1    3    3    0    0  0.63017266326E+01  0.26541008092E+02 -0.21788820805E+02  0.34912599179E+02  0.51100000000E-03 0. -1.
        -11    1    3    3    0    0 -0.37866581073E+01  0.33464354826E+01  0.11641869971E+02  0.12691357167E+02  0.51100000000E-03 0.  1.
        -12    1    3    3    0    0  0.83629975424E+01 -0.23142059177E+02 -0.35222395176E+01  0.24857610546E+02  0.00000000000E+00 0.  1.
</event>
<event>
 7    1  0.3508738E-013  0.7246196E+02  0.7816164E-02  0.1226707E+00
        -11   -1    0    0    0    0  0.00000000000E+00  0.00000000000E+00  0.45593999997E+02  0.45594000000E+02  0.51100000000E-03 0.  1.
         11   -1    0    0    0    0 -0.00000000000E+00 -0.00000000000E+00 -0.45593999997E+02  0.45594000000E+02  0.51100000000E-03 0. -1.
    9900012    2    1    2    0    0  0.10792173674E+02  0.95920867156E+01  0.11924146472E+02  0.72461964401E+02  0.70000513395E+02 0.  0.
        -12    1    1    2    0    0 -0.10792173674E+02 -0.95920867156E+01 -0.11924146472E+02  0.18726035599E+02  0.00000000000E+00 0.  1.
         11    1    3    3    0    0 -0.79831651223E+00  0.19164643010E+01 -0.91878813696E+00  0.22703119989E+01  0.51100000000E-03 0. -1.
        -11    1    3    3    0    0  0.14014434588E+02  0.28342009882E+02  0.29725072529E+02  0.43396472646E+02  0.51100000000E-03 0.  1.
         12    1    3    3    0    0 -0.24239444021E+01 -0.20666387467E+02 -0.16882137920E+02  0.26795179756E+02  0.00000000000E+00 0. -1.
</event>
<event>
 7    1  0.3508738E-013  0.7246151E+02  0.7816164E-02  0.1226708E+00
        -11   -1    0    0    0    0  0.00000000000E+00  0.00000000000E+00  0.45593999997E+02  0.45594000000E+02  0.51100000000E-03 0.  1.
         11   -1    0    0    0    0 -0.00000000000E+00 -0.00000000000E+00 -0.45593999997E+02  0.45594000000E+02  0.51100000000E-03 0. -1.
    9900012    2    1    2    0    0  0.14231634836E+02  0.69501243496E+01 -0.99918762101E+01  0.72461514777E+02  0.69999927679E+02 0.  0.
        -12    1    1    2    0    0 -0.14231634836E+02 -0.69501243496E+01  0.99918762101E+01  0.18726485223E+02  0.00000000000E+00 0.  1.
         11    1    3    3    0    0 -0.13343920656E+02  0.72422525267E+01 -0.63253080610E+01  0.16447491069E+02  0.51100000000E-03 0. -1.
        -11    1    3    3    0    0 -0.72926048516E+01  0.89560733207E+01  0.12026828234E+02  0.16674469481E+02  0.51100000000E-03 0.  1.
        -12    1    3    3    0    0  0.34868160344E+02 -0.92482014978E+01 -0.15693396383E+02  0.39339554227E+02  0.00000000000E+00 0.  1.
</event>
<event>
 7    1  0.3508738E-013  0.7246157E+02  0.7816164E-02  0.1226708E+00
        -11   -1    0    0    0    0  0.00000000000E+00  0.00000000000E+00  0.45593999997E+02  0.45594000000E+02  0.51100000000E-03 0.  1.
         11   -1    0    0    0    0 -0.00000000000E+00 -0.00000000000E+00 -0.45593999997E+02  0.45594000000E+02  0.51100000000E-03 0. -1.
    9900012    2    1    2    0    0  0.11280207145E+02 -0.70415427658E+01 -0.13185318718E+02  0.72461574087E+02  0.70000004941E+02 0.  0.
        -12    1    1    2    0    0 -0.11280207145E+02  0.70415427658E+01  0.13185318718E+02  0.18726425913E+02  0.00000000000E+00 0.  1.
         11    1    3    3    0    0 -0.70392572961E+01 -0.11566846520E+02 -0.82493876248E+01  0.15855455785E+02  0.51100000000E-03 0. -1.
        -11    1    3    3    0    0  0.11232725358E+02 -0.19166907137E+02 -0.18041288004E+02  0.28618744229E+02  0.51100000000E-03 0.  1.
        -12    1    3    3    0    0  0.70867390835E+01  0.23692210891E+02  0.13105356911E+02  0.27987374073E+02  0.00000000000E+00 0.  1.
</event>
<event>
 7    1  0.3508738E-013  0.7246160E+02  0.7816164E-02  0.1226708E+00
        -11   -1    0    0    0    0  0.00000000000E+00  0.00000000000E+00  0.45593999997E+02  0.45594000000E+02  0.51100000000E-03 0. -1.
         11   -1    0    0    0    0 -0.00000000000E+00 -0.00000000000E+00 -0.45593999997E+02  0.45594000000E+02  0.51100000000E-03 0.  1.
    9900012    2    1    2    0    0  0.18485744872E+02  0.16480404700E+01  0.24978293915E+01  0.72461602788E+02  0.70000042329E+02 0.  0.
        -12    1    1    2    0    0 -0.18485744872E+02 -0.16480404700E+01 -0.24978293915E+01  0.18726397212E+02  0.00000000000E+00 0.  1.
         11    1    3    3    0    0  0.15432353932E+02  0.63725055560E+01 -0.23543026329E+01  0.16861468385E+02  0.51100000000E-03 0. -1.
        -11    1    3    3    0    0 -0.78190020405E+01 -0.86169157581E+01 -0.22819880532E+02  0.25615131814E+02  0.51100000000E-03 0.  1.
         12    1    3    3    0    0  0.10872392980E+02  0.38924506721E+01  0.27672012556E+02  0.29985002589E+02  0.00000000000E+00 0. -1.
</event>
<event>
 7    1  0.3508738E-013  0.7246156E+02  0.7816164E-02  0.1226708E+00
        -11   -1    0    0    0    0  0.00000000000E+00  0.00000000000E+00  0.45593999997E+02  0.45594000000E+02  0.51100000000E-03 0. -1.
         11   -1    0    0    0    0 -0.00000000000E+00 -0.00000000000E+00 -0.45593999997E+02  0.45594000000E+02  0.51100000000E-03 0.  1.
    9900012    2    1    2    0    0  0.82071232668E+00 -0.14367072890E+02  0.11983033831E+02  0.72461562753E+02  0.69999990177E+02 0.  0.
        -12    1    1    2    0    0 -0.82071232668E+00  0.14367072890E+02 -0.11983033831E+02  0.18726437247E+02  0.00000000000E+00 0.  1.
         11    1    3    3    0    0 -0.25284672450E+02 -0.11919319515E+02 -0.16774935850E+01  0.28003550196E+02  0.51100000000E-03 0. -1.
        -11    1    3    3    0    0  0.43593185309E+01  0.13878266303E+02  0.82803582539E+01  0.16738406934E+02  0.51100000000E-03 0.  1.
        -12    1    3    3    0    0  0.21746066246E+02 -0.16326019678E+02  0.53801691620E+01  0.27719605623E+02  0.00000000000E+00 0.  1.
</event>
<event>
 7    1  0.3508738E-013  0.7246160E+02  0.7816164E-02  0.1226708E+00
        -11   -1    0    0    0    0  0.00000000000E+00  0.00000000000E+00  0.45593999997E+02  0.45594000000E+02  0.51100000000E-03 0.  1.
         11   -1    0    0    0    0 -0.00000000000E+00 -0.00000000000E+00 -0.45593999997E+02  0.45594000000E+02  0.51100000000E-03 0. -1.
    9900012    2    1    2    0    0 -0.12626719560E+02 -0.22664425668E+01 -0.13642114694E+02  0.72461598795E+02  0.70000037128E+02 0.  0.
        -12    1    1    2    0    0  0.12626719560E+02  0.22664425668E+01  0.13642114694E+02  0.18726401205E+02  0.00000000000E+00 0.  1.
         11    1    3    3    0    0  0.58508439250E+01  0.15973685256E+02  0.57043578924E+01  0.17942427219E+02  0.51100000000E-03 0. -1.
        -11    1    3    3    0    0  0.14172589331E+02 -0.75731194017E+01 -0.25017207217E+01  0.16262626868E+02  0.51100000000E-03 0.  1.
        -12    1    3    3    0    0 -0.32650152816E+02 -0.10667008421E+02 -0.16844751865E+02  0.38256544708E+02  0.00000000000E+00 0.  1.
</event>
<event>
 7    1  0.3508738E-013  0.7246159E+02  0.7816164E-02  0.1226708E+00
        -11   -1    0    0    0    0  0.00000000000E+00  0.00000000000E+00  0.45593999997E+02  0.45594000000E+02  0.51100000000E-03 0.  1.
         11   -1    0    0    0    0 -0.00000000000E+00 -0.00000000000E+00 -0.45593999997E+02  0.45594000000E+02  0.51100000000E-03 0. -1.
    9900012    2    1    2    0    0  0.45652256770E+01  0.92717167462E+01 -0.15616420610E+02  0.72461585245E+02  0.70000019476E+02 0.  0.
        -12    1    1    2    0    0 -0.45652256770E+01 -0.92717167462E+01  0.15616420610E+02  0.18726414755E+02  0.00000000000E+00 0.  1.
         11    1    3    3    0    0  0.47569364534E+01  0.13131682969E+02 -0.10636323990E+01  0.14007171598E+02  0.51100000000E-03 0. -1.
        -11    1    3    3    0    0 -0.11366988290E+02  0.10914037139E+02  0.16170228017E+02  0.22578771088E+02  0.51100000000E-03 0.  1.
         12    1    3    3    0    0  0.11175277513E+02 -0.14774003362E+02 -0.30723016229E+02  0.35875642559E+02  0.00000000000E+00 0. -1.
</event>
<event>
 7    1  0.3508738E-013  0.7246158E+02  0.7816164E-02  0.1226708E+00
        -11   -1    0    0    0    0  0.00000000000E+00  0.00000000000E+00  0.45593999997E+02  0.45594000000E+02  0.51100000000E-03 0. -1.
         11   -1    0    0    0    0 -0.00000000000E+00 -0.00000000000E+00 -0.45593999997E+02  0.45594000000E+02  0.51100000000E-03 0.  1.
    9900012    2    1    2    0    0 -0.17470155435E+01  0.44866042550E+01  0.18096886493E+02  0.72461575307E+02  0.70000006530E+02 0.  0.
        -12    1    1    2    0    0  0.17470155435E+01 -0.44866042550E+01 -0.18096886493E+02  0.18726424693E+02  0.00000000000E+00 0.  1.
         11    1    3    3    0    0 -0.33547858493E+01  0.84386287804E+01  0.76982916232E+00  0.91135986848E+01  0.51100000000E-03 0. -1.
        -11    1    3    3    0    0 -0.90885159227E+00 -0.11446623074E+02 -0.21150583387E+02  0.24066540443E+02  0.51100000000E-03 0.  1.
         12    1    3    3    0    0  0.25166218981E+01  0.74945985488E+01  0.38477640717E+02  0.39281436180E+02  0.00000000000E+00 0. -1.
</event>
<event>
 7    1  0.3508738E-013  0.7246157E+02  0.7816164E-02  0.1226708E+00
        -11   -1    0    0    0    0  0.00000000000E+00  0.00000000000E+00  0.45593999997E+02  0.45594000000E+02  0.51100000000E-03 0. -1.
         11   -1    0    0    0    0 -0.00000000000E+00 -0.00000000000E+00 -0.45593999997E+02  0.45594000000E+02  0.51100000000E-03 0.  1.
    9900012    2    1    2    0    0 -0.43404794287E+01  0.11005517352E+02  0.14516131324E+02  0.72461568347E+02  0.69999997463E+02 0.  0.
        -12    1    1    2    0    0  0.43404794287E+01 -0.11005517352E+02 -0.14516131324E+02  0.18726431653E+02  0.00000000000E+00 0.  1.
         11    1    3    3    0    0 -0.33487264587E+01  0.38327970463E+01  0.25880567553E+02  0.26376278722E+02  0.51100000000E-03 0. -1.
        -11    1    3    3    0    0  0.16703441655E+02  0.17345784820E+02 -0.41436166337E+01  0.24434622428E+02  0.51100000000E-03 0.  1.
        -12    1    3    3    0    0 -0.17695194625E+02 -0.10173064514E+02 -0.72208195953E+01  0.21650667197E+02  0.00000000000E+00 0.  1.
</event>
<event>
 7    1  0.3508738E-013  0.7246157E+02  0.7816164E-02  0.1226708E+00
        -11   -1    0    0    0    0  0.00000000000E+00  0.00000000000E+00  0.45593999997E+02  0.45594000000E+02  0.51100000000E-03 0. -1.
         11   -1    0    0    0    0 -0.00000000000E+00 -0.00000000000E+00 -0.45593999997E+02  0.45594000000E+02  0.51100000000E-03 0.  1.
    9900012    2    1    2    0    0 -0.10391637233E+02 -0.20675149719E+01  0.15440799929E+02  0.72461573619E+02  0.70000004331E+02 0.  0.
        -12    1    1    2    0    0  0.10391637233E+02  0.20675149719E+01 -0.15440799929E+02  0.18726426381E+02  0.00000000000E+00 0.  1.
         11    1    3    3    0    0  0.46362019836E+01  0.86700273257E-01  0.69960654665E+00  0.46894920142E+01  0.51100000000E-03 0. -1.
        -11    1    3    3    0    0  0.14424004799E+01 -0.23949270115E+02 -0.14276035931E+02  0.27918690162E+02  0.51100000000E-03 0.  1.
         12    1    3    3    0    0 -0.16470239697E+02  0.21795054870E+02  0.29017229314E+02  0.39853391443E+02  0.00000000000E+00 0. -1.
</event>
<event>
 7    1  0.3508738E-013  0.7246161E+02  0.7816164E-02  0.1226708E+00
        -11   -1    0    0    0    0  0.00000000000E+00  0.00000000000E+00  0.45593999997E+02  0.45594000000E+02  0.51100000000E-03 0.  1.
         11   -1    0    0    0    0 -0.00000000000E+00 -0.00000000000E+00 -0.45593999997E+02  0.45594000000E+02  0.51100000000E-03 0. -1.
    9900012    2    1    2    0    0 -0.63118207472E+01  0.17515429610E+02  0.20120153050E+01  0.72461613238E+02  0.70000055942E+02 0.  0.
        -12    1    1    2    0    0  0.63118207472E+01 -0.17515429610E+02 -0.20120153050E+01  0.18726386762E+02  0.00000000000E+00 0.  1.
         11    1    3    3    0    0 -0.80798449961E+01 -0.69623509515E+01 -0.10657209800E+02  0.15077610783E+02  0.51100000000E-03 0. -1.
        -11    1    3    3    0    0 -0.10935880178E+02 -0.12265142079E+02 -0.19539823981E+00  0.16433665635E+02  0.51100000000E-03 0.  1.
        -12    1    3    3    0    0  0.12703904426E+02  0.36742922641E+02  0.12864623345E+02  0.40950336820E+02  0.00000000000E+00 0.  1.
</event>
<event>
 7    1  0.3508738E-013  0.7246157E+02  0.7816164E-02  0.1226708E+00
        -11   -1    0    0    0    0  0.00000000000E+00  0.00000000000E+00  0.45593999997E+02  0.45594000000E+02  0.51100000000E-03 0. -1.
         11   -1    0    0    0    0 -0.00000000000E+00 -0.00000000000E+00 -0.45593999997E+02  0.45594000000E+02  0.51100000000E-03 0.  1.
    9900012    2    1    2    0    0  0.71439998684E+01 -0.23582647634E+01  0.17148787384E+02  0.72461573337E+02  0.70000003964E+02 0.  0.
        -12    1    1    2    0    0 -0.71439998684E+01  0.23582647634E+01 -0.17148787384E+02  0.18726426663E+02  0.00000000000E+00 0.  1.
         11    1    3    3    0    0  0.92792792756E+01  0.24264897920E+02 -0.65076291499E+01  0.26781328054E+02  0.51100000000E-03 0.  1.
        -11    1    3    3    0    0  0.12216548915E+02 -0.19608246222E+02  0.13863591587E+02  0.26943024316E+02  0.51100000000E-03 0. -1.
        -12    1    3    3    0    0 -0.14351828322E+02 -0.70149164610E+01  0.97928249466E+01  0.18737220967E+02  0.00000000000E+00 0.  1.
</event>
<event>
 7    1  0.3508738E-013  0.7246167E+02  0.7816164E-02  0.1226708E+00
        -11   -1    0    0    0    0  0.00000000000E+00  0.00000000000E+00  0.45593999997E+02  0.45594000000E+02  0.51100000000E-03 0. -1.
         11   -1    0    0    0    0 -0.00000000000E+00 -0.00000000000E+00 -0.45593999997E+02  0.45594000000E+02  0.51100000000E-03 0.  1.
    9900012    2    1    2    0    0  0.70771901177E+01  0.10947934740E+02  0.13443648448E+02  0.72461666172E+02  0.70000124899E+02 0.  0.
        -12    1    1    2    0    0 -0.70771901177E+01 -0.10947934740E+02 -0.13443648448E+02  0.18726333828E+02  0.00000000000E+00 0.  1.
         11    1    3    3    0    0  0.94518574764E+01  0.13603730464E+02  0.10955473455E+02  0.19860047612E+02  0.51100000000E-03 0. -1.
        -11    1    3    3    0    0  0.18626125335E+02 -0.53207240708E+01  0.17932563749E+02  0.26397338739E+02  0.51100000000E-03 0.  1.
         12    1    3    3    0    0 -0.21000792694E+02  0.26649283477E+01 -0.15444388756E+02  0.26204279821E+02  0.00000000000E+00 0. -1.
</event>
<event>
 7    1  0.3508738E-013  0.7246159E+02  0.7816164E-02  0.1226708E+00
        -11   -1    0    0    0    0  0.00000000000E+00  0.00000000000E+00  0.45593999997E+02  0.45594000000E+02  0.51100000000E-03 0. -1.
         11   -1    0    0    0    0 -0.00000000000E+00 -0.00000000000E+00 -0.45593999997E+02  0.45594000000E+02  0.51100000000E-03 0.  1.
    9900012    2    1    2    0    0  0.13539365652E+01  0.17110276265E+02  0.74889020127E+01  0.72461592137E+02  0.70000028455E+02 0.  0.
        -12    1    1    2    0    0 -0.13539365652E+01 -0.17110276265E+02 -0.74889020127E+01  0.18726407863E+02  0.00000000000E+00 0.  1.
         11    1    3    3    0    0  0.11165087822E+02  0.21965164084E+02  0.37570339383E+01  0.24924745206E+02  0.51100000000E-03 0. -1.
        -11    1    3    3    0    0 -0.12297560299E+02 -0.10060717139E+02 -0.18605464294E+02  0.24466534706E+02  0.51100000000E-03 0.  1.
         12    1    3    3    0    0  0.24864090426E+01  0.52058293196E+01  0.22337332369E+02  0.23070312225E+02  0.00000000000E+00 0. -1.
</event>
<event>
 7    1  0.3508738E-013  0.7246159E+02  0.7816164E-02  0.1226708E+00
        -11   -1    0    0    0    0  0.00000000000E+00  0.00000000000E+00  0.45593999997E+02  0.45594000000E+02  0.51100000000E-03 0.  1.
         11   -1    0    0    0    0 -0.00000000000E+00 -0.00000000000E+00 -0.45593999997E+02  0.45594000000E+02  0.51100000000E-03 0. -1.
    9900012    2    1    2    0    0  0.17091198109E+02  0.76353589549E+01 -0.52020379581E+00  0.72461591611E+02  0.70000027768E+02 0.  0.
        -12    1    1    2    0    0 -0.17091198109E+02 -0.76353589549E+01  0.52020379581E+00  0.18726408389E+02  0.00000000000E+00 0.  1.
         11    1    3    3    0    0 -0.10821849885E+02 -0.12003506518E+02 -0.60681106084E+01  0.17263214367E+02  0.51100000000E-03 0. -1.
        -11    1    3    3    0    0  0.37809229092E+01  0.27640552231E+02 -0.37048591680E+01  0.28142876317E+02  0.51100000000E-03 0.  1.
        -12    1    3    3    0    0  0.24132125085E+02 -0.80016867579E+01  0.92527659806E+01  0.27055500927E+02  0.00000000000E+00 0.  1.
</event>
<event>
 7    1  0.3508738E-013  0.7246172E+02  0.7816164E-02  0.1226708E+00
        -11   -1    0    0    0    0  0.00000000000E+00  0.00000000000E+00  0.45593999997E+02  0.45594000000E+02  0.51100000000E-03 0.  1.
         11   -1    0    0    0    0 -0.00000000000E+00 -0.00000000000E+00 -0.45593999997E+02  0.45594000000E+02  0.51100000000E-03 0. -1.
    9900012    2    1    2    0    0 -0.15359848140E+02  0.20188508213E+01  0.10520115197E+02  0.72461721211E+02  0.70000196597E+02 0.  0.
        -12    1    1    2    0    0  0.15359848140E+02 -0.20188508213E+01 -0.10520115197E+02  0.18726278789E+02  0.00000000000E+00 0.  1.
         11    1    3    3    0    0 -0.16938096683E+02 -0.18344822473E+02 -0.81456180513E+01  0.26263714979E+02  0.51100000000E-03 0. -1.
        -11    1    3    3    0    0  0.14147130554E+02 -0.39913855296E+01  0.84084600337E+01  0.16934422393E+02  0.51100000000E-03 0.  1.
         12    1    3    3    0    0 -0.12568882012E+02  0.24355058824E+02  0.10257273214E+02  0.29263583839E+02  0.00000000000E+00 0. -1.
</event>
<event>
 7    1  0.3508738E-013  0.7246222E+02  0.7816164E-02  0.1226706E+00
        -11   -1    0    0    0    0  0.00000000000E+00  0.00000000000E+00  0.45593999997E+02  0.45594000000E+02  0.51100000000E-03 0.  1.
         11   -1    0    0    0    0 -0.00000000000E+00 -0.00000000000E+00 -0.45593999997E+02  0.45594000000E+02  0.51100000000E-03 0. -1.
    9900012    2    1    2    0    0  0.16865367783E+02  0.61169572337E+01 -0.53662865021E+01  0.72462220254E+02  0.70000846689E+02 0.  0.
        -12    1    1    2    0    0 -0.16865367783E+02 -0.61169572337E+01  0.53662865021E+01  0.18725779746E+02  0.00000000000E+00 0.  1.
         11    1    3    3    0    0  0.74237284715E+01 -0.12635909120E+02  0.17960005444E+02  0.23180589715E+02  0.51100000000E-03 0. -1.
        -11    1    3    3    0    0  0.69932062807E+01  0.17701728588E+01  0.96856564908E+01  0.12076853396E+02  0.51100000000E-03 0.  1.
         12    1    3    3    0    0  0.24484330309E+01  0.16982693495E+02 -0.33011948437E+02  0.37204777143E+02  0.00000000000E+00 0. -1.
</event>
<event>
 7    1  0.3508738E-013  0.7246155E+02  0.7816164E-02  0.1226708E+00
        -11   -1    0    0    0    0  0.00000000000E+00  0.00000000000E+00  0.45593999997E+02  0.45594000000E+02  0.51100000000E-03 0.  1.
         11   -1    0    0    0    0 -0.00000000000E+00 -0.00000000000E+00 -0.45593999997E+02  0.45594000000E+02  0.51100000000E-03 0. -1.
    9900012    2    1    2    0    0  0.16665769025E+01 -0.18076027915E+02  0.45999573387E+01  0.72461551557E+02  0.69999975592E+02 0.  0.
        -12    1    1    2    0    0 -0.16665769025E+01  0.18076027915E+02 -0.45999573387E+01  0.18726448443E+02  0.00000000000E+00 0.  1.
         11    1    3    3    0    0 -0.15292114748E+02 -0.20951602168E+01 -0.22388485999E+02  0.27193432579E+02  0.51100000000E-03 0. -1.
        -11    1    3    3    0    0 -0.76963409238E+01 -0.24077576979E+01  0.44431853736E+01  0.92072176727E+01  0.51100000000E-03 0.  1.
        -12    1    3    3    0    0  0.24655032574E+02 -0.13573110000E+02  0.22545257964E+02  0.36060901306E+02  0.00000000000E+00 0.  1.
</event>
<event>
 7    1  0.3508738E-013  0.7246157E+02  0.7816164E-02  0.1226708E+00
        -11   -1    0    0    0    0  0.00000000000E+00  0.00000000000E+00  0.45593999997E+02  0.45594000000E+02  0.51100000000E-03 0.  1.
         11   -1    0    0    0    0 -0.00000000000E+00 -0.00000000000E+00 -0.45593999997E+02  0.45594000000E+02  0.51100000000E-03 0. -1.
    9900012    2    1    2    0    0  0.57684607376E+01  0.15045004576E+02 -0.95421109677E+01  0.72461569916E+02  0.69999999508E+02 0.  0.
        -12    1    1    2    0    0 -0.57684607376E+01 -0.15045004576E+02  0.95421109677E+01  0.18726430084E+02  0.00000000000E+00 0.  1.
         11    1    3    3    0    0  0.52336751145E+00 -0.44317557190E+01 -0.16181587905E+00  0.44654850739E+01  0.51100000000E-03 0. -1.
        -11    1    3    3    0    0  0.17118687806E+02 -0.62569626159E+01  0.20078933929E+02  0.27117570713E+02  0.51100000000E-03 0.  1.
         12    1    3    3    0    0 -0.11873594580E+02  0.25733722910E+02 -0.29459229018E+02  0.40878514129E+02  0.00000000000E+00 0. -1.
</event>
<event>
 7    1  0.3508738E-013  0.7246158E+02  0.7816164E-02  0.1226708E+00
        -11   -1    0    0    0    0  0.00000000000E+00  0.00000000000E+00  0.45593999997E+02  0.45594000000E+02  0.51100000000E-03 0.  1.
         11   -1    0    0    0    0 -0.00000000000E+00 -0.00000000000E+00 -0.45593999997E+02  0.45594000000E+02  0.51100000000E-03 0. -1.
    9900012    2    1    2    0    0  0.14087729601E+02  0.11405606749E+02 -0.47038998266E+01  0.72461583787E+02  0.70000017576E+02 0.  0.
        -12    1    1    2    0    0 -0.14087729601E+02 -0.11405606749E+02  0.47038998266E+01  0.18726416213E+02  0.00000000000E+00 0.  1.
         11    1    3    3    0    0  0.56679381683E+01 -0.10057055070E+02  0.32062332135E+01  0.11981227460E+02  0.51100000000E-03 0. -1.
        -11    1    3    3    0    0 -0.33053665024E+01  0.35856923715E+02  0.69826813920E+01  0.36679725540E+02  0.51100000000E-03 0.  1.
         12    1    3    3    0    0  0.11725157935E+02 -0.14394261896E+02 -0.14892814432E+02  0.23800630787E+02  0.00000000000E+00 0. -1.
</event>
<event>
 7    1  0.3508738E-013  0.7246159E+02  0.7816164E-02  0.1226708E+00
        -11   -1    0    0    0    0  0.00000000000E+00  0.00000000000E+00  0.45593999997E+02  0.45594000000E+02  0.51100000000E-03 0.  1.
         11   -1    0    0    0    0 -0.00000000000E+00 -0.00000000000E+00 -0.45593999997E+02  0.45594000000E+02  0.51100000000E-03 0. -1.
    9900012    2    1    2    0    0  0.12510635178E+01 -0.13553797800E+02 -0.12861095851E+02  0.72461591342E+02  0.70000027419E+02 0.  0.
        -12    1    1    2    0    0 -0.12510635178E+01  0.13553797800E+02  0.12861095851E+02  0.18726408658E+02  0.00000000000E+00 0.  1.
         11    1    3    3    0    0  0.18074186386E+02  0.11191598364E+02 -0.16207681090E+00  0.21259218156E+02  0.51100000000E-03 0. -1.
        -11    1    3    3    0    0 -0.12936960505E+01  0.13158617767E+01  0.11963612641E+02  0.12105088573E+02  0.51100000000E-03 0.  1.
         12    1    3    3    0    0 -0.15529426817E+02 -0.26061257940E+02 -0.24662631681E+02  0.39097284613E+02  0.00000000000E+00 0. -1.
</event>
<event>
 7    1  0.3508738E-013  0.7246157E+02  0.7816164E-02  0.1226708E+00
        -11   -1    0    0    0    0  0.00000000000E+00  0.00000000000E+00  0.45593999997E+02  0.45594000000E+02  0.51100000000E-03 0.  1.
         11   -1    0    0    0    0 -0.00000000000E+00 -0.00000000000E+00 -0.45593999997E+02  0.45594000000E+02  0.51100000000E-03 0. -1.
    9900012    2    1    2    0    0  0.73946779394E+01 -0.16255673462E+02 -0.56348034642E+01  0.72461569705E+02  0.69999999232E+02 0.  0.
        -12    1    1    2    0    0 -0.73946779394E+01  0.16255673462E+02  0.56348034642E+01  0.18726430295E+02  0.00000000000E+00 0.  1.
         11    1    3    3    0    0 -0.11024099302E+02 -0.34034532969E+00  0.11546817511E+02  0.15967955262E+02  0.51100000000E-03 0. -1.
        -11    1    3    3    0    0  0.36366262367E+01 -0.19287362751E+02  0.12425728237E+02  0.23229854385E+02  0.51100000000E-03 0.  1.
         12    1    3    3    0    0  0.14782151005E+02  0.33720346184E+01 -0.29607349212E+02  0.33263760058E+02  0.00000000000E+00 0. -1.
</event>
<event>
 7    1  0.3508738E-013  0.7246153E+02  0.7816164E-02  0.1226708E+00
        -11   -1    0    0    0    0  0.00000000000E+00  0.00000000000E+00  0.45593999997E+02  0.45594000000E+02  0.51100000000E-03 0. -1.
         11   -1    0    0    0    0 -0.00000000000E+00 -0.00000000000E+00 -0.45593999997E+02  0.45594000000E+02  0.51100000000E-03 0.  1.
    9900012    2    1    2    0    0  0.18676503684E+02  0.27146051530E+00 -0.13398448480E+01  0.72461530368E+02  0.69999947988E+02 0.  0.
        -12    1    1    2    0    0 -0.18676503684E+02 -0.27146051530E+00  0.13398448480E+01  0.18726469632E+02  0.00000000000E+00 0.  1.
         11    1    3    3    0    0  0.20916591530E+02 -0.19306411632E+01 -0.19402774024E+02  0.28595433493E+02  0.51100000000E-03 0. -1.
        -11    1    3    3    0    0 -0.11130500702E+02 -0.65375033183E+01 -0.78516181760E+01  0.15108769101E+02  0.51100000000E-03 0.  1.
         12    1    3    3    0    0  0.88904128555E+01  0.87396049968E+01  0.25914547352E+02  0.28757327774E+02  0.00000000000E+00 0. -1.
</event>
<event>
 7    1  0.3508738E-013  0.7246162E+02  0.7816164E-02  0.1226708E+00
        -11   -1    0    0    0    0  0.00000000000E+00  0.00000000000E+00  0.45593999997E+02  0.45594000000E+02  0.51100000000E-03 0.  1.
         11   -1    0    0    0    0 -0.00000000000E+00 -0.00000000000E+00 -0.45593999997E+02  0.45594000000E+02  0.51100000000E-03 0. -1.
    9900012    2    1    2    0    0  0.16886222219E+02  0.19231261252E+00 -0.80929490150E+01  0.72461619978E+02  0.70000064722E+02 0.  0.
        -12    1    1    2    0    0 -0.16886222219E+02 -0.19231261252E+00  0.80929490150E+01  0.18726380022E+02  0.00000000000E+00 0.  1.
         11    1    3    3    0    0  0.21809424634E+01 -0.14518894981E+02 -0.10169053304E+02  0.17859576334E+02  0.51100000000E-03 0. -1.
        -11    1    3    3    0    0  0.17141453498E+02  0.47054833804E+01  0.24300382426E+02  0.30107799457E+02  0.51100000000E-03 0.  1.
         12    1    3    3    0    0 -0.24361737423E+01  0.10005724213E+02 -0.22224278137E+02  0.24494244186E+02  0.00000000000E+00 0. -1.
</event>
<event>
 7    1  0.3508738E-013  0.7246158E+02  0.7816164E-02  0.1226708E+00
        -11   -1    0    0    0    0  0.00000000000E+00  0.00000000000E+00  0.45593999997E+02  0.45594000000E+02  0.51100000000E-03 0. -1.
         11   -1    0    0    0    0 -0.00000000000E+00 -0.00000000000E+00 -0.45593999997E+02  0.45594000000E+02  0.51100000000E-03 0.  1.
    9900012    2    1    2    0    0 -0.14693851992E+02 -0.57857119594E+01  0.10064539450E+02  0.72461582735E+02  0.70000016206E+02 0.  0.
        -12    1    1    2    0    0  0.14693851992E+02  0.57857119594E+01 -0.10064539450E+02  0.18726417265E+02  0.00000000000E+00 0.  1.
         11    1    3    3    0    0 -0.15585635789E+02  0.14268878800E+01  0.24579087312E+02  0.29138970217E+02  0.51100000000E-03 0. -1.
        -11    1    3    3    0    0 -0.44589573538E+01  0.15950961315E+02 -0.27208093561E+01  0.16784465179E+02  0.51100000000E-03 0.  1.
        -12    1    3    3    0    0  0.53507411503E+01 -0.23163561154E+02 -0.11793738506E+02  0.26538147338E+02  0.00000000000E+00 0.  1.
</event>
<event>
 7    1  0.3508738E-013  0.7246153E+02  0.7816164E-02  0.1226708E+00
        -11   -1    0    0    0    0  0.00000000000E+00  0.00000000000E+00  0.45593999997E+02  0.45594000000E+02  0.51100000000E-03 0. -1.
         11   -1    0    0    0    0 -0.00000000000E+00 -0.00000000000E+00 -0.45593999997E+02  0.45594000000E+02  0.51100000000E-03 0.  1.
    9900012    2    1    2    0    0  0.32382380666E+01 -0.13597656615E+02  0.12461872834E+02  0.72461528744E+02  0.69999945873E+02 0.  0.
        -12    1    1    2    0    0 -0.32382380666E+01  0.13597656615E+02 -0.12461872834E+02  0.18726471256E+02  0.00000000000E+00 0.  1.
         11    1    3    3    0    0  0.10303766956E+01  0.15729141696E+02  0.60740100379E+01  0.16892636645E+02  0.51100000000E-03 0. -1.
        -11    1    3    3    0    0 -0.81419503246E+01  0.44856044041E+01 -0.12422970611E+02  0.15515869329E+02  0.51100000000E-03 0.  1.
        -12    1    3    3    0    0  0.10349811696E+02 -0.33812402715E+02  0.18810833407E+02  0.40053022769E+02  0.00000000000E+00 0.  1.
</event>
<event>
 7    1  0.3508738E-013  0.7246160E+02  0.7816164E-02  0.1226708E+00
        -11   -1    0    0    0    0  0.00000000000E+00  0.00000000000E+00  0.45593999997E+02  0.45594000000E+02  0.51100000000E-03 0.  1.
         11   -1    0    0    0    0 -0.00000000000E+00 -0.00000000000E+00 -0.45593999997E+02  0.45594000000E+02  0.51100000000E-03 0. -1.
    9900012    2    1    2    0    0 -0.12906523309E+02  0.92767187100E+01 -0.99016318000E+01  0.72461597082E+02  0.70000034896E+02 0.  0.
        -12    1    1    2    0    0  0.12906523309E+02 -0.92767187100E+01  0.99016318000E+01  0.18726402918E+02  0.00000000000E+00 0.  1.
         11    1    3    3    0    0  0.14942447560E+02 -0.97453727952E-01 -0.23435999395E+02  0.27794465352E+02  0.51100000000E-03 0. -1.
        -11    1    3    3    0    0 -0.12292594884E+02  0.17010225613E+02  0.16983144341E+02  0.26997830586E+02  0.51100000000E-03 0.  1.
         12    1    3    3    0    0 -0.15556375985E+02 -0.76360531747E+01 -0.34487767466E+01  0.17669301144E+02  0.00000000000E+00 0. -1.
</event>
<event>
 7    1  0.3508738E-013  0.7246190E+02  0.7816164E-02  0.1226707E+00
        -11   -1    0    0    0    0  0.00000000000E+00  0.00000000000E+00  0.45593999997E+02  0.45594000000E+02  0.51100000000E-03 0.  1.
         11   -1    0    0    0    0 -0.00000000000E+00 -0.00000000000E+00 -0.45593999997E+02  0.45594000000E+02  0.51100000000E-03 0. -1.
    9900012    2    1    2    0    0  0.11268181281E+02 -0.10444824679E+02  0.10705168547E+02  0.72461897747E+02  0.70000426567E+02 0.  0.
        -12    1    1    2    0    0 -0.11268181281E+02  0.10444824679E+02 -0.10705168547E+02  0.18726102253E+02  0.00000000000E+00 0.  1.
         11    1    3    3    0    0  0.19785793182E+02  0.68697347325E+01  0.49214290998E+01  0.21514909523E+02  0.51100000000E-03 0. -1.
        -11    1    3    3    0    0  0.14044014527E+02 -0.17384065808E+02  0.14632157673E+02  0.26712171879E+02  0.51100000000E-03 0.  1.
         12    1    3    3    0    0 -0.22561626428E+02  0.69506396185E-01 -0.88484182260E+01  0.24234816346E+02  0.00000000000E+00 0. -1.
</event>
<event>
 7    1  0.3508738E-013  0.7246153E+02  0.7816164E-02  0.1226708E+00
        -11   -1    0    0    0    0  0.00000000000E+00  0.00000000000E+00  0.45593999997E+02  0.45594000000E+02  0.51100000000E-03 0.  1.
         11   -1    0    0    0    0 -0.00000000000E+00 -0.00000000000E+00 -0.45593999997E+02  0.45594000000E+02  0.51100000000E-03 0. -1.
    9900012    2    1    2    0    0 -0.11716038106E+02  0.13490967968E+02 -0.56043561844E+01  0.72461532799E+02  0.69999951155E+02 0.  0.
        -12    1    1    2    0    0  0.11716038106E+02 -0.13490967968E+02  0.56043561844E+01  0.18726467201E+02  0.00000000000E+00 0.  1.
         11    1    3    3    0    0  0.28604711380E+01  0.16026939604E+02 -0.20843013528E+02  0.26447614285E+02  0.51100000000E-03 0. -1.
        -11    1    3    3    0    0  0.29676090286E+01  0.16423694973E+02  0.10594304789E+02  0.19768251166E+02  0.51100000000E-03 0.  1.
        -12    1    3    3    0    0 -0.17544118272E+02 -0.18959666609E+02  0.46443525545E+01  0.26245667348E+02  0.00000000000E+00 0.  1.
</event>
<event>
 7    1  0.3508738E-013  0.7246157E+02  0.7816164E-02  0.1226708E+00
        -11   -1    0    0    0    0  0.00000000000E+00  0.00000000000E+00  0.45593999997E+02  0.45594000000E+02  0.51100000000E-03 0.  1.
         11   -1    0    0    0    0 -0.00000000000E+00 -0.00000000000E+00 -0.45593999997E+02  0.45594000000E+02  0.51100000000E-03 0. -1.
    9900012    2    1    2    0    0 -0.17645505915E+02 -0.62653914096E+01  0.24527854100E+00  0.72461570279E+02  0.69999999980E+02 0.  0.
        -12    1    1    2    0    0  0.17645505915E+02  0.62653914096E+01 -0.24527854100E+00  0.18726429721E+02  0.00000000000E+00 0.  1.
         11    1    3    3    0    0 -0.48091057369E+01  0.16976224917E+01 -0.12540840927E+02  0.13538172385E+02  0.51100000000E-03 0. -1.
        -11    1    3    3    0    0 -0.28068922505E+02 -0.84426246228E+01  0.25673374432E+02  0.38964913398E+02  0.51100000000E-03 0.  1.
         12    1    3    3    0    0  0.15232522327E+02  0.47961072154E+00 -0.12887254964E+02  0.19958484496E+02  0.00000000000E+00 0. -1.
</event>
<event>
 7    1  0.3508738E-013  0.7246164E+02  0.7816164E-02  0.1226708E+00
        -11   -1    0    0    0    0  0.00000000000E+00  0.00000000000E+00  0.45593999997E+02  0.45594000000E+02  0.51100000000E-03 0.  1.
         11   -1    0    0    0    0 -0.00000000000E+00 -0.00000000000E+00 -0.45593999997E+02  0.45594000000E+02  0.51100000000E-03 0. -1.
    9900012    2    1    2    0    0  0.11222190080E+01  0.11022521284E+01 -0.18660172717E+02  0.72461644747E+02  0.70000096988E+02 0.  0.
        -12    1    1    2    0    0 -0.11222190080E+01 -0.11022521284E+01  0.18660172717E+02  0.18726355253E+02  0.00000000000E+00 0.  1.
         11    1    3    3    0    0 -0.46414604952E+01  0.10149197002E+01 -0.17688754479E+02  0.18315710546E+02  0.51100000000E-03 0. -1.
        -11    1    3    3    0    0  0.45950193773E+01  0.26834720311E+02  0.14491271446E+01  0.27263829280E+02  0.51100000000E-03 0.  1.
         12    1    3    3    0    0  0.11686601260E+01 -0.26747387883E+02 -0.24205453827E+01  0.26882104921E+02  0.00000000000E+00 0. -1.
</event>
<event>
 7    1  0.3508738E-013  0.7246149E+02  0.7816164E-02  0.1226708E+00
        -11   -1    0    0    0    0  0.00000000000E+00  0.00000000000E+00  0.45593999997E+02  0.45594000000E+02  0.51100000000E-03 0. -1.
         11   -1    0    0    0    0 -0.00000000000E+00 -0.00000000000E+00 -0.45593999997E+02  0.45594000000E+02  0.51100000000E-03 0.  1.
    9900012    2    1    2    0    0 -0.11741307085E+02 -0.14548525582E+02 -0.10791030084E+01  0.72461485322E+02  0.69999889308E+02 0.  0.
        -12    1    1    2    0    0  0.11741307085E+02  0.14548525582E+02  0.10791030084E+01  0.18726514678E+02  0.00000000000E+00 0.  1.
         11    1    3    3    0    0  0.16825711014E+02  0.26733770658E+01 -0.11532831541E+02  0.20573227741E+02  0.51100000000E-03 0. -1.
        -11    1    3    3    0    0 -0.56345204322E+01 -0.17432729334E+02 -0.10248914499E+02  0.20992573002E+02  0.51100000000E-03 0.  1.
         12    1    3    3    0    0 -0.22932497667E+02  0.21082668642E+00  0.20702643032E+02  0.30895684580E+02  0.00000000000E+00 0. -1.
</event>
<event>
 7    1  0.3508738E-013  0.7246159E+02  0.7816164E-02  0.1226708E+00
        -11   -1    0    0    0    0  0.00000000000E+00  0.00000000000E+00  0.45593999997E+02  0.45594000000E+02  0.51100000000E-03 0. -1.
         11   -1    0    0    0    0 -0.00000000000E+00 -0.00000000000E+00 -0.45593999997E+02  0.45594000000E+02  0.51100000000E-03 0.  1.
    9900012    2    1    2    0    0 -0.13480669307E+02 -0.11427549669E+02  0.61936431752E+01  0.72461586778E+02  0.70000021472E+02 0.  0.
        -12    1    1    2    0    0  0.13480669307E+02  0.11427549669E+02 -0.61936431752E+01  0.18726413222E+02  0.00000000000E+00 0.  1.
         11    1    3    3    0    0  0.24729306033E+02  0.61259798236E+00 -0.74090469110E+01  0.25822622438E+02  0.51100000000E-03 0. -1.
        -11    1    3    3    0    0 -0.25686581468E+01  0.16395400593E+01  0.73463773699E+01  0.79533236451E+01  0.51100000000E-03 0.  1.
        -12    1    3    3    0    0 -0.35641317193E+02 -0.13679687711E+02  0.62563127163E+01  0.38685640695E+02  0.00000000000E+00 0.  1.
</event>
<event>
 7    1  0.3508738E-013  0.7246158E+02  0.7816164E-02  0.1226708E+00
        -11   -1    0    0    0    0  0.00000000000E+00  0.00000000000E+00  0.45593999997E+02  0.45594000000E+02  0.51100000000E-03 0.  1.
         11   -1    0    0    0    0 -0.00000000000E+00 -0.00000000000E+00 -0.45593999997E+02  0.45594000000E+02  0.51100000000E-03 0. -1.
    9900012    2    1    2    0    0 -0.86052925988E+01  0.16369304990E+02  0.29451160072E+01  0.72461577093E+02  0.70000008857E+02 0.  0.
        -12    1    1    2    0    0  0.86052925988E+01 -0.16369304990E+02 -0.29451160072E+01  0.18726422907E+02  0.00000000000E+00 0.  1.
         11    1    3    3    0    0  0.50110562216E+01  0.68760660941E+01  0.84728331834E+01  0.12007492319E+02  0.51100000000E-03 0. -1.
        -11    1    3    3    0    0  0.22654418842E+02  0.22315573971E+01  0.14539047097E+01  0.22810444552E+02  0.51100000000E-03 0.  1.
         12    1    3    3    0    0 -0.36270767662E+02  0.72616814993E+01 -0.69816218859E+01  0.37643640222E+02  0.00000000000E+00 0. -1.
</event>
<event>
 7    1  0.3508738E-013  0.7246152E+02  0.7816164E-02  0.1226708E+00
        -11   -1    0    0    0    0  0.00000000000E+00  0.00000000000E+00  0.45593999997E+02  0.45594000000E+02  0.51100000000E-03 0.  1.
         11   -1    0    0    0    0 -0.00000000000E+00 -0.00000000000E+00 -0.45593999997E+02  0.45594000000E+02  0.51100000000E-03 0. -1.
    9900012    2    1    2    0    0 -0.17223413573E+02  0.62677355388E+01 -0.38406404984E+01  0.72461521331E+02  0.69999936216E+02 0.  0.
        -12    1    1    2    0    0  0.17223413573E+02 -0.62677355388E+01  0.38406404984E+01  0.18726478669E+02  0.00000000000E+00 0.  1.
         11    1    3    3    0    0 -0.31025125033E+02  0.16924015400E+02 -0.88781992980E+01  0.36439032693E+02  0.51100000000E-03 0. -1.
        -11    1    3    3    0    0 -0.88901877330E+01 -0.57899084008E+01 -0.36828001212E+01  0.11230382639E+02  0.51100000000E-03 0.  1.
        -12    1    3    3    0    0  0.22691899193E+02 -0.48663714609E+01  0.87203589209E+01  0.24792105999E+02  0.00000000000E+00 0.  1.
</event>
<event>
 7    1  0.3508738E-013  0.7246159E+02  0.7816164E-02  0.1226708E+00
        -11   -1    0    0    0    0  0.00000000000E+00  0.00000000000E+00  0.45593999997E+02  0.45594000000E+02  0.51100000000E-03 0. -1.
         11   -1    0    0    0    0 -0.00000000000E+00 -0.00000000000E+00 -0.45593999997E+02  0.45594000000E+02  0.51100000000E-03 0.  1.
    9900012    2    1    2    0    0 -0.69085348628E+01  0.17074179456E+02  0.33798075193E+01  0.72461586651E+02  0.70000021308E+02 0.  0.
        -12    1    1    2    0    0  0.69085348628E+01 -0.17074179456E+02 -0.33798075193E+01  0.18726413349E+02  0.00000000000E+00 0.  1.
         11    1    3    3    0    0 -0.17904091944E+02 -0.10731148404E+02  0.33243567420E+01  0.21136825741E+02  0.51100000000E-03 0. -1.
        -11    1    3    3    0    0 -0.14600078060E+02  0.85180073472E+01  0.73886523385E+01  0.18447517778E+02  0.51100000000E-03 0.  1.
         12    1    3    3    0    0  0.25595635141E+02  0.19287320512E+02 -0.73332015611E+01  0.32877243132E+02  0.00000000000E+00 0. -1.
</event>
<event>
 7    1  0.3508738E-013  0.7246158E+02  0.7816164E-02  0.1226708E+00
        -11   -1    0    0    0    0  0.00000000000E+00  0.00000000000E+00  0.45593999997E+02  0.45594000000E+02  0.51100000000E-03 0.  1.
         11   -1    0    0    0    0 -0.00000000000E+00 -0.00000000000E+00 -0.45593999997E+02  0.45594000000E+02  0.51100000000E-03 0. -1.
    9900012    2    1    2    0    0  0.11870022774E+02  0.12378660240E+02 -0.75199900797E+01  0.72461576936E+02  0.70000008652E+02 0.  0.
        -12    1    1    2    0    0 -0.11870022774E+02 -0.12378660240E+02  0.75199900797E+01  0.18726423064E+02  0.00000000000E+00 0.  1.
         11    1    3    3    0    0  0.22166634808E+01 -0.12094389225E+02 -0.96794525385E+00  0.12333886897E+02  0.51100000000E-03 0. -1.
        -11    1    3    3    0    0 -0.20896774445E+02  0.31135230975E+01  0.37411453976E+01  0.21456126804E+02  0.51100000000E-03 0.  1.
         12    1    3    3    0    0  0.30550133739E+02  0.21359526367E+02 -0.10293190223E+02  0.38671563235E+02  0.00000000000E+00 0. -1.
</event>
<event>
 7    1  0.3508738E-013  0.7246155E+02  0.7816164E-02  0.1226708E+00
        -11   -1    0    0    0    0  0.00000000000E+00  0.00000000000E+00  0.45593999997E+02  0.45594000000E+02  0.51100000000E-03 0.  1.
         11   -1    0    0    0    0 -0.00000000000E+00 -0.00000000000E+00 -0.45593999997E+02  0.45594000000E+02  0.51100000000E-03 0. -1.
    9900012    2    1    2    0    0  0.56175148084E+01 -0.15385234794E+02 -0.90784348752E+01  0.72461550735E+02  0.69999974521E+02 0.  0.
        -12    1    1    2    0    0 -0.56175148084E+01  0.15385234794E+02  0.90784348752E+01  0.18726449265E+02  0.00000000000E+00 0.  1.
         11    1    3    3    0    0 -0.58629962036E+01 -0.28609933273E+01  0.12484613608E+02  0.14086361649E+02  0.51100000000E-03 0. -1.
        -11    1    3    3    0    0  0.49393737858E+01  0.20178067456E+02 -0.10196501909E+02  0.23141315241E+02  0.51100000000E-03 0.  1.
         12    1    3    3    0    0  0.65411372262E+01 -0.32702308923E+02 -0.11366546575E+02  0.35233873845E+02  0.00000000000E+00 0. -1.
</event>
<event>
 7    1  0.3508738E-013  0.7246156E+02  0.7816164E-02  0.1226708E+00
        -11   -1    0    0    0    0  0.00000000000E+00  0.00000000000E+00  0.45593999997E+02  0.45594000000E+02  0.51100000000E-03 0.  1.
         11   -1    0    0    0    0 -0.00000000000E+00 -0.00000000000E+00 -0.45593999997E+02  0.45594000000E+02  0.51100000000E-03 0. -1.
    9900012    2    1    2    0    0 -0.93413832037E+01 -0.12602263524E+02 -0.10227460644E+02  0.72461563144E+02  0.69999990686E+02 0.  0.
        -12    1    1    2    0    0  0.93413832037E+01  0.12602263524E+02  0.10227460644E+02  0.18726436856E+02  0.00000000000E+00 0.  1.
         11    1    3    3    0    0 -0.11698306855E+02 -0.19950718040E+02 -0.80704314391E+01  0.24495170901E+02  0.51100000000E-03 0. -1.
        -11    1    3    3    0    0  0.56653376645E+01 -0.18279719377E+02 -0.91263547432E+01  0.21202229659E+02  0.51100000000E-03 0.  1.
        -12    1    3    3    0    0 -0.33084140136E+01  0.25628173893E+02  0.69693255379E+01  0.26764162584E+02  0.00000000000E+00 0.  1.
</event>
<event>
 7    1  0.3508738E-013  0.7246159E+02  0.7816164E-02  0.1226708E+00
        -11   -1    0    0    0    0  0.00000000000E+00  0.00000000000E+00  0.45593999997E+02  0.45594000000E+02  0.51100000000E-03 0. -1.
         11   -1    0    0    0    0 -0.00000000000E+00 -0.00000000000E+00 -0.45593999997E+02  0.45594000000E+02  0.51100000000E-03 0.  1.
    9900012    2    1    2    0    0  0.89304799863E+01 -0.36214397316E+01  0.16056461429E+02  0.72461594788E+02  0.70000031908E+02 0.  0.
        -12    1    1    2    0    0 -0.89304799863E+01  0.36214397316E+01 -0.16056461429E+02  0.18726405212E+02  0.00000000000E+00 0.  1.
         11    1    3    3    0    0  0.10832720428E+02  0.95626778148E+01  0.15167394079E+02  0.20948567547E+02  0.51100000000E-03 0. -1.
        -11    1    3    3    0    0  0.37735231849E+01 -0.12054506750E+02 -0.23374367497E+02  0.26568998219E+02  0.51100000000E-03 0.  1.
         12    1    3    3    0    0 -0.56757636268E+01 -0.11296107959E+01  0.24263434847E+02  0.24944029022E+02  0.00000000000E+00 0. -1.
</event>
<event>
 7    1  0.3508738E-013  0.7246155E+02  0.7816164E-02  0.1226708E+00
        -11   -1    0    0    0    0  0.00000000000E+00  0.00000000000E+00  0.45593999997E+02  0.45594000000E+02  0.51100000000E-03 0.  1.
         11   -1    0    0    0    0 -0.00000000000E+00 -0.00000000000E+00 -0.45593999997E+02  0.45594000000E+02  0.51100000000E-03 0. -1.
    9900012    2    1    2    0    0 -0.13458714231E+02  0.37052705887E+01  0.12482544833E+02  0.72461549606E+02  0.69999973049E+02 0.  0.
        -12    1    1    2    0    0  0.13458714231E+02 -0.37052705887E+01 -0.12482544833E+02  0.18726450394E+02  0.00000000000E+00 0.  1.
         11    1    3    3    0    0 -0.23076706564E+02  0.14193138531E+02  0.15897265426E+01  0.27138658735E+02  0.51100000000E-03 0. -1.
        -11    1    3    3    0    0  0.20145575223E+02  0.84813538401E+01  0.22637327501E+01  0.21975032429E+02  0.51100000000E-03 0.  1.
         12    1    3    3    0    0 -0.10527582890E+02 -0.18969221782E+02  0.86290855400E+01  0.23347858441E+02  0.00000000000E+00 0. -1.
</event>
<event>
 7    1  0.3508738E-013  0.7246163E+02  0.7816164E-02  0.1226708E+00
        -11   -1    0    0    0    0  0.00000000000E+00  0.00000000000E+00  0.45593999997E+02  0.45594000000E+02  0.51100000000E-03 0.  1.
         11   -1    0    0    0    0 -0.00000000000E+00 -0.00000000000E+00 -0.45593999997E+02  0.45594000000E+02  0.51100000000E-03 0. -1.
    9900012    2    1    2    0    0 -0.39472670266E+01 -0.18103110957E+02 -0.27153835174E+01  0.72461632201E+02  0.70000080645E+02 0.  0.
        -12    1    1    2    0    0  0.39472670266E+01  0.18103110957E+02  0.27153835174E+01  0.18726367799E+02  0.00000000000E+00 0.  1.
         11    1    3    3    0    0 -0.25611790604E+01 -0.31615628652E+01 -0.18347265821E+02  0.18793011501E+02  0.51100000000E-03 0. -1.
        -11    1    3    3    0    0 -0.22264725572E+02  0.36654092441E+01  0.11729487748E+02  0.25430967595E+02  0.51100000000E-03 0.  1.
         12    1    3    3    0    0  0.20878637606E+02 -0.18606957336E+02  0.39023945556E+01  0.28237653105E+02  0.00000000000E+00 0. -1.
</event>
<event>
 7    1  0.3508738E-013  0.7246157E+02  0.7816164E-02  0.1226708E+00
        -11   -1    0    0    0    0  0.00000000000E+00  0.00000000000E+00  0.45593999997E+02  0.45594000000E+02  0.51100000000E-03 0.  1.
         11   -1    0    0    0    0 -0.00000000000E+00 -0.00000000000E+00 -0.45593999997E+02  0.45594000000E+02  0.51100000000E-03 0. -1.
    9900012    2    1    2    0    0  0.16991585791E+02 -0.24079097868E+01  0.74944715335E+01  0.72461571595E+02  0.70000001694E+02 0.  0.
        -12    1    1    2    0    0 -0.16991585791E+02  0.24079097868E+01 -0.74944715335E+01  0.18726428405E+02  0.00000000000E+00 0.  1.
         11    1    3    3    0    0 -0.11550135964E+02  0.11757785758E+01 -0.90725599666E+01  0.14734294712E+02  0.51100000000E-03 0. -1.
        -11    1    3    3    0    0 -0.53047910654E+01  0.31861950596E+01 -0.11619041942E+02  0.13164147641E+02  0.51100000000E-03 0.  1.
        -12    1    3    3    0    0  0.33846512821E+02 -0.67698834222E+01  0.28186073442E+02  0.44563129241E+02  0.00000000000E+00 0.  1.
</event>
<event>
 7    1  0.3508738E-013  0.7246155E+02  0.7816164E-02  0.1226708E+00
        -11   -1    0    0    0    0  0.00000000000E+00  0.00000000000E+00  0.45593999997E+02  0.45594000000E+02  0.51100000000E-03 0. -1.
         11   -1    0    0    0    0 -0.00000000000E+00 -0.00000000000E+00 -0.45593999997E+02  0.45594000000E+02  0.51100000000E-03 0.  1.
    9900012    2    1    2    0    0  0.10029890464E+02 -0.50123716539E+01  0.14998579060E+02  0.72461549559E+02  0.69999972988E+02 0.  0.
        -12    1    1    2    0    0 -0.10029890464E+02  0.50123716539E+01 -0.14998579060E+02  0.18726450441E+02  0.00000000000E+00 0.  1.
         11    1    3    3    0    0  0.24726588327E+02  0.12177641810E+02 -0.10931910122E+02  0.29651404512E+02  0.51100000000E-03 0. -1.
        -11    1    3    3    0    0  0.51250876145E+01 -0.12047103672E+02  0.66510332420E+01  0.14684531773E+02  0.51100000000E-03 0.  1.
        -12    1    3    3    0    0 -0.19821785478E+02 -0.51429097919E+01  0.19279455940E+02  0.28125613274E+02  0.00000000000E+00 0.  1.
</event>
<event>
 7    1  0.3508738E-013  0.7246157E+02  0.7816164E-02  0.1226708E+00
        -11   -1    0    0    0    0  0.00000000000E+00  0.00000000000E+00  0.45593999997E+02  0.45594000000E+02  0.51100000000E-03 0.  1.
         11   -1    0    0    0    0 -0.00000000000E+00 -0.00000000000E+00 -0.45593999997E+02  0.45594000000E+02  0.51100000000E-03 0. -1.
    9900012    2    1    2    0    0 -0.14157240983E+02  0.10590298941E+02  0.61723075526E+01  0.72461567226E+02  0.69999996002E+02 0.  0.
        -12    1    1    2    0    0  0.14157240983E+02 -0.10590298941E+02 -0.61723075526E+01  0.18726432774E+02  0.00000000000E+00 0.  1.
         11    1    3    3    0    0 -0.80205743334E+01 -0.26326966391E+01 -0.21372337103E+01  0.87079545488E+01  0.51100000000E-03 0. -1.
        -11    1    3    3    0    0 -0.14426161251E+02  0.17738257629E+02  0.31380377390E+02  0.38826382752E+02  0.51100000000E-03 0.  1.
         12    1    3    3    0    0  0.82894946014E+01 -0.45152620483E+01 -0.23070836128E+02  0.24927229925E+02  0.00000000000E+00 0. -1.
</event>
<event>
 7    1  0.3508738E-013  0.7246100E+02  0.7816164E-02  0.1226710E+00
        -11   -1    0    0    0    0  0.00000000000E+00  0.00000000000E+00  0.45593999997E+02  0.45594000000E+02  0.51100000000E-03 0. -1.
         11   -1    0    0    0    0 -0.00000000000E+00 -0.00000000000E+00 -0.45593999997E+02  0.45594000000E+02  0.51100000000E-03 0.  1.
    9900012    2    1    2    0    0  0.15972178902E+01 -0.10642132335E+02 -0.15326270475E+02  0.72460996708E+02  0.69999252793E+02 0.  0.
        -12    1    1    2    0    0 -0.15972178902E+01  0.10642132335E+02  0.15326270475E+02  0.18727003292E+02  0.00000000000E+00 0.  1.
         11    1    3    3    0    0  0.86981066346E+01 -0.18679237041E+02  0.13421122647E+02  0.24590597570E+02  0.51100000000E-03 0.  1.
        -11    1    3    3    0    0  0.14765308145E+02  0.38641600979E+01 -0.71497094723E+01  0.16854210266E+02  0.51100000000E-03 0. -1.
        -12    1    3    3    0    0 -0.21866196889E+02  0.41729446087E+01 -0.21597683650E+02  0.31016188872E+02  0.00000000000E+00 0.  1.
</event>
<event>
 7    1  0.3508738E-013  0.7246154E+02  0.7816164E-02  0.1226708E+00
        -11   -1    0    0    0    0  0.00000000000E+00  0.00000000000E+00  0.45593999997E+02  0.45594000000E+02  0.51100000000E-03 0. -1.
         11   -1    0    0    0    0 -0.00000000000E+00 -0.00000000000E+00 -0.45593999997E+02  0.45594000000E+02  0.51100000000E-03 0.  1.
    9900012    2    1    2    0    0 -0.73339157875E+01 -0.16534371337E+02  0.48485728664E+01  0.72461537036E+02  0.69999956675E+02 0.  0.
        -12    1    1    2    0    0  0.73339157875E+01  0.16534371337E+02 -0.48485728664E+01  0.18726462964E+02  0.00000000000E+00 0.  1.
         11    1    3    3    0    0  0.12354132420E+02 -0.11802535615E+02  0.10322062723E+02  0.19961698673E+02  0.51100000000E-03 0.  1.
        -11    1    3    3    0    0 -0.91585504742E+01  0.11459476738E+02  0.17271674826E+02  0.22660745916E+02  0.51100000000E-03 0. -1.
         12    1    3    3    0    0 -0.10529497733E+02 -0.16191312459E+02 -0.22745164683E+02  0.29839092448E+02  0.00000000000E+00 0. -1.
</event>
<event>
 7    1  0.3508738E-013  0.7246155E+02  0.7816164E-02  0.1226708E+00
        -11   -1    0    0    0    0  0.00000000000E+00  0.00000000000E+00  0.45593999997E+02  0.45594000000E+02  0.51100000000E-03 0.  1.
         11   -1    0    0    0    0 -0.00000000000E+00 -0.00000000000E+00 -0.45593999997E+02  0.45594000000E+02  0.51100000000E-03 0. -1.
    9900012    2    1    2    0    0 -0.15041472095E+02 -0.51183265119E+01  0.99114401233E+01  0.72461553611E+02  0.69999978266E+02 0.  0.
        -12    1    1    2    0    0  0.15041472095E+02  0.51183265119E+01 -0.99114401233E+01  0.18726446389E+02  0.00000000000E+00 0.  1.
         11    1    3    3    0    0  0.50341965157E+01  0.19219994531E+02  0.20402465930E+02  0.28478271377E+02  0.51100000000E-03 0. -1.
        -11    1    3    3    0    0  0.59932997260E+01  0.91876640907E+00  0.42959364060E+00  0.60785133279E+01  0.51100000000E-03 0.  1.
        -12    1    3    3    0    0 -0.26068968336E+02 -0.25257087452E+02 -0.10920619448E+02  0.37904768906E+02  0.00000000000E+00 0.  1.
</event>
<event>
 7    1  0.3508738E-013  0.7246154E+02  0.7816164E-02  0.1226708E+00
        -11   -1    0    0    0    0  0.00000000000E+00  0.00000000000E+00  0.45593999997E+02  0.45594000000E+02  0.51100000000E-03 0.  1.
         11   -1    0    0    0    0 -0.00000000000E+00 -0.00000000000E+00 -0.45593999997E+02  0.45594000000E+02  0.51100000000E-03 0. -1.
    9900012    2    1    2    0    0 -0.16019990358E+02  0.89744960998E+01 -0.36740248972E+01  0.72461544642E+02  0.69999966583E+02 0.  0.
        -12    1    1    2    0    0  0.16019990358E+02 -0.89744960998E+01  0.36740248972E+01  0.18726455358E+02  0.00000000000E+00 0.  1.
         11    1    3    3    0    0  0.55795691236E+01 -0.32538916979E+01 -0.14779093784E+02  0.16128887628E+02  0.51100000000E-03 0. -1.
        -11    1    3    3    0    0  0.70169980584E+01 -0.78725107816E+01 -0.10778309681E+02  0.15079345065E+02  0.51100000000E-03 0.  1.
        -12    1    3    3    0    0 -0.28616557540E+02  0.20100898579E+02  0.21883378568E+02  0.41253311948E+02  0.00000000000E+00 0.  1.
</event>
<event>
 7    1  0.3508738E-013  0.7246158E+02  0.7816164E-02  0.1226708E+00
        -11   -1    0    0    0    0  0.00000000000E+00  0.00000000000E+00  0.45593999997E+02  0.45594000000E+02  0.51100000000E-03 0.  1.
         11   -1    0    0    0    0 -0.00000000000E+00 -0.00000000000E+00 -0.45593999997E+02  0.45594000000E+02  0.51100000000E-03 0. -1.
    9900012    2    1    2    0    0 -0.15294891877E+02 -0.61472000515E+01 -0.88857806734E+01  0.72461577913E+02  0.70000009925E+02 0.  0.
        -12    1    1    2    0    0  0.15294891877E+02  0.61472000515E+01  0.88857806734E+01  0.18726422087E+02  0.00000000000E+00 0.  1.
         11    1    3    3    0    0 -0.65003015712E+01 -0.31623188322E+02 -0.66246102720E+01  0.32957023860E+02  0.51100000000E-03 0. -1.
        -11    1    3    3    0    0  0.56106844197E+00 -0.51029004052E+01  0.44916796027E+01  0.68212591401E+01  0.51100000000E-03 0.  1.
        -12    1    3    3    0    0 -0.93556587476E+01  0.30578888676E+02 -0.67528500040E+01  0.32683294914E+02  0.00000000000E+00 0.  1.
</event>
<event>
 7    1  0.3508738E-013  0.7246130E+02  0.7816164E-02  0.1226709E+00
        -11   -1    0    0    0    0  0.00000000000E+00  0.00000000000E+00  0.45593999997E+02  0.45594000000E+02  0.51100000000E-03 0. -1.
         11   -1    0    0    0    0 -0.00000000000E+00 -0.00000000000E+00 -0.45593999997E+02  0.45594000000E+02  0.51100000000E-03 0.  1.
    9900012    2    1    2    0    0 -0.16899410699E+02 -0.25180605156E+01  0.76654241474E+01  0.72461296123E+02  0.69999642840E+02 0.  0.
        -12    1    1    2    0    0  0.16899410699E+02  0.25180605156E+01 -0.76654241474E+01  0.18726703877E+02  0.00000000000E+00 0.  1.
         11    1    3    3    0    0  0.16232029557E+02  0.19297275682E+02  0.10126649942E+02  0.27173749678E+02  0.51100000000E-03 0. -1.
        -11    1    3    3    0    0 -0.52486472475E+01  0.41687119796E+00  0.66488346429E+01  0.84811014552E+01  0.51100000000E-03 0.  1.
        -12    1    3    3    0    0 -0.27882793008E+02 -0.22232207395E+02 -0.91100604371E+01  0.36806444990E+02  0.00000000000E+00 0.  1.
</event>
<event>
 7    1  0.3508738E-013  0.7246161E+02  0.7816164E-02  0.1226708E+00
        -11   -1    0    0    0    0  0.00000000000E+00  0.00000000000E+00  0.45593999997E+02  0.45594000000E+02  0.51100000000E-03 0. -1.
         11   -1    0    0    0    0 -0.00000000000E+00 -0.00000000000E+00 -0.45593999997E+02  0.45594000000E+02  0.51100000000E-03 0.  1.
    9900012    2    1    2    0    0 -0.17407741852E+01 -0.11675646779E+01  0.18608712922E+02  0.72461609567E+02  0.70000051160E+02 0.  0.
        -12    1    1    2    0    0  0.17407741852E+01  0.11675646779E+01 -0.18608712922E+02  0.18726390433E+02  0.00000000000E+00 0.  1.
         11    1    3    3    0    0 -0.20503853271E+01 -0.20433983219E+01  0.19011505048E+02  0.19230623525E+02  0.51100000000E-03 0. -1.
        -11    1    3    3    0    0 -0.20484923922E+02  0.87497793187E+01  0.14394886593E+02  0.26521755344E+02  0.51100000000E-03 0.  1.
         12    1    3    3    0    0  0.20794535064E+02 -0.78739456747E+01 -0.14797678719E+02  0.26709230698E+02  0.00000000000E+00 0. -1.
</event>
<event>
 7    1  0.3508738E-013  0.7246156E+02  0.7816164E-02  0.1226708E+00
        -11   -1    0    0    0    0  0.00000000000E+00  0.00000000000E+00  0.45593999997E+02  0.45594000000E+02  0.51100000000E-03 0. -1.
         11   -1    0    0    0    0 -0.00000000000E+00 -0.00000000000E+00 -0.45593999997E+02  0.45594000000E+02  0.51100000000E-03 0.  1.
    9900012    2    1    2    0    0 -0.14002021397E+02 -0.12411223322E+02 -0.76456959664E+00  0.72461557887E+02  0.69999983837E+02 0.  0.
        -12    1    1    2    0    0  0.14002021397E+02  0.12411223322E+02  0.76456959664E+00  0.18726442113E+02  0.00000000000E+00 0.  1.
         11    1    3    3    0    0 -0.93862841338E+01  0.10121895309E+01  0.17363390534E+02  0.19763961865E+02  0.51100000000E-03 0. -1.
        -11    1    3    3    0    0  0.18044638106E+02  0.34316693377E+01  0.13076182442E+01  0.18414537316E+02  0.51100000000E-03 0.  1.
         12    1    3    3    0    0 -0.22660375369E+02 -0.16855082190E+02 -0.19435578375E+02  0.34283058707E+02  0.00000000000E+00 0. -1.
</event>
<event>
 7    1  0.3508738E-013  0.7246104E+02  0.7816164E-02  0.1226709E+00
        -11   -1    0    0    0    0  0.00000000000E+00  0.00000000000E+00  0.45593999997E+02  0.45594000000E+02  0.51100000000E-03 0.  1.
         11   -1    0    0    0    0 -0.00000000000E+00 -0.00000000000E+00 -0.45593999997E+02  0.45594000000E+02  0.51100000000E-03 0. -1.
    9900012    2    1    2    0    0  0.61582572173E+01 -0.39752223725E+01 -0.17232892348E+02  0.72461038059E+02  0.69999306661E+02 0.  0.
        -12    1    1    2    0    0 -0.61582572173E+01  0.39752223725E+01  0.17232892348E+02  0.18726961941E+02  0.00000000000E+00 0.  1.
         11    1    3    3    0    0 -0.15984226827E+02 -0.29502165229E+01 -0.83538603157E+01  0.18275291166E+02  0.51100000000E-03 0. -1.
        -11    1    3    3    0    0  0.46308114069E+01 -0.15785149734E+02  0.14156162102E+02  0.21702817608E+02  0.51100000000E-03 0.  1.
        -12    1    3    3    0    0  0.17511672637E+02  0.14760143884E+02 -0.23035194135E+02  0.32482929284E+02  0.00000000000E+00 0.  1.
</event>
<event>
 7    1  0.9946293E-013  0.7246157E+02  0.7816164E-02  0.1226708E+00
        -11   -1    0    0    0    0  0.00000000000E+00  0.00000000000E+00  0.45593999997E+02  0.45594000000E+02  0.51100000000E-03 0. -1.
         11   -1    0    0    0    0 -0.00000000000E+00 -0.00000000000E+00 -0.45593999997E+02  0.45594000000E+02  0.51100000000E-03 0.  1.
    9900012    2    1    2    0    0  0.80228854582E+00  0.13058300199E+02  0.13398368706E+02  0.72461570683E+02  0.70000000506E+02 0.  0.
        -12    1    1    2    0    0 -0.80228854582E+00 -0.13058300199E+02 -0.13398368706E+02  0.18726429317E+02  0.00000000000E+00 0.  1.
         11    1    3    3    0    0 -0.50252143098E+01  0.65381036460E+01  0.37733689961E+02  0.38624227325E+02  0.51100000000E-03 0. -1.
        -11    1    3    3    0    0 -0.42964521000E+01  0.74491842962E+00  0.21787299881E+01  0.48745531833E+01  0.51100000000E-03 0.  1.
        -12    1    3    3    0    0  0.10123954956E+02  0.57752781235E+01 -0.26514051243E+02  0.28962790174E+02  0.00000000000E+00 0.  1.
</event>
<event>
 7    1  0.3508738E-013  0.7246159E+02  0.7816164E-02  0.1226708E+00
        -11   -1    0    0    0    0  0.00000000000E+00  0.00000000000E+00  0.45593999997E+02  0.45594000000E+02  0.51100000000E-03 0. -1.
         11   -1    0    0    0    0 -0.00000000000E+00 -0.00000000000E+00 -0.45593999997E+02  0.45594000000E+02  0.51100000000E-03 0.  1.
    9900012    2    1    2    0    0  0.13718160386E+02 -0.10573470610E+02  0.71198565125E+01  0.72461586519E+02  0.70000021135E+02 0.  0.
        -12    1    1    2    0    0 -0.13718160386E+02  0.10573470610E+02 -0.71198565125E+01  0.18726413481E+02  0.00000000000E+00 0.  1.
         11    1    3    3    0    0 -0.22067827085E+02 -0.12385248990E+02 -0.37583202763E+01  0.25583360928E+02  0.51100000000E-03 0. -1.
        -11    1    3    3    0    0 -0.27820791241E+01 -0.46364459549E+01 -0.19136192765E+01  0.57357243956E+01  0.51100000000E-03 0.  1.
        -12    1    3    3    0    0  0.38568066595E+02  0.64482243349E+01  0.12791796065E+02  0.41142501195E+02  0.00000000000E+00 0.  1.
</event>
<event>
 7    1  0.3508738E-013  0.7246160E+02  0.7816164E-02  0.1226708E+00
        -11   -1    0    0    0    0  0.00000000000E+00  0.00000000000E+00  0.45593999997E+02  0.45594000000E+02  0.51100000000E-03 0.  1.
         11   -1    0    0    0    0 -0.00000000000E+00 -0.00000000000E+00 -0.45593999997E+02  0.45594000000E+02  0.51100000000E-03 0. -1.
    9900012    2    1    2    0    0 -0.91376332304E+01  0.16281545044E+02 -0.14466920246E+01  0.72461602378E+02  0.70000041795E+02 0.  0.
        -12    1    1    2    0    0  0.91376332304E+01 -0.16281545044E+02  0.14466920246E+01  0.18726397622E+02  0.00000000000E+00 0.  1.
         11    1    3    3    0    0 -0.23877362929E+01  0.25963322023E+02 -0.75006934243E+01  0.27130347900E+02  0.51100000000E-03 0. -1.
        -11    1    3    3    0    0  0.13939166013E+02 -0.17836443006E+02  0.41217903911E+01  0.23009306911E+02  0.51100000000E-03 0.  1.
         12    1    3    3    0    0 -0.20689062951E+02  0.81546660279E+01  0.19322110085E+01  0.22321947567E+02  0.00000000000E+00 0. -1.
</event>
<event>
 7    1  0.3676875E-013  0.7246151E+02  0.7816164E-02  0.1226708E+00
        -11   -1    0    0    0    0  0.00000000000E+00  0.00000000000E+00  0.45593999997E+02  0.45594000000E+02  0.51100000000E-03 0. -1.
         11   -1    0    0    0    0 -0.00000000000E+00 -0.00000000000E+00 -0.45593999997E+02  0.45594000000E+02  0.51100000000E-03 0.  1.
    9900012    2    1    2    0    0  0.16841020878E+02  0.53997804447E+01  0.61565974896E+01  0.72461513258E+02  0.69999925699E+02 0.  0.
        -12    1    1    2    0    0 -0.16841020878E+02 -0.53997804447E+01 -0.61565974896E+01  0.18726486742E+02  0.00000000000E+00 0.  1.
         11    1    3    3    0    0  0.27170755111E+02  0.78967606715E+01  0.17253665697E+02  0.33140575472E+02  0.51100000000E-03 0. -1.
        -11    1    3    3    0    0  0.12874932106E+01 -0.15464531833E+02  0.42744060598E+01  0.16095960083E+02  0.51100000000E-03 0.  1.
        -12    1    3    3    0    0 -0.11617227444E+02  0.12967551606E+02 -0.15371474267E+02  0.23224977702E+02  0.00000000000E+00 0.  1.
</event>
<event>
 7    1  0.3508738E-013  0.7246158E+02  0.7816164E-02  0.1226708E+00
        -11   -1    0    0    0    0  0.00000000000E+00  0.00000000000E+00  0.45593999997E+02  0.45594000000E+02  0.51100000000E-03 0.  1.
         11   -1    0    0    0    0 -0.00000000000E+00 -0.00000000000E+00 -0.45593999997E+02  0.45594000000E+02  0.51100000000E-03 0. -1.
    9900012    2    1    2    0    0 -0.10694217929E+02 -0.10176661271E+02 -0.11521642486E+02  0.72461575427E+02  0.70000006686E+02 0.  0.
        -12    1    1    2    0    0  0.10694217929E+02  0.10176661271E+02  0.11521642486E+02  0.18726424573E+02  0.00000000000E+00 0.  1.
         11    1    3    3    0    0 -0.51737575742E+01  0.76394475672E+01 -0.70813776140E+00  0.92536687816E+01  0.51100000000E-03 0. -1.
        -11    1    3    3    0    0 -0.95902145125E+00  0.19750158006E+02 -0.15435205692E+02  0.25084537836E+02  0.51100000000E-03 0.  1.
         12    1    3    3    0    0 -0.45614389033E+01 -0.37566266845E+02  0.46217009680E+01  0.38123368809E+02  0.00000000000E+00 0. -1.
</event>
<event>
 7    1  0.3508738E-013  0.7246155E+02  0.7816164E-02  0.1226708E+00
        -11   -1    0    0    0    0  0.00000000000E+00  0.00000000000E+00  0.45593999997E+02  0.45594000000E+02  0.51100000000E-03 0. -1.
         11   -1    0    0    0    0 -0.00000000000E+00 -0.00000000000E+00 -0.45593999997E+02  0.45594000000E+02  0.51100000000E-03 0.  1.
    9900012    2    1    2    0    0 -0.13736806813E+02 -0.52906861137E+00  0.12716142091E+02  0.72461546927E+02  0.69999969559E+02 0.  0.
        -12    1    1    2    0    0  0.13736806813E+02  0.52906861137E+00 -0.12716142091E+02  0.18726453073E+02  0.00000000000E+00 0.  1.
         11    1    3    3    0    0 -0.32644797255E+02 -0.21941612197E+01  0.22021441559E+02  0.39439079856E+02  0.51100000000E-03 0. -1.
        -11    1    3    3    0    0 -0.47972307943E+00  0.10198072316E+02 -0.51561174366E+01  0.11437497999E+02  0.51100000000E-03 0.  1.
        -12    1    3    3    0    0  0.19387713522E+02 -0.85329797076E+01 -0.41491820315E+01  0.21584969072E+02  0.00000000000E+00 0.  1.
</event>
<event>
 7    1  0.3508738E-013  0.7246108E+02  0.7816164E-02  0.1226709E+00
        -11   -1    0    0    0    0  0.00000000000E+00  0.00000000000E+00  0.45593999997E+02  0.45594000000E+02  0.51100000000E-03 0.  1.
         11   -1    0    0    0    0 -0.00000000000E+00 -0.00000000000E+00 -0.45593999997E+02  0.45594000000E+02  0.51100000000E-03 0. -1.
    9900012    2    1    2    0    0 -0.14537407060E+02 -0.10313077735E+02 -0.57447047785E+01  0.72461083292E+02  0.69999365586E+02 0.  0.
        -12    1    1    2    0    0  0.14537407060E+02  0.10313077735E+02  0.57447047785E+01  0.18726916708E+02  0.00000000000E+00 0.  1.
         11    1    3    3    0    0  0.14935659304E+02 -0.66684930719E+01  0.96184316906E+01  0.18975166591E+02  0.51100000000E-03 0. -1.
        -11    1    3    3    0    0  0.17588485764E+01 -0.15305612508E+02 -0.12835180628E+02  0.20052361073E+02  0.51100000000E-03 0.  1.
         12    1    3    3    0    0 -0.31231914940E+02  0.11661027845E+02 -0.25279558409E+01  0.33433555629E+02  0.00000000000E+00 0. -1.
</event>
<event>
 7    1  0.3508738E-013  0.7246158E+02  0.7816164E-02  0.1226708E+00
        -11   -1    0    0    0    0  0.00000000000E+00  0.00000000000E+00  0.45593999997E+02  0.45594000000E+02  0.51100000000E-03 0.  1.
         11   -1    0    0    0    0 -0.00000000000E+00 -0.00000000000E+00 -0.45593999997E+02  0.45594000000E+02  0.51100000000E-03 0. -1.
    9900012    2    1    2    0    0 -0.88045779652E+01  0.16325561764E+02 -0.25757291862E+01  0.72461576399E+02  0.70000007952E+02 0.  0.
        -12    1    1    2    0    0  0.88045779652E+01 -0.16325561764E+02  0.25757291862E+01  0.18726423601E+02  0.00000000000E+00 0.  1.
         11    1    3    3    0    0  0.16305334634E+02  0.74729319819E+01 -0.20370805911E+02  0.27141819830E+02  0.51100000000E-03 0. -1.
        -11    1    3    3    0    0 -0.18692018659E+02  0.12191933039E+02 -0.37166451898E+01  0.22624063395E+02  0.51100000000E-03 0.  1.
        -12    1    3    3    0    0 -0.64178939399E+01 -0.33393032565E+01  0.21511721915E+02  0.22695693173E+02  0.00000000000E+00 0.  1.
</event>
<event>
 7    1  0.3508738E-013  0.7246147E+02  0.7816164E-02  0.1226708E+00
        -11   -1    0    0    0    0  0.00000000000E+00  0.00000000000E+00  0.45593999997E+02  0.45594000000E+02  0.51100000000E-03 0.  1.
         11   -1    0    0    0    0 -0.00000000000E+00 -0.00000000000E+00 -0.45593999997E+02  0.45594000000E+02  0.51100000000E-03 0. -1.
    9900012    2    1    2    0    0  0.47785188772E+01 -0.43258761525E+01 -0.17582252680E+02  0.72461466513E+02  0.69999864805E+02 0.  0.
        -12    1    1    2    0    0 -0.47785188772E+01  0.43258761525E+01  0.17582252680E+02  0.18726533487E+02  0.00000000000E+00 0.  1.
         11    1    3    3    0    0 -0.57513375129E+01  0.13472969240E+00  0.41962606209E+00  0.57681991618E+01  0.51100000000E-03 0. -1.
        -11    1    3    3    0    0 -0.32409198651E+01  0.15936268482E+02  0.17245801619E+02  0.23704132307E+02  0.51100000000E-03 0.  1.
         12    1    3    3    0    0  0.13770776255E+02 -0.20396874327E+02 -0.35247680361E+02  0.42989135044E+02  0.00000000000E+00 0. -1.
</event>
<event>
 7    1  0.3508738E-013  0.7246157E+02  0.7816164E-02  0.1226708E+00
        -11   -1    0    0    0    0  0.00000000000E+00  0.00000000000E+00  0.45593999997E+02  0.45594000000E+02  0.51100000000E-03 0.  1.
         11   -1    0    0    0    0 -0.00000000000E+00 -0.00000000000E+00 -0.45593999997E+02  0.45594000000E+02  0.51100000000E-03 0. -1.
    9900012    2    1    2    0    0 -0.18050033922E+02 -0.33251354365E+01 -0.37174052277E+01  0.72461565426E+02  0.69999993658E+02 0.  0.
        -12    1    1    2    0    0  0.18050033922E+02  0.33251354365E+01  0.37174052277E+01  0.18726434574E+02  0.00000000000E+00 0.  1.
         11    1    3    3    0    0  0.86154453236E+00  0.80052082415E+01  0.97854929658E+01  0.12672075237E+02  0.51100000000E-03 0. -1.
        -11    1    3    3    0    0 -0.99655952588E+01  0.18768071046E+02  0.69014607903E+01  0.22342420213E+02  0.51100000000E-03 0.  1.
         12    1    3    3    0    0 -0.89459831951E+01 -0.30098414724E+02 -0.20404358984E+02  0.37447069976E+02  0.00000000000E+00 0. -1.
</event>
<event>
 7    1  0.3508738E-013  0.7246164E+02  0.7816164E-02  0.1226708E+00
        -11   -1    0    0    0    0  0.00000000000E+00  0.00000000000E+00  0.45593999997E+02  0.45594000000E+02  0.51100000000E-03 0. -1.
         11   -1    0    0    0    0 -0.00000000000E+00 -0.00000000000E+00 -0.45593999997E+02  0.45594000000E+02  0.51100000000E-03 0.  1.
    9900012    2    1    2    0    0 -0.60453945327E+01 -0.20956293005E+01  0.17599381125E+02  0.72461636946E+02  0.70000086827E+02 0.  0.
        -12    1    1    2    0    0  0.60453945327E+01  0.20956293005E+01 -0.17599381125E+02  0.18726363054E+02  0.00000000000E+00 0.  1.
         11    1    3    3    0    0  0.65022299371E+01 -0.18523293228E+02  0.19727090195E+02  0.27830728952E+02  0.51100000000E-03 0. -1.
        -11    1    3    3    0    0 -0.54238211210E+01 -0.12062684326E+02 -0.68364079136E+01  0.14888339804E+02  0.51100000000E-03 0.  1.
         12    1    3    3    0    0 -0.71238033488E+01  0.28490348254E+02  0.47086988437E+01  0.29742568190E+02  0.00000000000E+00 0. -1.
</event>
<event>
 7    1  0.3508738E-013  0.7246163E+02  0.7816164E-02  0.1226708E+00
        -11   -1    0    0    0    0  0.00000000000E+00  0.00000000000E+00  0.45593999997E+02  0.45594000000E+02  0.51100000000E-03 0. -1.
         11   -1    0    0    0    0 -0.00000000000E+00 -0.00000000000E+00 -0.45593999997E+02  0.45594000000E+02  0.51100000000E-03 0.  1.
    9900012    2    1    2    0    0  0.12614749896E+02 -0.11934884872E+02  0.70074042937E+01  0.72461625370E+02  0.70000071746E+02 0.  0.
        -12    1    1    2    0    0 -0.12614749896E+02  0.11934884872E+02 -0.70074042937E+01  0.18726374630E+02  0.00000000000E+00 0.  1.
         11    1    3    3    0    0 -0.93075147044E+01 -0.30990707661E+01 -0.14673978535E+01  0.99190385778E+01  0.51100000000E-03 0. -1.
        -11    1    3    3    0    0  0.28882681889E+02  0.10190045618E+02 -0.12773166464E+02  0.33184335530E+02  0.51100000000E-03 0.  1.
         12    1    3    3    0    0 -0.69604172890E+01 -0.19025859723E+02  0.21247968611E+02  0.29358251262E+02  0.00000000000E+00 0. -1.
</event>
<event>
 7    1  0.3508738E-013  0.7246160E+02  0.7816164E-02  0.1226708E+00
        -11   -1    0    0    0    0  0.00000000000E+00  0.00000000000E+00  0.45593999997E+02  0.45594000000E+02  0.51100000000E-03 0. -1.
         11   -1    0    0    0    0 -0.00000000000E+00 -0.00000000000E+00 -0.45593999997E+02  0.45594000000E+02  0.51100000000E-03 0.  1.
    9900012    2    1    2    0    0  0.70824278575E+01 -0.95538055720E+01  0.14465205379E+02  0.72461597464E+02  0.70000035394E+02 0.  0.
        -12    1    1    2    0    0 -0.70824278575E+01  0.95538055720E+01 -0.14465205379E+02  0.18726402536E+02  0.00000000000E+00 0.  1.
         11    1    3    3    0    0  0.18300612586E+02 -0.59597775056E+01  0.91204840739E+00  0.19268191444E+02  0.51100000000E-03 0. -1.
        -11    1    3    3    0    0  0.22008046990E+01  0.10769856584E+02 -0.14958060891E+02  0.18562783683E+02  0.51100000000E-03 0.  1.
        -12    1    3    3    0    0 -0.13418989428E+02 -0.14363884650E+02  0.28511217863E+02  0.34630622338E+02  0.00000000000E+00 0.  1.
</event>
<event>
 7    1  0.3508738E-013  0.7246160E+02  0.7816164E-02  0.1226708E+00
        -11   -1    0    0    0    0  0.00000000000E+00  0.00000000000E+00  0.45593999997E+02  0.45594000000E+02  0.51100000000E-03 0.  1.
         11   -1    0    0    0    0 -0.00000000000E+00 -0.00000000000E+00 -0.45593999997E+02  0.45594000000E+02  0.51100000000E-03 0. -1.
    9900012    2    1    2    0    0 -0.16253468221E+02 -0.30775076898E+01 -0.87767839064E+01  0.72461595686E+02  0.70000033077E+02 0.  0.
        -12    1    1    2    0    0  0.16253468221E+02  0.30775076898E+01  0.87767839064E+01  0.18726404314E+02  0.00000000000E+00 0.  1.
         11    1    3    3    0    0  0.20545515928E+01  0.48963013107E+01  0.28991691103E+00  0.53178003769E+01  0.51100000000E-03 0. -1.
        -11    1    3    3    0    0  0.18330216518E+02 -0.80340546249E+01  0.13474367123E+02  0.24126778503E+02  0.51100000000E-03 0.  1.
         12    1    3    3    0    0 -0.36638236332E+02  0.60245624387E-01 -0.22541067940E+02  0.43017016806E+02  0.00000000000E+00 0. -1.
</event>
<event>
 7    1  0.3508738E-013  0.7246158E+02  0.7816164E-02  0.1226708E+00
        -11   -1    0    0    0    0  0.00000000000E+00  0.00000000000E+00  0.45593999997E+02  0.45594000000E+02  0.51100000000E-03 0. -1.
         11   -1    0    0    0    0 -0.00000000000E+00 -0.00000000000E+00 -0.45593999997E+02  0.45594000000E+02  0.51100000000E-03 0.  1.
    9900012    2    1    2    0    0 -0.85311780765E+00 -0.12818688736E+02  0.13624696589E+02  0.72461576208E+02  0.70000007703E+02 0.  0.
        -12    1    1    2    0    0  0.85311780765E+00  0.12818688736E+02 -0.13624696589E+02  0.18726423792E+02  0.00000000000E+00 0.  1.
         11    1    3    3    0    0  0.44446026883E+01 -0.34367230860E+02  0.11419765513E+00  0.34653630278E+02  0.51100000000E-03 0. -1.
        -11    1    3    3    0    0 -0.75099751581E+01  0.35284220735E+01 -0.66820560042E+01  0.10653607929E+02  0.51100000000E-03 0.  1.
        -12    1    3    3    0    0  0.22122546621E+01  0.18020120050E+02  0.20192554938E+02  0.27154338001E+02  0.00000000000E+00 0.  1.
</event>
<event>
 7    1  0.3508738E-013  0.7246157E+02  0.7816164E-02  0.1226708E+00
        -11   -1    0    0    0    0  0.00000000000E+00  0.00000000000E+00  0.45593999997E+02  0.45594000000E+02  0.51100000000E-03 0.  1.
         11   -1    0    0    0    0 -0.00000000000E+00 -0.00000000000E+00 -0.45593999997E+02  0.45594000000E+02  0.51100000000E-03 0. -1.
    9900012    2    1    2    0    0  0.96667570289E+01  0.13909987628E+01 -0.15978047227E+02  0.72461573160E+02  0.70000003733E+02 0.  0.
        -12    1    1    2    0    0 -0.96667570289E+01 -0.13909987628E+01  0.15978047227E+02  0.18726426840E+02  0.00000000000E+00 0.  1.
         11    1    3    3    0    0  0.21724319238E+02 -0.14132040042E+02 -0.12505287584E+02  0.28775733178E+02  0.51100000000E-03 0. -1.
        -11    1    3    3    0    0  0.83500374891E+01  0.20450373667E+02 -0.49593379470E+01  0.22639256665E+02  0.51100000000E-03 0.  1.
         12    1    3    3    0    0 -0.20407599698E+02 -0.49273348622E+01  0.14865783038E+01  0.21046583318E+02  0.00000000000E+00 0. -1.
</event>
<event>
 7    1  0.3508738E-013  0.7246169E+02  0.7816164E-02  0.1226708E+00
        -11   -1    0    0    0    0  0.00000000000E+00  0.00000000000E+00  0.45593999997E+02  0.45594000000E+02  0.51100000000E-03 0. -1.
         11   -1    0    0    0    0 -0.00000000000E+00 -0.00000000000E+00 -0.45593999997E+02  0.45594000000E+02  0.51100000000E-03 0.  1.
    9900012    2    1    2    0    0  0.46209469950E+01  0.13882455382E+02  0.11687548922E+02  0.72461694482E+02  0.70000161777E+02 0.  0.
        -12    1    1    2    0    0 -0.46209469950E+01 -0.13882455382E+02 -0.11687548922E+02  0.18726305518E+02  0.00000000000E+00 0.  1.
         11    1    3    3    0    0  0.19625535636E+01 -0.26942800179E+02  0.63140351462E+01  0.27742262670E+02  0.51100000000E-03 0.  1.
        -11    1    3    3    0    0 -0.44141806527E+01  0.22066835579E+02  0.91967206763E+01  0.24310695069E+02  0.51100000000E-03 0. -1.
        -12    1    3    3    0    0  0.70725740841E+01  0.18758419983E+02 -0.38232069008E+01  0.20408736742E+02  0.00000000000E+00 0.  1.
</event>
<event>
 7    1  0.3508738E-013  0.7246156E+02  0.7816164E-02  0.1226708E+00
        -11   -1    0    0    0    0  0.00000000000E+00  0.00000000000E+00  0.45593999997E+02  0.45594000000E+02  0.51100000000E-03 0. -1.
         11   -1    0    0    0    0 -0.00000000000E+00 -0.00000000000E+00 -0.45593999997E+02  0.45594000000E+02  0.51100000000E-03 0.  1.
    9900012    2    1    2    0    0 -0.10429565134E+02 -0.46456297226E+01  0.14843238124E+02  0.72461563542E+02  0.69999991203E+02 0.  0.
        -12    1    1    2    0    0  0.10429565134E+02  0.46456297226E+01 -0.14843238124E+02  0.18726436458E+02  0.00000000000E+00 0.  1.
         11    1    3    3    0    0 -0.10327646966E+02 -0.34668361607E+01 -0.18062466231E+02  0.21093409668E+02  0.51100000000E-03 0. -1.
        -11    1    3    3    0    0 -0.17348787367E+01  0.18293126610E+02  0.23065341665E+02  0.29489969003E+02  0.51100000000E-03 0.  1.
        -12    1    3    3    0    0  0.16329605681E+01 -0.19471920172E+02  0.98403626902E+01  0.21878184871E+02  0.00000000000E+00 0.  1.
</event>
<event>
 7    1  0.3508738E-013  0.7246155E+02  0.7816164E-02  0.1226708E+00
        -11   -1    0    0    0    0  0.00000000000E+00  0.00000000000E+00  0.45593999997E+02  0.45594000000E+02  0.51100000000E-03 0. -1.
         11   -1    0    0    0    0 -0.00000000000E+00 -0.00000000000E+00 -0.45593999997E+02  0.45594000000E+02  0.51100000000E-03 0.  1.
    9900012    2    1    2    0    0  0.71624687739E+01  0.16706961952E+02 -0.45007300658E+01  0.72461545244E+02  0.69999967367E+02 0.  0.
        -12    1    1    2    0    0 -0.71624687739E+01 -0.16706961952E+02  0.45007300658E+01  0.18726454756E+02  0.00000000000E+00 0.  1.
         11    1    3    3    0    0  0.76736080227E+01  0.44870170126E+00  0.12822583350E+00  0.76877848193E+01  0.51100000000E-03 0. -1.
        -11    1    3    3    0    0  0.45576830349E+01  0.40014241632E+02 -0.40504316270E+01  0.40476141178E+02  0.51100000000E-03 0.  1.
         12    1    3    3    0    0 -0.50688222838E+01 -0.23755981381E+02 -0.57852427231E+00  0.24297619247E+02  0.00000000000E+00 0. -1.
</event>
<event>
 7    1  0.3508738E-013  0.7246160E+02  0.7816164E-02  0.1226708E+00
        -11   -1    0    0    0    0  0.00000000000E+00  0.00000000000E+00  0.45593999997E+02  0.45594000000E+02  0.51100000000E-03 0.  1.
         11   -1    0    0    0    0 -0.00000000000E+00 -0.00000000000E+00 -0.45593999997E+02  0.45594000000E+02  0.51100000000E-03 0. -1.
    9900012    2    1    2    0    0 -0.37197735759E+01  0.34882861033E+01 -0.18018688514E+02  0.72461601757E+02  0.70000040986E+02 0.  0.
        -12    1    1    2    0    0  0.37197735759E+01 -0.34882861033E+01  0.18018688514E+02  0.18726398243E+02  0.00000000000E+00 0.  1.
         11    1    3    3    0    0 -0.20981909392E+02 -0.17102856856E+02 -0.14558020373E+02  0.30735715248E+02  0.51100000000E-03 0. -1.
        -11    1    3    3    0    0  0.13971192620E+01  0.14608171981E+02 -0.15180564679E+02  0.21113980560E+02  0.51100000000E-03 0.  1.
        -12    1    3    3    0    0  0.15865016554E+02  0.59829709787E+01  0.11719896537E+02  0.20611905949E+02  0.00000000000E+00 0.  1.
</event>
<event>
 7    1  0.3508738E-013  0.7246155E+02  0.7816164E-02  0.1226708E+00
        -11   -1    0    0    0    0  0.00000000000E+00  0.00000000000E+00  0.45593999997E+02  0.45594000000E+02  0.51100000000E-03 0.  1.
         11   -1    0    0    0    0 -0.00000000000E+00 -0.00000000000E+00 -0.45593999997E+02  0.45594000000E+02  0.51100000000E-03 0. -1.
    9900012    2    1    2    0    0  0.48679585638E+01  0.68279289959E+01 -0.16744022859E+02  0.72461549817E+02  0.69999973324E+02 0.  0.
        -12    1    1    2    0    0 -0.48679585638E+01 -0.68279289959E+01  0.16744022859E+02  0.18726450183E+02  0.00000000000E+00 0.  1.
         11    1    3    3    0    0  0.15810951976E+02 -0.15514473726E+02 -0.12194665877E+02  0.25286260568E+02  0.51100000000E-03 0. -1.
        -11    1    3    3    0    0 -0.40194841823E+01 -0.75683034855E+01 -0.12782281710E+02  0.15389028452E+02  0.51100000000E-03 0.  1.
        -12    1    3    3    0    0 -0.69235092302E+01  0.29910706207E+02  0.82329247279E+01  0.31786260797E+02  0.00000000000E+00 0.  1.
</event>
<event>
 7    1  0.3508738E-013  0.7246158E+02  0.7816164E-02  0.1226708E+00
        -11   -1    0    0    0    0  0.00000000000E+00  0.00000000000E+00  0.45593999997E+02  0.45594000000E+02  0.51100000000E-03 0. -1.
         11   -1    0    0    0    0 -0.00000000000E+00 -0.00000000000E+00 -0.45593999997E+02  0.45594000000E+02  0.51100000000E-03 0.  1.
    9900012    2    1    2    0    0 -0.15952169772E+02  0.77937577440E+01  0.59552055741E+01  0.72461578728E+02  0.70000010987E+02 0.  0.
        -12    1    1    2    0    0  0.15952169772E+02 -0.77937577440E+01 -0.59552055741E+01  0.18726421272E+02  0.00000000000E+00 0.  1.
         11    1    3    3    0    0 -0.39620326819E+01 -0.15316292608E+02  0.16566540442E+01  0.15906948957E+02  0.51100000000E-03 0. -1.
        -11    1    3    3    0    0  0.18705019104E+02  0.12405032730E+02 -0.44679358370E+01  0.22885039384E+02  0.51100000000E-03 0.  1.
         12    1    3    3    0    0 -0.30695156194E+02  0.10705017622E+02  0.87664873669E+01  0.33669590387E+02  0.00000000000E+00 0. -1.
</event>
<event>
 7    1  0.3508738E-013  0.7246151E+02  0.7816164E-02  0.1226708E+00
        -11   -1    0    0    0    0  0.00000000000E+00  0.00000000000E+00  0.45593999997E+02  0.45594000000E+02  0.51100000000E-03 0.  1.
         11   -1    0    0    0    0 -0.00000000000E+00 -0.00000000000E+00 -0.45593999997E+02  0.45594000000E+02  0.51100000000E-03 0. -1.
    9900012    2    1    2    0    0 -0.12342199614E+02  0.10265916609E+02  0.96416963831E+01  0.72461514898E+02  0.69999927836E+02 0.  0.
        -12    1    1    2    0    0  0.12342199614E+02 -0.10265916609E+02 -0.96416963831E+01  0.18726485102E+02  0.00000000000E+00 0.  1.
         11    1    3    3    0    0  0.11338410201E+02  0.13727977059E+02  0.93750429478E+01  0.20122334122E+02  0.51100000000E-03 0. -1.
        -11    1    3    3    0    0 -0.17899522643E+02  0.19109479870E+02  0.86525522211E+01  0.27575927763E+02  0.51100000000E-03 0.  1.
         12    1    3    3    0    0 -0.57810871718E+01 -0.22571540320E+02 -0.83858987858E+01  0.24763253013E+02  0.00000000000E+00 0. -1.
</event>
<event>
 7    1  0.3508738E-013  0.7246155E+02  0.7816164E-02  0.1226708E+00
        -11   -1    0    0    0    0  0.00000000000E+00  0.00000000000E+00  0.45593999997E+02  0.45594000000E+02  0.51100000000E-03 0. -1.
         11   -1    0    0    0    0 -0.00000000000E+00 -0.00000000000E+00 -0.45593999997E+02  0.45594000000E+02  0.51100000000E-03 0.  1.
    9900012    2    1    2    0    0  0.89401846717E+01 -0.97418074659E+01  0.13260851024E+02  0.72461551203E+02  0.69999975130E+02 0.  0.
        -12    1    1    2    0    0 -0.89401846717E+01  0.97418074659E+01 -0.13260851024E+02  0.18726448797E+02  0.00000000000E+00 0.  1.
         11    1    3    3    0    0  0.17004799266E+02 -0.83056811060E+01  0.27711368545E+01  0.19126597618E+02  0.51100000000E-03 0. -1.
        -11    1    3    3    0    0 -0.15766314127E+01  0.22931631378E+02 -0.52918090972E+01  0.23587045767E+02  0.51100000000E-03 0.  1.
         12    1    3    3    0    0 -0.64879831811E+01 -0.24367757738E+02  0.15781523267E+02  0.29747907818E+02  0.00000000000E+00 0. -1.
</event>
<event>
 7    1  0.3508738E-013  0.7246148E+02  0.7816164E-02  0.1226708E+00
        -11   -1    0    0    0    0  0.00000000000E+00  0.00000000000E+00  0.45593999997E+02  0.45594000000E+02  0.51100000000E-03 0.  1.
         11   -1    0    0    0    0 -0.00000000000E+00 -0.00000000000E+00 -0.45593999997E+02  0.45594000000E+02  0.51100000000E-03 0. -1.
    9900012    2    1    2    0    0  0.10091586472E+02  0.48809050477E+01  0.15000644331E+02  0.72461476512E+02  0.69999877831E+02 0.  0.
        -12    1    1    2    0    0 -0.10091586472E+02 -0.48809050477E+01 -0.15000644331E+02  0.18726523488E+02  0.00000000000E+00 0.  1.
         11    1    3    3    0    0  0.51561944101E+01  0.47833691803E+01 -0.22147634065E+02  0.23237569934E+02  0.51100000000E-03 0. -1.
        -11    1    3    3    0    0  0.28341170856E+00 -0.11628633219E+01 -0.58424816209E+01  0.59638213466E+01  0.51100000000E-03 0.  1.
        -12    1    3    3    0    0  0.46519803535E+01  0.12603991893E+01  0.42990760017E+02  0.43260085231E+02  0.00000000000E+00 0.  1.
</event>
<event>
 7    1  0.3508738E-013  0.7246155E+02  0.7816164E-02  0.1226708E+00
        -11   -1    0    0    0    0  0.00000000000E+00  0.00000000000E+00  0.45593999997E+02  0.45594000000E+02  0.51100000000E-03 0. -1.
         11   -1    0    0    0    0 -0.00000000000E+00 -0.00000000000E+00 -0.45593999997E+02  0.45594000000E+02  0.51100000000E-03 0.  1.
    9900012    2    1    2    0    0 -0.21254484277E+01  0.11323028983E+02  0.14763177984E+02  0.72461549708E+02  0.69999973182E+02 0.  0.
        -12    1    1    2    0    0  0.21254484277E+01 -0.11323028983E+02 -0.14763177984E+02  0.18726450292E+02  0.00000000000E+00 0.  1.
         11    1    3    3    0    0 -0.11807287024E+02 -0.10929526547E+02 -0.19766112095E+02  0.25486580096E+02  0.51100000000E-03 0. -1.
        -11    1    3    3    0    0 -0.63447381113E+00  0.15916595720E+02  0.80249416342E+01  0.17836486897E+02  0.51100000000E-03 0.  1.
        -12    1    3    3    0    0  0.10316312407E+02  0.63359598096E+01  0.26504348444E+02  0.29138482714E+02  0.00000000000E+00 0.  1.
</event>
<event>
 7    1  0.3508738E-013  0.7246216E+02  0.7816164E-02  0.1226706E+00
        -11   -1    0    0    0    0  0.00000000000E+00  0.00000000000E+00  0.45593999997E+02  0.45594000000E+02  0.51100000000E-03 0. -1.
         11   -1    0    0    0    0 -0.00000000000E+00 -0.00000000000E+00 -0.45593999997E+02  0.45594000000E+02  0.51100000000E-03 0.  1.
    9900012    2    1    2    0    0  0.89202303150E+00 -0.17595631602E+02  0.63446892073E+01  0.72462161229E+02  0.70000769798E+02 0.  0.
        -12    1    1    2    0    0 -0.89202303150E+00  0.17595631602E+02 -0.63446892073E+01  0.18725838771E+02  0.00000000000E+00 0.  1.
         11    1    3    3    0    0  0.13593318214E+02 -0.97748159829E+01 -0.21652414285E+01  0.16882345758E+02  0.51100000000E-03 0. -1.
        -11    1    3    3    0    0 -0.16429974563E+02 -0.19769228401E+02 -0.14407063365E+02  0.29467438483E+02  0.51100000000E-03 0.  1.
         12    1    3    3    0    0  0.37286793801E+01  0.11948412782E+02  0.22916994000E+02  0.26112376988E+02  0.00000000000E+00 0. -1.
</event>
<event>
 7    1  0.3508738E-013  0.7246153E+02  0.7816164E-02  0.1226708E+00
        -11   -1    0    0    0    0  0.00000000000E+00  0.00000000000E+00  0.45593999997E+02  0.45594000000E+02  0.51100000000E-03 0.  1.
         11   -1    0    0    0    0 -0.00000000000E+00 -0.00000000000E+00 -0.45593999997E+02  0.45594000000E+02  0.51100000000E-03 0. -1.
    9900012    2    1    2    0    0 -0.17464831642E+02 -0.64014730887E+01  0.21636989541E+01  0.72461526889E+02  0.69999943457E+02 0.  0.
        -12    1    1    2    0    0  0.17464831642E+02  0.64014730887E+01 -0.21636989541E+01  0.18726473111E+02  0.00000000000E+00 0.  1.
         11    1    3    3    0    0 -0.52902723697E+01  0.14408482963E+02  0.49087005026E+01  0.16114797670E+02  0.51100000000E-03 0. -1.
        -11    1    3    3    0    0 -0.19953506117E+02  0.11004539341E+02 -0.56181145046E+01  0.23469245904E+02  0.51100000000E-03 0.  1.
         12    1    3    3    0    0  0.77789468443E+01 -0.31814495393E+02  0.28731129561E+01  0.32877483315E+02  0.00000000000E+00 0. -1.
</event>
<event>
 7    1  0.3508738E-013  0.7246163E+02  0.7816164E-02  0.1226708E+00
        -11   -1    0    0    0    0  0.00000000000E+00  0.00000000000E+00  0.45593999997E+02  0.45594000000E+02  0.51100000000E-03 0.  1.
         11   -1    0    0    0    0 -0.00000000000E+00 -0.00000000000E+00 -0.45593999997E+02  0.45594000000E+02  0.51100000000E-03 0. -1.
    9900012    2    1    2    0    0  0.22153310675E+01  0.12153186161E+02 -0.14073712942E+02  0.72461627646E+02  0.70000074711E+02 0.  0.
        -12    1    1    2    0    0 -0.22153310675E+01 -0.12153186161E+02  0.14073712942E+02  0.18726372354E+02  0.00000000000E+00 0.  1.
         11    1    3    3    0    0  0.31341321834E+01  0.88510502792E+01  0.47032360653E+01  0.10501633460E+02  0.51100000000E-03 0. -1.
        -11    1    3    3    0    0  0.21412547225E+02  0.87209174453E+01  0.99520446951E+01  0.25171308540E+02  0.51100000000E-03 0.  1.
         12    1    3    3    0    0 -0.22331348341E+02 -0.54187815640E+01 -0.28728993702E+02  0.36788685645E+02  0.00000000000E+00 0. -1.
</event>
<event>
 7    1  0.3508738E-013  0.7246159E+02  0.7816164E-02  0.1226708E+00
        -11   -1    0    0    0    0  0.00000000000E+00  0.00000000000E+00  0.45593999997E+02  0.45594000000E+02  0.51100000000E-03 0. -1.
         11   -1    0    0    0    0 -0.00000000000E+00 -0.00000000000E+00 -0.45593999997E+02  0.45594000000E+02  0.51100000000E-03 0.  1.
    9900012    2    1    2    0    0  0.46882941335E+01 -0.11750994983E+02  0.13806241787E+02  0.72461593584E+02  0.70000030339E+02 0.  0.
        -12    1    1    2    0    0 -0.46882941335E+01  0.11750994983E+02 -0.13806241787E+02  0.18726406416E+02  0.00000000000E+00 0.  1.
         11    1    3    3    0    0 -0.25598294414E+02 -0.20635023697E+02  0.78198327466E+01  0.33796843999E+02  0.51100000000E-03 0. -1.
        -11    1    3    3    0    0 -0.60600610170E+00  0.22723420682E+01  0.66624316625E+01  0.70653221999E+01  0.51100000000E-03 0.  1.
        -12    1    3    3    0    0  0.30892594649E+02  0.66116866456E+01 -0.67602262181E+00  0.31599427385E+02  0.00000000000E+00 0.  1.
</event>
<event>
 7    1  0.3508738E-013  0.7246169E+02  0.7816164E-02  0.1226708E+00
        -11   -1    0    0    0    0  0.00000000000E+00  0.00000000000E+00  0.45593999997E+02  0.45594000000E+02  0.51100000000E-03 0. -1.
         11   -1    0    0    0    0 -0.00000000000E+00 -0.00000000000E+00 -0.45593999997E+02  0.45594000000E+02  0.51100000000E-03 0.  1.
    9900012    2    1    2    0    0 -0.27995973516E+01  0.18371548731E+02  0.23071580214E+01  0.72461694271E+02  0.70000161503E+02 0.  0.
        -12    1    1    2    0    0  0.27995973516E+01 -0.18371548731E+02 -0.23071580214E+01  0.18726305729E+02  0.00000000000E+00 0.  1.
         11    1    3    3    0    0  0.43366641203E+01  0.94680643630E+01  0.15197624120E+02  0.18423318855E+02  0.51100000000E-03 0. -1.
        -11    1    3    3    0    0  0.18384571563E+02  0.14406876994E+02  0.28854969235E+01  0.23534584530E+02  0.51100000000E-03 0.  1.
        -12    1    3    3    0    0 -0.25520833034E+02 -0.55033926261E+01 -0.15775963022E+02  0.30503790886E+02  0.00000000000E+00 0.  1.
</event>
<event>
 7    1  0.3508738E-013  0.7246158E+02  0.7816164E-02  0.1226708E+00
        -11   -1    0    0    0    0  0.00000000000E+00  0.00000000000E+00  0.45593999997E+02  0.45594000000E+02  0.51100000000E-03 0. -1.
         11   -1    0    0    0    0 -0.00000000000E+00 -0.00000000000E+00 -0.45593999997E+02  0.45594000000E+02  0.51100000000E-03 0.  1.
    9900012    2    1    2    0    0 -0.18265319944E+02 -0.38190802135E+00 -0.41123073982E+01  0.72461579132E+02  0.70000011512E+02 0.  0.
        -12    1    1    2    0    0  0.18265319944E+02  0.38190802135E+00  0.41123073982E+01  0.18726420868E+02  0.00000000000E+00 0.  1.
         11    1    3    3    0    0 -0.13538562058E+02  0.57666642906E+00  0.81784205301E+01  0.15827563597E+02  0.51100000000E-03 0. -1.
        -11    1    3    3    0    0  0.12680315923E+02  0.24069063165E+01  0.17633277372E+02  0.21852141339E+02  0.51100000000E-03 0.  1.
        -12    1    3    3    0    0 -0.17407073809E+02 -0.33654807669E+01 -0.29924005301E+02  0.34781874196E+02  0.00000000000E+00 0.  1.
</event>
<event>
 7    1  0.3508738E-013  0.7246152E+02  0.7816164E-02  0.1226708E+00
        -11   -1    0    0    0    0  0.00000000000E+00  0.00000000000E+00  0.45593999997E+02  0.45594000000E+02  0.51100000000E-03 0.  1.
         11   -1    0    0    0    0 -0.00000000000E+00 -0.00000000000E+00 -0.45593999997E+02  0.45594000000E+02  0.51100000000E-03 0. -1.
    9900012    2    1    2    0    0  0.11691818209E+02 -0.12849556122E+02  0.69908159815E+01  0.72461515715E+02  0.69999928901E+02 0.  0.
        -12    1    1    2    0    0 -0.11691818209E+02  0.12849556122E+02 -0.69908159815E+01  0.18726484285E+02  0.00000000000E+00 0.  1.
         11    1    3    3    0    0  0.14389050712E+02  0.20302498273E+02  0.91364851717E+01  0.26508707589E+02  0.51100000000E-03 0. -1.
        -11    1    3    3    0    0 -0.48122260070E+01 -0.10962701575E+02 -0.15792022642E+02  0.19817323844E+02  0.51100000000E-03 0.  1.
        -12    1    3    3    0    0  0.21149935048E+01 -0.22189352820E+02  0.13646353452E+02  0.26135484282E+02  0.00000000000E+00 0.  1.
</event>
<event>
 7    1  0.3508738E-013  0.7246153E+02  0.7816164E-02  0.1226708E+00
        -11   -1    0    0    0    0  0.00000000000E+00  0.00000000000E+00  0.45593999997E+02  0.45594000000E+02  0.51100000000E-03 0. -1.
         11   -1    0    0    0    0 -0.00000000000E+00 -0.00000000000E+00 -0.45593999997E+02  0.45594000000E+02  0.51100000000E-03 0.  1.
    9900012    2    1    2    0    0  0.74300812794E+01  0.68769401977E+01 -0.15753796665E+02  0.72461534138E+02  0.69999952900E+02 0.  0.
        -12    1    1    2    0    0 -0.74300812794E+01 -0.68769401977E+01  0.15753796665E+02  0.18726465862E+02  0.00000000000E+00 0.  1.
         11    1    3    3    0    0 -0.41635292891E+00 -0.37107068469E+01 -0.13194155539E+00  0.37363222426E+01  0.51100000000E-03 0. -1.
        -11    1    3    3    0    0 -0.21045661210E+02 -0.27807191974E+00  0.14529324991E+02  0.25575348770E+02  0.51100000000E-03 0.  1.
        -12    1    3    3    0    0  0.28892095419E+02  0.10865718964E+02 -0.30151180101E+02  0.43149863125E+02  0.00000000000E+00 0.  1.
</event>
<event>
 7    1  0.3508738E-013  0.7246158E+02  0.7816164E-02  0.1226708E+00
        -11   -1    0    0    0    0  0.00000000000E+00  0.00000000000E+00  0.45593999997E+02  0.45594000000E+02  0.51100000000E-03 0.  1.
         11   -1    0    0    0    0 -0.00000000000E+00 -0.00000000000E+00 -0.45593999997E+02  0.45594000000E+02  0.51100000000E-03 0. -1.
    9900012    2    1    2    0    0  0.12604439805E+02  0.95620614348E+01  0.10018676425E+02  0.72461580188E+02  0.70000012888E+02 0.  0.
        -12    1    1    2    0    0 -0.12604439805E+02 -0.95620614348E+01 -0.10018676425E+02  0.18726419812E+02  0.00000000000E+00 0.  1.
         11    1    3    3    0    0 -0.17222632792E+02  0.16319840431E+02  0.11851350569E+02  0.26521892515E+02  0.51100000000E-03 0. -1.
        -11    1    3    3    0    0 -0.58260680294E+01 -0.32262549354E+01 -0.70912829209E+01  0.97282106945E+01  0.51100000000E-03 0.  1.
        -12    1    3    3    0    0  0.35653140626E+02 -0.35315240608E+01  0.52586087768E+01  0.36211476978E+02  0.00000000000E+00 0.  1.
</event>
<event>
 7    1  0.3508738E-013  0.7246159E+02  0.7816164E-02  0.1226708E+00
        -11   -1    0    0    0    0  0.00000000000E+00  0.00000000000E+00  0.45593999997E+02  0.45594000000E+02  0.51100000000E-03 0.  1.
         11   -1    0    0    0    0 -0.00000000000E+00 -0.00000000000E+00 -0.45593999997E+02  0.45594000000E+02  0.51100000000E-03 0. -1.
    9900012    2    1    2    0    0  0.81746625931E+01  0.17508481017E+01 -0.16756721216E+02  0.72461593952E+02  0.70000030818E+02 0.  0.
        -12    1    1    2    0    0 -0.81746625931E+01 -0.17508481017E+01  0.16756721216E+02  0.18726406048E+02  0.00000000000E+00 0.  1.
         11    1    3    3    0    0  0.76060442818E+01 -0.32977227903E+02 -0.11628389604E+02  0.35785037583E+02  0.51100000000E-03 0. -1.
        -11    1    3    3    0    0  0.13915835302E+01  0.36757984893E+00 -0.15582900438E+01  0.21212938949E+01  0.51100000000E-03 0.  1.
        -12    1    3    3    0    0 -0.82296521892E+00  0.34360496156E+02 -0.35700415679E+01  0.34555262474E+02  0.00000000000E+00 0.  1.
</event>
<event>
 7    1  0.3508738E-013  0.7246126E+02  0.7816164E-02  0.1226709E+00
        -11   -1    0    0    0    0  0.00000000000E+00  0.00000000000E+00  0.45593999997E+02  0.45594000000E+02  0.51100000000E-03 0. -1.
         11   -1    0    0    0    0 -0.00000000000E+00 -0.00000000000E+00 -0.45593999997E+02  0.45594000000E+02  0.51100000000E-03 0.  1.
    9900012    2    1    2    0    0  0.16101558857E+02 -0.16879087853E+01  0.94117839860E+01  0.72461256784E+02  0.69999591593E+02 0.  0.
        -12    1    1    2    0    0 -0.16101558857E+02  0.16879087853E+01 -0.94117839860E+01  0.18726743216E+02  0.00000000000E+00 0.  1.
         11    1    3    3    0    0  0.37795912315E+01 -0.40375363578E+01 -0.34683803347E+01  0.65281446158E+01  0.51100000000E-03 0. -1.
        -11    1    3    3    0    0  0.40784667454E+01  0.32416835070E+01 -0.25827301387E+02  0.26347521708E+02  0.51100000000E-03 0.  1.
         12    1    3    3    0    0  0.82435008801E+01 -0.89205593448E+00  0.38707465708E+02  0.39585590460E+02  0.00000000000E+00 0. -1.
</event>
<event>
 7    1  0.3508738E-013  0.7246160E+02  0.7816164E-02  0.1226708E+00
        -11   -1    0    0    0    0  0.00000000000E+00  0.00000000000E+00  0.45593999997E+02  0.45594000000E+02  0.51100000000E-03 0.  1.
         11   -1    0    0    0    0 -0.00000000000E+00 -0.00000000000E+00 -0.45593999997E+02  0.45594000000E+02  0.51100000000E-03 0. -1.
    9900012    2    1    2    0    0  0.84974843460E+01 -0.14164200744E+02 -0.88230588843E+01  0.72461596421E+02  0.70000034034E+02 0.  0.
        -12    1    1    2    0    0 -0.84974843460E+01  0.14164200744E+02  0.88230588843E+01  0.18726403579E+02  0.00000000000E+00 0.  1.
         11    1    3    3    0    0  0.68992654496E+01 -0.22100400171E+02 -0.51130971335E+01  0.23710152130E+02  0.51100000000E-03 0. -1.
        -11    1    3    3    0    0  0.17513998644E+02 -0.12649894530E+02 -0.65501999452E+01  0.22575763547E+02  0.51100000000E-03 0.  1.
        -12    1    3    3    0    0 -0.15915779748E+02  0.20586093957E+02  0.28402381945E+01  0.26175680744E+02  0.00000000000E+00 0.  1.
</event>
<event>
 7    1  0.3508738E-013  0.7246145E+02  0.7816164E-02  0.1226708E+00
        -11   -1    0    0    0    0  0.00000000000E+00  0.00000000000E+00  0.45593999997E+02  0.45594000000E+02  0.51100000000E-03 0.  1.
         11   -1    0    0    0    0 -0.00000000000E+00 -0.00000000000E+00 -0.45593999997E+02  0.45594000000E+02  0.51100000000E-03 0. -1.
    9900012    2    1    2    0    0 -0.73785806901E+01  0.13427169469E+02 -0.10768067358E+02  0.72461451798E+02  0.69999845636E+02 0.  0.
        -12    1    1    2    0    0  0.73785806901E+01 -0.13427169469E+02  0.10768067358E+02  0.18726548202E+02  0.00000000000E+00 0.  1.
         11    1    3    3    0    0 -0.58148061506E+01  0.67472813792E+01 -0.28851504329E+02  0.30195149923E+02  0.51100000000E-03 0. -1.
        -11    1    3    3    0    0 -0.18622108600E+02  0.80639874867E+01  0.55044694247E+01  0.21026412124E+02  0.51100000000E-03 0.  1.
        -12    1    3    3    0    0  0.17058334061E+02 -0.13840993972E+01  0.12578967547E+02  0.21239889750E+02  0.00000000000E+00 0.  1.
</event>
<event>
 7    1  0.3508738E-013  0.7246153E+02  0.7816164E-02  0.1226708E+00
        -11   -1    0    0    0    0  0.00000000000E+00  0.00000000000E+00  0.45593999997E+02  0.45594000000E+02  0.51100000000E-03 0. -1.
         11   -1    0    0    0    0 -0.00000000000E+00 -0.00000000000E+00 -0.45593999997E+02  0.45594000000E+02  0.51100000000E-03 0.  1.
    9900012    2    1    2    0    0 -0.11980135855E+02  0.13263715548E+02  0.55884586078E+01  0.72461530102E+02  0.69999947642E+02 0.  0.
        -12    1    1    2    0    0  0.11980135855E+02 -0.13263715548E+02 -0.55884586078E+01  0.18726469898E+02  0.00000000000E+00 0.  1.
         11    1    3    3    0    0 -0.48690565123E+00  0.49544134271E+01 -0.10195032366E+02  0.11345570709E+02  0.51100000000E-03 0. -1.
        -11    1    3    3    0    0 -0.23619848558E+02 -0.88818655536E+01 -0.10600959162E+02  0.27370880823E+02  0.51100000000E-03 0.  1.
         12    1    3    3    0    0  0.12126618354E+02  0.17191167674E+02  0.26384450135E+02  0.33745078569E+02  0.00000000000E+00 0. -1.
</event>
<event>
 7    1  0.3508738E-013  0.7246157E+02  0.7816164E-02  0.1226708E+00
        -11   -1    0    0    0    0  0.00000000000E+00  0.00000000000E+00  0.45593999997E+02  0.45594000000E+02  0.51100000000E-03 0.  1.
         11   -1    0    0    0    0 -0.00000000000E+00 -0.00000000000E+00 -0.45593999997E+02  0.45594000000E+02  0.51100000000E-03 0. -1.
    9900012    2    1    2    0    0  0.58453148010E+01 -0.71557763066E+01 -0.16288222397E+02  0.72461574059E+02  0.70000004904E+02 0.  0.
        -12    1    1    2    0    0 -0.58453148010E+01  0.71557763066E+01  0.16288222397E+02  0.18726425941E+02  0.00000000000E+00 0.  1.
         11    1    3    3    0    0  0.84285298482E+01  0.44040190955E+01 -0.21865745842E+01  0.97578997878E+01  0.51100000000E-03 0. -1.
        -11    1    3    3    0    0 -0.13634517872E+02  0.21057668881E+02  0.98412841796E+00  0.25105656839E+02  0.51100000000E-03 0.  1.
        -12    1    3    3    0    0  0.11051302825E+02 -0.32617464283E+02 -0.15085776231E+02  0.37598017432E+02  0.00000000000E+00 0.  1.
</event>
<event>
 7    1  0.3508738E-013  0.7246158E+02  0.7816164E-02  0.1226708E+00
        -11   -1    0    0    0    0  0.00000000000E+00  0.00000000000E+00  0.45593999997E+02  0.45594000000E+02  0.51100000000E-03 0. -1.
         11   -1    0    0    0    0 -0.00000000000E+00 -0.00000000000E+00 -0.45593999997E+02  0.45594000000E+02  0.51100000000E-03 0.  1.
    9900012    2    1    2    0    0  0.89111182774E+01 -0.13291277665E+02  0.97269085651E+01  0.72461579062E+02  0.70000011421E+02 0.  0.
        -12    1    1    2    0    0 -0.89111182774E+01  0.13291277665E+02 -0.97269085651E+01  0.18726420938E+02  0.00000000000E+00 0.  1.
         11    1    3    3    0    0  0.57294818467E+00 -0.23756000782E+01  0.29002713956E+02  0.29105483374E+02  0.51100000000E-03 0. -1.
        -11    1    3    3    0    0  0.79060211397E+01 -0.22617554892E+02 -0.42944970771E+01  0.24341357089E+02  0.51100000000E-03 0.  1.
         12    1    3    3    0    0  0.43214895301E+00  0.11701877305E+02 -0.14981308314E+02  0.19014738598E+02  0.00000000000E+00 0. -1.
</event>
<event>
 7    1  0.4015266E-013  0.7246158E+02  0.7816164E-02  0.1226708E+00
        -11   -1    0    0    0    0  0.00000000000E+00  0.00000000000E+00  0.45593999997E+02  0.45594000000E+02  0.51100000000E-03 0. -1.
         11   -1    0    0    0    0 -0.00000000000E+00 -0.00000000000E+00 -0.45593999997E+02  0.45594000000E+02  0.51100000000E-03 0.  1.
    9900012    2    1    2    0    0  0.11869728104E+02  0.14472906631E+02 -0.56872802831E+00  0.72461576872E+02  0.70000008568E+02 0.  0.
        -12    1    1    2    0    0 -0.11869728104E+02 -0.14472906631E+02  0.56872802831E+00  0.18726423128E+02  0.00000000000E+00 0.  1.
         11    1    3    3    0    0 -0.10414433731E+02  0.11897568547E+02  0.18601614017E+02  0.24413779133E+02  0.51100000000E-03 0. -1.
        -11    1    3    3    0    0  0.39071304593E+01  0.80419782502E+01  0.98266370176E+01  0.13285400933E+02  0.51100000000E-03 0.  1.
        -12    1    3    3    0    0  0.18377031376E+02 -0.54666401669E+01 -0.28996979063E+02  0.34762396806E+02  0.00000000000E+00 0.  1.
</event>
<event>
 7    1  0.3508738E-013  0.7246159E+02  0.7816164E-02  0.1226708E+00
        -11   -1    0    0    0    0  0.00000000000E+00  0.00000000000E+00  0.45593999997E+02  0.45594000000E+02  0.51100000000E-03 0.  1.
         11   -1    0    0    0    0 -0.00000000000E+00 -0.00000000000E+00 -0.45593999997E+02  0.45594000000E+02  0.51100000000E-03 0. -1.
    9900012    2    1    2    0    0 -0.17422662014E+02 -0.68096671769E+01 -0.87053332691E+00  0.72461586916E+02  0.70000021653E+02 0.  0.
        -12    1    1    2    0    0  0.17422662014E+02  0.68096671769E+01  0.87053332691E+00  0.18726413084E+02  0.00000000000E+00 0.  1.
         11    1    3    3    0    0  0.10512722464E+02  0.84810574735E+01 -0.12204977757E+02  0.18204591503E+02  0.51100000000E-03 0. -1.
        -11    1    3    3    0    0  0.44028243722E+01  0.75652112850E+01  0.11753620123E+02  0.14654858256E+02  0.51100000000E-03 0.  1.
        -12    1    3    3    0    0 -0.32338208850E+02 -0.22855935935E+02 -0.41917569301E+00  0.39602137157E+02  0.00000000000E+00 0.  1.
</event>
<event>
 7    1  0.3508738E-013  0.7246157E+02  0.7816164E-02  0.1226708E+00
        -11   -1    0    0    0    0  0.00000000000E+00  0.00000000000E+00  0.45593999997E+02  0.45594000000E+02  0.51100000000E-03 0.  1.
         11   -1    0    0    0    0 -0.00000000000E+00 -0.00000000000E+00 -0.45593999997E+02  0.45594000000E+02  0.51100000000E-03 0. -1.
    9900012    2    1    2    0    0 -0.16797675541E+02  0.39010402784E+00 -0.82683293234E+01  0.72461565354E+02  0.69999993565E+02 0.  0.
        -12    1    1    2    0    0  0.16797675541E+02 -0.39010402784E+00  0.82683293234E+01  0.18726434646E+02  0.00000000000E+00 0.  1.
         11    1    3    3    0    0 -0.86060851053E+01 -0.10469980248E+02 -0.34802310722E+01  0.13992755118E+02  0.51100000000E-03 0. -1.
        -11    1    3    3    0    0 -0.31699552157E+02  0.46504809793E+00 -0.76307679322E+01  0.32608380766E+02  0.51100000000E-03 0.  1.
        -12    1    3    3    0    0  0.23507961721E+02  0.10395036178E+02  0.28426696810E+01  0.25860429469E+02  0.00000000000E+00 0.  1.
</event>
<event>
 7    1  0.3508738E-013  0.7246155E+02  0.7816164E-02  0.1226708E+00
        -11   -1    0    0    0    0  0.00000000000E+00  0.00000000000E+00  0.45593999997E+02  0.45594000000E+02  0.51100000000E-03 0. -1.
         11   -1    0    0    0    0 -0.00000000000E+00 -0.00000000000E+00 -0.45593999997E+02  0.45594000000E+02  0.51100000000E-03 0.  1.
    9900012    2    1    2    0    0 -0.13718015604E+02  0.12536337849E+02 -0.23100028276E+01  0.72461552611E+02  0.69999976964E+02 0.  0.
        -12    1    1    2    0    0  0.13718015604E+02 -0.12536337849E+02  0.23100028276E+01  0.18726447389E+02  0.00000000000E+00 0.  1.
         11    1    3    3    0    0  0.19761412883E+02  0.73824645243E+01  0.14048816728E+02  0.25345285031E+02  0.51100000000E-03 0. -1.
        -11    1    3    3    0    0  0.47713621940E+01  0.13296623467E+01 -0.49852123319E+01  0.70275345177E+01  0.51100000000E-03 0.  1.
        -12    1    3    3    0    0 -0.38250790680E+02  0.38242109776E+01 -0.11373607224E+02  0.40088733062E+02  0.00000000000E+00 0.  1.
</event>
<event>
 7    1  0.3508738E-013  0.7246137E+02  0.7816164E-02  0.1226709E+00
        -11   -1    0    0    0    0  0.00000000000E+00  0.00000000000E+00  0.45593999997E+02  0.45594000000E+02  0.51100000000E-03 0.  1.
         11   -1    0    0    0    0 -0.00000000000E+00 -0.00000000000E+00 -0.45593999997E+02  0.45594000000E+02  0.51100000000E-03 0. -1.
    9900012    2    1    2    0    0  0.16685192194E+02 -0.64718856480E+01  0.55141274454E+01  0.72461373398E+02  0.69999743506E+02 0.  0.
        -12    1    1    2    0    0 -0.16685192194E+02  0.64718856480E+01 -0.55141274454E+01  0.18726626602E+02  0.00000000000E+00 0.  1.
         11    1    3    3    0    0  0.93050690076E+01 -0.34636242243E+02  0.90058084126E-01  0.35864490749E+02  0.51100000000E-03 0. -1.
        -11    1    3    3    0    0 -0.42548967332E+01 -0.13473461773E+01  0.90845997469E+00  0.45546446315E+01  0.51100000000E-03 0.  1.
        -12    1    3    3    0    0  0.11635019920E+02  0.29511702773E+02  0.45156093866E+01  0.32042238018E+02  0.00000000000E+00 0.  1.
</event>
<event>
 7    1  0.3508738E-013  0.7246160E+02  0.7816164E-02  0.1226708E+00
        -11   -1    0    0    0    0  0.00000000000E+00  0.00000000000E+00  0.45593999997E+02  0.45594000000E+02  0.51100000000E-03 0.  1.
         11   -1    0    0    0    0 -0.00000000000E+00 -0.00000000000E+00 -0.45593999997E+02  0.45594000000E+02  0.51100000000E-03 0. -1.
    9900012    2    1    2    0    0  0.82233874222E+01 -0.13326114236E+01 -0.16771350780E+02  0.72461597226E+02  0.70000035083E+02 0.  0.
        -12    1    1    2    0    0 -0.82233874222E+01  0.13326114236E+01  0.16771350780E+02  0.18726402774E+02  0.00000000000E+00 0.  1.
         11    1    3    3    0    0  0.39676945788E+01 -0.25272623201E+02  0.12335069272E+02  0.28400739743E+02  0.51100000000E-03 0. -1.
        -11    1    3    3    0    0  0.84265980281E-01  0.51239312451E+01  0.34849978031E+01  0.61973366948E+01  0.51100000000E-03 0.  1.
         12    1    3    3    0    0  0.41714268632E+01  0.18816080532E+02 -0.32591417855E+02  0.37863520788E+02  0.00000000000E+00 0. -1.
</event>
<event>
 7    1  0.3508738E-013  0.7246190E+02  0.7816164E-02  0.1226707E+00
        -11   -1    0    0    0    0  0.00000000000E+00  0.00000000000E+00  0.45593999997E+02  0.45594000000E+02  0.51100000000E-03 0. -1.
         11   -1    0    0    0    0 -0.00000000000E+00 -0.00000000000E+00 -0.45593999997E+02  0.45594000000E+02  0.51100000000E-03 0.  1.
    9900012    2    1    2    0    0 -0.14860713570E+02 -0.10500713302E+01  0.11345626143E+02  0.72461903498E+02  0.70000434058E+02 0.  0.
        -12    1    1    2    0    0  0.14860713570E+02  0.10500713302E+01 -0.11345626143E+02  0.18726096502E+02  0.00000000000E+00 0.  1.
         11    1    3    3    0    0  0.14456770186E+01 -0.21318919642E+02  0.10613501940E+02  0.23858598878E+02  0.51100000000E-03 0. -1.
        -11    1    3    3    0    0 -0.21294494134E+02 -0.28026118183E+01 -0.87144427527E+01  0.23178689052E+02  0.51100000000E-03 0.  1.
        -12    1    3    3    0    0  0.49881035451E+01  0.23071460130E+02  0.94465669563E+01  0.25424615568E+02  0.00000000000E+00 0.  1.
</event>
<event>
 7    1  0.3508738E-013  0.7246158E+02  0.7816164E-02  0.1226708E+00
        -11   -1    0    0    0    0  0.00000000000E+00  0.00000000000E+00  0.45593999997E+02  0.45594000000E+02  0.51100000000E-03 0.  1.
         11   -1    0    0    0    0 -0.00000000000E+00 -0.00000000000E+00 -0.45593999997E+02  0.45594000000E+02  0.51100000000E-03 0. -1.
    9900012    2    1    2    0    0  0.21454173585E+01  0.82990146179E+01 -0.16649390170E+02  0.72461584104E+02  0.70000017990E+02 0.  0.
        -12    1    1    2    0    0 -0.21454173585E+01 -0.82990146179E+01  0.16649390170E+02  0.18726415896E+02  0.00000000000E+00 0.  1.
         11    1    3    3    0    0  0.29277569773E+01  0.93158247328E+00  0.85442448186E+01  0.90798527853E+01  0.51100000000E-03 0. -1.
        -11    1    3    3    0    0  0.21934405136E+02  0.12098739582E+01  0.73979850259E+01  0.23179993667E+02  0.51100000000E-03 0.  1.
         12    1    3    3    0    0 -0.22716744755E+02  0.61575581864E+01 -0.32591620014E+02  0.40201737652E+02  0.00000000000E+00 0. -1.
</event>
<event>
 7    1  0.3508738E-013  0.7246152E+02  0.7816164E-02  0.1226708E+00
        -11   -1    0    0    0    0  0.00000000000E+00  0.00000000000E+00  0.45593999997E+02  0.45594000000E+02  0.51100000000E-03 0. -1.
         11   -1    0    0    0    0 -0.00000000000E+00 -0.00000000000E+00 -0.45593999997E+02  0.45594000000E+02  0.51100000000E-03 0.  1.
    9900012    2    1    2    0    0 -0.16561275654E+02  0.73689769560E+01  0.47014090676E+01  0.72461523559E+02  0.69999939119E+02 0.  0.
        -12    1    1    2    0    0  0.16561275654E+02 -0.73689769560E+01 -0.47014090676E+01  0.18726476441E+02  0.00000000000E+00 0.  1.
         11    1    3    3    0    0 -0.75500898524E+01  0.24546766619E+02  0.13639147037E+02  0.29078754107E+02  0.51100000000E-03 0. -1.
        -11    1    3    3    0    0  0.92094665849E+01  0.73911207435E+01 -0.14997250008E+01  0.11903449750E+02  0.51100000000E-03 0.  1.
        -12    1    3    3    0    0 -0.18220652387E+02 -0.24568910407E+02 -0.74380129683E+01  0.31479319702E+02  0.00000000000E+00 0.  1.
</event>
<event>
 7    1  0.3508738E-013  0.7246158E+02  0.7816164E-02  0.1226708E+00
        -11   -1    0    0    0    0  0.00000000000E+00  0.00000000000E+00  0.45593999997E+02  0.45594000000E+02  0.51100000000E-03 0. -1.
         11   -1    0    0    0    0 -0.00000000000E+00 -0.00000000000E+00 -0.45593999997E+02  0.45594000000E+02  0.51100000000E-03 0.  1.
    9900012    2    1    2    0    0 -0.79928758242E+01 -0.13476956635E+02  0.10254970322E+02  0.72461579082E+02  0.70000011447E+02 0.  0.
        -12    1    1    2    0    0  0.79928758242E+01  0.13476956635E+02 -0.10254970322E+02  0.18726420918E+02  0.00000000000E+00 0.  1.
         11    1    3    3    0    0 -0.29490085356E+01  0.13814314316E+02  0.51853097099E+01  0.15047237900E+02  0.51100000000E-03 0. -1.
        -11    1    3    3    0    0 -0.26827646163E+02 -0.12836565686E+02 -0.33977606210E+01  0.29934007328E+02  0.51100000000E-03 0.  1.
         12    1    3    3    0    0  0.21783778874E+02 -0.14454705266E+02  0.84674212335E+01  0.27480333854E+02  0.00000000000E+00 0. -1.
</event>
<event>
 7    1  0.3508738E-013  0.7246155E+02  0.7816164E-02  0.1226708E+00
        -11   -1    0    0    0    0  0.00000000000E+00  0.00000000000E+00  0.45593999997E+02  0.45594000000E+02  0.51100000000E-03 0. -1.
         11   -1    0    0    0    0 -0.00000000000E+00 -0.00000000000E+00 -0.45593999997E+02  0.45594000000E+02  0.51100000000E-03 0.  1.
    9900012    2    1    2    0    0 -0.12881873216E+02  0.13157025159E+02  0.34102597699E+01  0.72461552385E+02  0.69999976670E+02 0.  0.
        -12    1    1    2    0    0  0.12881873216E+02 -0.13157025159E+02 -0.34102597699E+01  0.18726447615E+02  0.00000000000E+00 0.  1.
         11    1    3    3    0    0 -0.52089853291E+01  0.10004307443E+02  0.62921660043E+00  0.11296707899E+02  0.51100000000E-03 0. -1.
        -11    1    3    3    0    0 -0.13938714314E+02 -0.12420487170E+02  0.26310370612E+02  0.32261305929E+02  0.51100000000E-03 0.  1.
         12    1    3    3    0    0  0.62658264272E+01  0.15573204886E+02 -0.23529327442E+02  0.28903538557E+02  0.00000000000E+00 0. -1.
</event>
<event>
 7    1  0.3508738E-013  0.7246171E+02  0.7816164E-02  0.1226708E+00
        -11   -1    0    0    0    0  0.00000000000E+00  0.00000000000E+00  0.45593999997E+02  0.45594000000E+02  0.51100000000E-03 0. -1.
         11   -1    0    0    0    0 -0.00000000000E+00 -0.00000000000E+00 -0.45593999997E+02  0.45594000000E+02  0.51100000000E-03 0.  1.
    9900012    2    1    2    0    0 -0.76500137339E+01  0.19948108956E+01  0.16975626439E+02  0.72461711696E+02  0.70000184202E+02 0.  0.
        -12    1    1    2    0    0  0.76500137339E+01 -0.19948108956E+01 -0.16975626439E+02  0.18726288304E+02  0.00000000000E+00 0.  1.
         11    1    3    3    0    0  0.16978678767E+02  0.38291125307E+00 -0.13009317884E+02  0.21393094815E+02  0.51100000000E-03 0.  1.
        -11    1    3    3    0    0 -0.80021239167E+00  0.30783937753E+01 -0.66327061270E+01  0.73559254302E+01  0.51100000000E-03 0. -1.
         12    1    3    3    0    0 -0.23828480110E+02 -0.14664941327E+01  0.36617650450E+02  0.43712691451E+02  0.00000000000E+00 0. -1.
</event>
<event>
 7    1  0.3508738E-013  0.7246159E+02  0.7816164E-02  0.1226708E+00
        -11   -1    0    0    0    0  0.00000000000E+00  0.00000000000E+00  0.45593999997E+02  0.45594000000E+02  0.51100000000E-03 0. -1.
         11   -1    0    0    0    0 -0.00000000000E+00 -0.00000000000E+00 -0.45593999997E+02  0.45594000000E+02  0.51100000000E-03 0.  1.
    9900012    2    1    2    0    0  0.85625218126E+01 -0.15692734457E+02  0.55767143488E+01  0.72461589841E+02  0.70000025463E+02 0.  0.
        -12    1    1    2    0    0 -0.85625218126E+01  0.15692734457E+02 -0.55767143488E+01  0.18726410159E+02  0.00000000000E+00 0.  1.
         11    1    3    3    0    0  0.17234457231E+02 -0.59868316997E+01  0.20952535164E+01  0.18364606105E+02  0.51100000000E-03 0. -1.
        -11    1    3    3    0    0  0.24106134265E+01 -0.18350315873E+02 -0.19672939311E+02  0.27010547775E+02  0.51100000000E-03 0.  1.
         12    1    3    3    0    0 -0.11082548845E+02  0.86444131160E+01  0.23154400144E+02  0.27086435960E+02  0.00000000000E+00 0. -1.
</event>
<event>
 7    1  0.3508738E-013  0.7246156E+02  0.7816164E-02  0.1226708E+00
        -11   -1    0    0    0    0  0.00000000000E+00  0.00000000000E+00  0.45593999997E+02  0.45594000000E+02  0.51100000000E-03 0. -1.
         11   -1    0    0    0    0 -0.00000000000E+00 -0.00000000000E+00 -0.45593999997E+02  0.45594000000E+02  0.51100000000E-03 0.  1.
    9900012    2    1    2    0    0 -0.31151575736E+01 -0.16584452783E+02  0.81198127855E+01  0.72461557720E+02  0.69999983619E+02 0.  0.
        -12    1    1    2    0    0  0.31151575736E+01  0.16584452783E+02 -0.81198127855E+01  0.18726442280E+02  0.00000000000E+00 0.  1.
         11    1    3    3    0    0  0.35742212632E+01  0.72588506132E+01 -0.50678314060E+01  0.95471925341E+01  0.51100000000E-03 0. -1.
        -11    1    3    3    0    0 -0.37228458790E+01  0.18600119146E+02  0.39283008946E+01  0.19371514186E+02  0.51100000000E-03 0.  1.
         12    1    3    3    0    0 -0.29665329577E+01 -0.42443422542E+02  0.92593432969E+01  0.43542850999E+02  0.00000000000E+00 0. -1.
</event>
<event>
 7    1  0.3508738E-013  0.7246152E+02  0.7816164E-02  0.1226708E+00
        -11   -1    0    0    0    0  0.00000000000E+00  0.00000000000E+00  0.45593999997E+02  0.45594000000E+02  0.51100000000E-03 0.  1.
         11   -1    0    0    0    0 -0.00000000000E+00 -0.00000000000E+00 -0.45593999997E+02  0.45594000000E+02  0.51100000000E-03 0. -1.
    9900012    2    1    2    0    0  0.38128582946E+01  0.15460714429E+02 -0.98544073778E+01  0.72461523455E+02  0.69999938983E+02 0.  0.
        -12    1    1    2    0    0 -0.38128582946E+01 -0.15460714429E+02  0.98544073778E+01  0.18726476545E+02  0.00000000000E+00 0.  1.
         11    1    3    3    0    0  0.23180578862E+02  0.19409085876E+02  0.20017278866E+02  0.36259389189E+02  0.51100000000E-03 0.  1.
        -11    1    3    3    0    0 -0.72296994899E+01 -0.30603671941E+01 -0.15459064888E+02  0.17338312765E+02  0.51100000000E-03 0. -1.
        -12    1    3    3    0    0 -0.12138021078E+02 -0.88800425259E+00 -0.14412621356E+02  0.18863821500E+02  0.00000000000E+00 0.  1.
</event>
<event>
 7    1  0.3508738E-013  0.7246153E+02  0.7816164E-02  0.1226708E+00
        -11   -1    0    0    0    0  0.00000000000E+00  0.00000000000E+00  0.45593999997E+02  0.45594000000E+02  0.51100000000E-03 0.  1.
         11   -1    0    0    0    0 -0.00000000000E+00 -0.00000000000E+00 -0.45593999997E+02  0.45594000000E+02  0.51100000000E-03 0. -1.
    9900012    2    1    2    0    0 -0.13754125212E+02 -0.11729672525E+02  0.48907753423E+01  0.72461525122E+02  0.69999941155E+02 0.  0.
        -12    1    1    2    0    0  0.13754125212E+02  0.11729672525E+02 -0.48907753423E+01  0.18726474878E+02  0.00000000000E+00 0.  1.
         11    1    3    3    0    0  0.20408099824E+02 -0.13693042057E+02 -0.13675465776E+02  0.28124869842E+02  0.51100000000E-03 0. -1.
        -11    1    3    3    0    0 -0.33112887046E+00  0.61621315161E+01  0.29158628788E+01  0.68252302334E+01  0.51100000000E-03 0.  1.
        -12    1    3    3    0    0 -0.33831096166E+02 -0.41987619844E+01  0.15650378239E+02  0.37511425046E+02  0.00000000000E+00 0.  1.
</event>
<event>
 7    1  0.3508738E-013  0.7246157E+02  0.7816164E-02  0.1226708E+00
        -11   -1    0    0    0    0  0.00000000000E+00  0.00000000000E+00  0.45593999997E+02  0.45594000000E+02  0.51100000000E-03 0.  1.
         11   -1    0    0    0    0 -0.00000000000E+00 -0.00000000000E+00 -0.45593999997E+02  0.45594000000E+02  0.51100000000E-03 0. -1.
    9900012    2    1    2    0    0 -0.11767047189E+02 -0.86279398563E+01 -0.11737732839E+02  0.72461571673E+02  0.70000001796E+02 0.  0.
        -12    1    1    2    0    0  0.11767047189E+02  0.86279398563E+01  0.11737732839E+02  0.18726428327E+02  0.00000000000E+00 0.  1.
         11    1    3    3    0    0  0.26032848405E+01 -0.14795882193E+02  0.39080098780E+01  0.15523136387E+02  0.51100000000E-03 0. -1.
        -11    1    3    3    0    0  0.26717588275E+01 -0.29029135510E+01  0.17848137231E+02  0.18278982609E+02  0.51100000000E-03 0.  1.
        -12    1    3    3    0    0 -0.17042090857E+02  0.90708558874E+01 -0.33493879948E+02  0.38659452677E+02  0.00000000000E+00 0.  1.
</event>
<event>
 7    1  0.3508738E-013  0.7246152E+02  0.7816164E-02  0.1226708E+00
        -11   -1    0    0    0    0  0.00000000000E+00  0.00000000000E+00  0.45593999997E+02  0.45594000000E+02  0.51100000000E-03 0.  1.
         11   -1    0    0    0    0 -0.00000000000E+00 -0.00000000000E+00 -0.45593999997E+02  0.45594000000E+02  0.51100000000E-03 0. -1.
    9900012    2    1    2    0    0  0.38586310096E+01  0.90481387336E+01 -0.15934964908E+02  0.72461522637E+02  0.69999937918E+02 0.  0.
        -12    1    1    2    0    0 -0.38586310096E+01 -0.90481387336E+01  0.15934964908E+02  0.18726477363E+02  0.00000000000E+00 0.  1.
         11    1    3    3    0    0 -0.14794453776E+02  0.14123840323E+02 -0.23398457691E+02  0.31078071861E+02  0.51100000000E-03 0. -1.
        -11    1    3    3    0    0  0.10594830943E+02  0.46658230967E+01 -0.12951228565E+02  0.17371087171E+02  0.51100000000E-03 0.  1.
        -12    1    3    3    0    0  0.80582538423E+01 -0.97415246857E+01  0.20414721349E+02  0.24012363606E+02  0.00000000000E+00 0.  1.
</event>
<event>
 7    1  0.3508738E-013  0.7246157E+02  0.7816164E-02  0.1226708E+00
        -11   -1    0    0    0    0  0.00000000000E+00  0.00000000000E+00  0.45593999997E+02  0.45594000000E+02  0.51100000000E-03 0. -1.
         11   -1    0    0    0    0 -0.00000000000E+00 -0.00000000000E+00 -0.45593999997E+02  0.45594000000E+02  0.51100000000E-03 0.  1.
    9900012    2    1    2    0    0  0.16197893308E+02 -0.90511384658E+01 -0.25267546739E+01  0.72461565627E+02  0.69999993919E+02 0.  0.
        -12    1    1    2    0    0 -0.16197893308E+02  0.90511384658E+01  0.25267546739E+01  0.18726434373E+02  0.00000000000E+00 0.  1.
         11    1    3    3    0    0  0.11322885652E+02  0.61941882549E+01 -0.19673801861E+02  0.23529432368E+02  0.51100000000E-03 0. -1.
        -11    1    3    3    0    0  0.97685091449E+01 -0.25667914921E+02 -0.95266344781E+00  0.27480414757E+02  0.51100000000E-03 0.  1.
         12    1    3    3    0    0 -0.48935014885E+01  0.10422588200E+02  0.18099710635E+02  0.21451718502E+02  0.00000000000E+00 0. -1.
</event>
<event>
 7    1  0.3508738E-013  0.7246180E+02  0.7816164E-02  0.1226707E+00
        -11   -1    0    0    0    0  0.00000000000E+00  0.00000000000E+00  0.45593999997E+02  0.45594000000E+02  0.51100000000E-03 0. -1.
         11   -1    0    0    0    0 -0.00000000000E+00 -0.00000000000E+00 -0.45593999997E+02  0.45594000000E+02  0.51100000000E-03 0.  1.
    9900012    2    1    2    0    0  0.12513429288E+02  0.48480330192E+01  0.13060681324E+02  0.72461795544E+02  0.70000293429E+02 0.  0.
        -12    1    1    2    0    0 -0.12513429288E+02 -0.48480330192E+01 -0.13060681324E+02  0.18726204456E+02  0.00000000000E+00 0.  1.
         11    1    3    3    0    0  0.35597262896E+02  0.38416005549E+01  0.19773999956E+02  0.40901517026E+02  0.51100000000E-03 0. -1.
        -11    1    3    3    0    0  0.14093071884E+01  0.43209116394E+01  0.24944654226E+01  0.51844751087E+01  0.51100000000E-03 0.  1.
        -12    1    3    3    0    0 -0.24493140797E+02 -0.33144791751E+01 -0.92077840547E+01  0.26375803409E+02  0.00000000000E+00 0.  1.
</event>
<event>
 7    1  0.3508738E-013  0.7246156E+02  0.7816164E-02  0.1226708E+00
        -11   -1    0    0    0    0  0.00000000000E+00  0.00000000000E+00  0.45593999997E+02  0.45594000000E+02  0.51100000000E-03 0.  1.
         11   -1    0    0    0    0 -0.00000000000E+00 -0.00000000000E+00 -0.45593999997E+02  0.45594000000E+02  0.51100000000E-03 0. -1.
    9900012    2    1    2    0    0  0.41027067695E+01  0.69046053870E+00 -0.18258435104E+02  0.72461564380E+02  0.69999992296E+02 0.  0.
        -12    1    1    2    0    0 -0.41027067695E+01 -0.69046053870E+00  0.18258435104E+02  0.18726435620E+02  0.00000000000E+00 0.  1.
         11    1    3    3    0    0  0.70589013766E+00 -0.70113267874E+01 -0.32266927270E+02  0.33027436775E+02  0.51100000000E-03 0. -1.
        -11    1    3    3    0    0 -0.26517549026E+01  0.16946041936E+02 -0.46313430525E+01  0.17766526956E+02  0.51100000000E-03 0.  1.
        -12    1    3    3    0    0  0.60485715344E+01 -0.92442546098E+01  0.18639835219E+02  0.21667600649E+02  0.00000000000E+00 0.  1.
</event>
<event>
 7    1  0.3508738E-013  0.7246158E+02  0.7816164E-02  0.1226708E+00
        -11   -1    0    0    0    0  0.00000000000E+00  0.00000000000E+00  0.45593999997E+02  0.45594000000E+02  0.51100000000E-03 0. -1.
         11   -1    0    0    0    0 -0.00000000000E+00 -0.00000000000E+00 -0.45593999997E+02  0.45594000000E+02  0.51100000000E-03 0.  1.
    9900012    2    1    2    0    0  0.62271810256E+01  0.17658105815E+02  0.30388283454E+00  0.72461579378E+02  0.70000011834E+02 0.  0.
        -12    1    1    2    0    0 -0.62271810256E+01 -0.17658105815E+02 -0.30388283454E+00  0.18726420622E+02  0.00000000000E+00 0.  1.
         11    1    3    3    0    0 -0.65568534027E+00  0.30763595779E+01  0.15992124344E+02  0.16298526093E+02  0.51100000000E-03 0. -1.
        -11    1    3    3    0    0 -0.18686930942E+02  0.17827024961E+02  0.30719014933E+00  0.25828251452E+02  0.51100000000E-03 0.  1.
        -12    1    3    3    0    0  0.25569797308E+02 -0.32452787233E+01 -0.15995431658E+02  0.30334801834E+02  0.00000000000E+00 0.  1.
</event>
<event>
 7    1  0.3508738E-013  0.7246157E+02  0.7816164E-02  0.1226708E+00
        -11   -1    0    0    0    0  0.00000000000E+00  0.00000000000E+00  0.45593999997E+02  0.45594000000E+02  0.51100000000E-03 0.  1.
         11   -1    0    0    0    0 -0.00000000000E+00 -0.00000000000E+00 -0.45593999997E+02  0.45594000000E+02  0.51100000000E-03 0. -1.
    9900012    2    1    2    0    0  0.39404685390E+01  0.15248141131E+02 -0.10131437418E+02  0.72461571499E+02  0.70000001569E+02 0.  0.
        -12    1    1    2    0    0 -0.39404685390E+01 -0.15248141131E+02  0.10131437418E+02  0.18726428501E+02  0.00000000000E+00 0.  1.
         11    1    3    3    0    0  0.25138972998E+01 -0.87451747134E+00  0.33816197993E+00  0.26830606082E+01  0.51100000000E-03 0. -1.
        -11    1    3    3    0    0 -0.37720768364E+01 -0.26085699597E+02 -0.58739205082E+01  0.27003615120E+02  0.51100000000E-03 0.  1.
         12    1    3    3    0    0  0.51986480756E+01  0.42208358200E+02 -0.45956788902E+01  0.42774895771E+02  0.00000000000E+00 0. -1.
</event>
<event>
 7    1  0.3508738E-013  0.7246147E+02  0.7816164E-02  0.1226708E+00
        -11   -1    0    0    0    0  0.00000000000E+00  0.00000000000E+00  0.45593999997E+02  0.45594000000E+02  0.51100000000E-03 0. -1.
         11   -1    0    0    0    0 -0.00000000000E+00 -0.00000000000E+00 -0.45593999997E+02  0.45594000000E+02  0.51100000000E-03 0.  1.
    9900012    2    1    2    0    0 -0.10602224434E+02 -0.45739118878E+01  0.14742965101E+02  0.72461471948E+02  0.69999871886E+02 0.  0.
        -12    1    1    2    0    0  0.10602224434E+02  0.45739118878E+01 -0.14742965101E+02  0.18726528052E+02  0.00000000000E+00 0.  1.
         11    1    3    3    0    0 -0.79469046504E+01 -0.10968299998E+02  0.23018545406E+01  0.13738829388E+02  0.51100000000E-03 0. -1.
        -11    1    3    3    0    0 -0.15249017527E+02  0.12084853789E+02 -0.17231046023E+02  0.25990097613E+02  0.51100000000E-03 0.  1.
         12    1    3    3    0    0  0.12593697743E+02 -0.56904656787E+01  0.29672156583E+02  0.32732544947E+02  0.00000000000E+00 0. -1.
</event>
<event>
 7    1  0.3508738E-013  0.7246165E+02  0.7816164E-02  0.1226708E+00
        -11   -1    0    0    0    0  0.00000000000E+00  0.00000000000E+00  0.45593999997E+02  0.45594000000E+02  0.51100000000E-03 0. -1.
         11   -1    0    0    0    0 -0.00000000000E+00 -0.00000000000E+00 -0.45593999997E+02  0.45594000000E+02  0.51100000000E-03 0.  1.
    9900012    2    1    2    0    0  0.11814808750E+02 -0.55063107650E+01  0.13444959712E+02  0.72461652099E+02  0.70000106566E+02 0.  0.
        -12    1    1    2    0    0 -0.11814808750E+02  0.55063107650E+01 -0.13444959712E+02  0.18726347901E+02  0.00000000000E+00 0.  1.
         11    1    3    3    0    0 -0.18676335712E+01  0.26049198004E+00  0.14450175184E+01  0.23757077088E+01  0.51100000000E-03 0. -1.
        -11    1    3    3    0    0  0.76920077226E+01 -0.23943194567E+02 -0.20449421256E+02  0.32413305584E+02  0.51100000000E-03 0.  1.
         12    1    3    3    0    0  0.59904345982E+01  0.18176391822E+02  0.32449363450E+02  0.37672638807E+02  0.00000000000E+00 0. -1.
</event>
<event>
 7    1  0.3508738E-013  0.7246162E+02  0.7816164E-02  0.1226708E+00
        -11   -1    0    0    0    0  0.00000000000E+00  0.00000000000E+00  0.45593999997E+02  0.45594000000E+02  0.51100000000E-03 0.  1.
         11   -1    0    0    0    0 -0.00000000000E+00 -0.00000000000E+00 -0.45593999997E+02  0.45594000000E+02  0.51100000000E-03 0. -1.
    9900012    2    1    2    0    0 -0.11334900868E+02  0.13952648172E+02  0.52460390004E+01  0.72461620374E+02  0.70000065238E+02 0.  0.
        -12    1    1    2    0    0  0.11334900868E+02 -0.13952648172E+02 -0.52460390004E+01  0.18726379626E+02  0.00000000000E+00 0.  1.
         11    1    3    3    0    0 -0.14752242277E+02 -0.25658560937E+01 -0.64652316059E+01  0.16309858665E+02  0.51100000000E-03 0. -1.
        -11    1    3    3    0    0 -0.57480081943E+00  0.33183230812E+02  0.18172645442E+02  0.37837841451E+02  0.51100000000E-03 0.  1.
         12    1    3    3    0    0  0.39921422291E+01 -0.16664726546E+02 -0.64613748356E+01  0.18313920257E+02  0.00000000000E+00 0. -1.
</event>
<event>
 7    1  0.3508738E-013  0.7246159E+02  0.7816164E-02  0.1226708E+00
        -11   -1    0    0    0    0  0.00000000000E+00  0.00000000000E+00  0.45593999997E+02  0.45594000000E+02  0.51100000000E-03 0.  1.
         11   -1    0    0    0    0 -0.00000000000E+00 -0.00000000000E+00 -0.45593999997E+02  0.45594000000E+02  0.51100000000E-03 0. -1.
    9900012    2    1    2    0    0  0.17675392785E+02 -0.60131730040E+01 -0.14494078429E+01  0.72461587028E+02  0.70000021799E+02 0.  0.
        -12    1    1    2    0    0 -0.17675392785E+02  0.60131730040E+01  0.14494078429E+01  0.18726412972E+02  0.00000000000E+00 0.  1.
         11    1    3    3    0    0  0.41288933551E+02 -0.62583814059E+01 -0.11804324964E+02  0.43396836978E+02  0.51100000000E-03 0. -1.
        -11    1    3    3    0    0 -0.31177410816E+00  0.34229534057E+01  0.18371035408E+00  0.34420288883E+01  0.51100000000E-03 0.  1.
        -12    1    3    3    0    0 -0.23301766657E+02 -0.31777450039E+01  0.10171206767E+02  0.25622721162E+02  0.00000000000E+00 0.  1.
</event>
<event>
 7    1  0.3508738E-013  0.7246161E+02  0.7816164E-02  0.1226708E+00
        -11   -1    0    0    0    0  0.00000000000E+00  0.00000000000E+00  0.45593999997E+02  0.45594000000E+02  0.51100000000E-03 0.  1.
         11   -1    0    0    0    0 -0.00000000000E+00 -0.00000000000E+00 -0.45593999997E+02  0.45594000000E+02  0.51100000000E-03 0. -1.
    9900012    2    1    2    0    0 -0.15870829194E+02 -0.40943911127E+01  0.90570577543E+01  0.72461613454E+02  0.70000056224E+02 0.  0.
        -12    1    1    2    0    0  0.15870829194E+02  0.40943911127E+01 -0.90570577543E+01  0.18726386546E+02  0.00000000000E+00 0.  1.
         11    1    3    3    0    0 -0.10957099957E+02  0.27494817249E+01  0.51469591440E+01  0.12414059687E+02  0.51100000000E-03 0. -1.
        -11    1    3    3    0    0  0.29271356086E+01  0.25237242688E+02 -0.48834129192E+01  0.25871495190E+02  0.51100000000E-03 0.  1.
         12    1    3    3    0    0 -0.78408648461E+01 -0.32081115525E+02  0.87935115295E+01  0.34176058578E+02  0.00000000000E+00 0. -1.
</event>
<event>
 7    1  0.3508738E-013  0.7246234E+02  0.7816164E-02  0.1226706E+00
        -11   -1    0    0    0    0  0.00000000000E+00  0.00000000000E+00  0.45593999997E+02  0.45594000000E+02  0.51100000000E-03 0.  1.
         11   -1    0    0    0    0 -0.00000000000E+00 -0.00000000000E+00 -0.45593999997E+02  0.45594000000E+02  0.51100000000E-03 0. -1.
    9900012    2    1    2    0    0 -0.44797725154E+01  0.61367446573E+01 -0.17114975301E+02  0.72462339094E+02  0.70001001498E+02 0.  0.
        -12    1    1    2    0    0  0.44797725154E+01 -0.61367446573E+01  0.17114975301E+02  0.18725660906E+02  0.00000000000E+00 0.  1.
         11    1    3    3    0    0  0.20848353266E+01 -0.41324663512E+01  0.67375990646E+00  0.46773677593E+01  0.51100000000E-03 0. -1.
        -11    1    3    3    0    0  0.27273662759E+02  0.15070055204E+02 -0.68981889369E+01  0.31914640136E+02  0.51100000000E-03 0.  1.
        -12    1    3    3    0    0 -0.33838270601E+02 -0.48008441957E+01 -0.10890546271E+02  0.35870331199E+02  0.00000000000E+00 0.  1.
</event>
<event>
 7    1  0.3508738E-013  0.7246130E+02  0.7816164E-02  0.1226709E+00
        -11   -1    0    0    0    0  0.00000000000E+00  0.00000000000E+00  0.45593999997E+02  0.45594000000E+02  0.51100000000E-03 0.  1.
         11   -1    0    0    0    0 -0.00000000000E+00 -0.00000000000E+00 -0.45593999997E+02  0.45594000000E+02  0.51100000000E-03 0. -1.
    9900012    2    1    2    0    0 -0.15061673083E+02 -0.10876898077E+02 -0.23512221342E+01  0.72461303725E+02  0.69999652743E+02 0.  0.
        -12    1    1    2    0    0  0.15061673083E+02  0.10876898077E+02  0.23512221342E+01  0.18726696275E+02  0.00000000000E+00 0.  1.
         11    1    3    3    0    0 -0.12908247230E+01  0.46564686858E+01 -0.10843473096E-01  0.48320851534E+01  0.51100000000E-03 0. -1.
        -11    1    3    3    0    0  0.12953585304E+02  0.15244746644E+02  0.13242404235E+02  0.23990809546E+02  0.51100000000E-03 0.  1.
         12    1    3    3    0    0 -0.26724433664E+02 -0.30778113407E+02 -0.15582782896E+02  0.43638409026E+02  0.00000000000E+00 0. -1.
</event>
<event>
 7    1  0.3508738E-013  0.7246158E+02  0.7816164E-02  0.1226708E+00
        -11   -1    0    0    0    0  0.00000000000E+00  0.00000000000E+00  0.45593999997E+02  0.45594000000E+02  0.51100000000E-03 0.  1.
         11   -1    0    0    0    0 -0.00000000000E+00 -0.00000000000E+00 -0.45593999997E+02  0.45594000000E+02  0.51100000000E-03 0. -1.
    9900012    2    1    2    0    0  0.68335164551E+01 -0.12090578407E+02 -0.12561843968E+02  0.72461575962E+02  0.70000007384E+02 0.  0.
        -12    1    1    2    0    0 -0.68335164551E+01  0.12090578407E+02  0.12561843968E+02  0.18726424038E+02  0.00000000000E+00 0.  1.
         11    1    3    3    0    0  0.97902343238E+01  0.33637953646E+00 -0.41819961764E+01  0.10651334733E+02  0.51100000000E-03 0. -1.
        -11    1    3    3    0    0  0.14525340954E+02  0.13158855680E+02 -0.20660043690E+02  0.28477682810E+02  0.51100000000E-03 0.  1.
         12    1    3    3    0    0 -0.17482058823E+02 -0.25585813624E+02  0.12280195899E+02  0.33332558420E+02  0.00000000000E+00 0. -1.
</event>
<event>
 7    1  0.3508738E-013  0.7246157E+02  0.7816164E-02  0.1226708E+00
        -11   -1    0    0    0    0  0.00000000000E+00  0.00000000000E+00  0.45593999997E+02  0.45594000000E+02  0.51100000000E-03 0.  1.
         11   -1    0    0    0    0 -0.00000000000E+00 -0.00000000000E+00 -0.45593999997E+02  0.45594000000E+02  0.51100000000E-03 0. -1.
    9900012    2    1    2    0    0 -0.30287566020E+00  0.31742664625E+01 -0.18452951382E+02  0.72461571725E+02  0.70000001863E+02 0.  0.
        -12    1    1    2    0    0  0.30287566020E+00 -0.31742664625E+01  0.18452951382E+02  0.18726428275E+02  0.00000000000E+00 0.  1.
         11    1    3    3    0    0  0.63330742373E+01  0.27605249722E+02 -0.17424316018E+02  0.33253036410E+02  0.51100000000E-03 0. -1.
        -11    1    3    3    0    0 -0.41783720424E+01 -0.10398337868E+02 -0.15351775127E+02  0.19006873050E+02  0.51100000000E-03 0.  1.
        -12    1    3    3    0    0 -0.24575778551E+01 -0.14032645392E+02  0.14323139763E+02  0.20201662265E+02  0.00000000000E+00 0.  1.
</event>
<event>
 7    1  0.3508738E-013  0.7246155E+02  0.7816164E-02  0.1226708E+00
        -11   -1    0    0    0    0  0.00000000000E+00  0.00000000000E+00  0.45593999997E+02  0.45594000000E+02  0.51100000000E-03 0.  1.
         11   -1    0    0    0    0 -0.00000000000E+00 -0.00000000000E+00 -0.45593999997E+02  0.45594000000E+02  0.51100000000E-03 0. -1.
    9900012    2    1    2    0    0 -0.11684978784E+02  0.13165881568E+02 -0.63875563579E+01  0.72461546976E+02  0.69999969623E+02 0.  0.
        -12    1    1    2    0    0  0.11684978784E+02 -0.13165881568E+02  0.63875563579E+01  0.18726453024E+02  0.00000000000E+00 0.  1.
         11    1    3    3    0    0  0.22864390577E+01  0.51789361086E+01 -0.13135534924E+01  0.58115923652E+01  0.51100000000E-03 0. -1.
        -11    1    3    3    0    0  0.12523389558E+02  0.12538015467E+02  0.22165647835E+02  0.28378743138E+02  0.51100000000E-03 0.  1.
        -12    1    3    3    0    0 -0.26494807399E+02 -0.45510700073E+01 -0.27239650700E+02  0.38271211473E+02  0.00000000000E+00 0.  1.
</event>
<event>
 7    1  0.3508738E-013  0.7246138E+02  0.7816164E-02  0.1226709E+00
        -11   -1    0    0    0    0  0.00000000000E+00  0.00000000000E+00  0.45593999997E+02  0.45594000000E+02  0.51100000000E-03 0.  1.
         11   -1    0    0    0    0 -0.00000000000E+00 -0.00000000000E+00 -0.45593999997E+02  0.45594000000E+02  0.51100000000E-03 0. -1.
    9900012    2    1    2    0    0 -0.10555281780E+02 -0.14952337978E+02 -0.39622936290E+01  0.72461383775E+02  0.69999757023E+02 0.  0.
        -12    1    1    2    0    0  0.10555281780E+02  0.14952337978E+02  0.39622936290E+01  0.18726616225E+02  0.00000000000E+00 0.  1.
         11    1    3    3    0    0 -0.76067617621E+01 -0.23795698758E+02 -0.15655549072E+02  0.29482101704E+02  0.51100000000E-03 0. -1.
        -11    1    3    3    0    0 -0.18415452133E+02 -0.18302500244E+01 -0.34744546784E+01  0.18829512155E+02  0.51100000000E-03 0.  1.
        -12    1    3    3    0    0  0.15466932115E+02  0.10673610805E+02  0.15167710122E+02  0.24149769916E+02  0.00000000000E+00 0.  1.
</event>
<event>
 7    1  0.3508738E-013  0.7246131E+02  0.7816164E-02  0.1226709E+00
        -11   -1    0    0    0    0  0.00000000000E+00  0.00000000000E+00  0.45593999997E+02  0.45594000000E+02  0.51100000000E-03 0. -1.
         11   -1    0    0    0    0 -0.00000000000E+00 -0.00000000000E+00 -0.45593999997E+02  0.45594000000E+02  0.51100000000E-03 0.  1.
    9900012    2    1    2    0    0  0.40366244812E+01 -0.18179743393E+02  0.19726586603E+01  0.72461313448E+02  0.69999665409E+02 0.  0.
        -12    1    1    2    0    0 -0.40366244812E+01  0.18179743393E+02 -0.19726586603E+01  0.18726686552E+02  0.00000000000E+00 0.  1.
         11    1    3    3    0    0  0.14851219829E+01  0.75431606674E+01 -0.36361207295E+01  0.85044831930E+01  0.51100000000E-03 0. -1.
        -11    1    3    3    0    0  0.11203499052E+02 -0.29077322725E+01 -0.23366408841E+02  0.26076087904E+02  0.51100000000E-03 0.  1.
         12    1    3    3    0    0 -0.86519965533E+01 -0.22815171788E+02  0.28975188231E+02  0.37880742351E+02  0.00000000000E+00 0. -1.
</event>
<event>
 7    1  0.3508738E-013  0.7246161E+02  0.7816164E-02  0.1226708E+00
        -11   -1    0    0    0    0  0.00000000000E+00  0.00000000000E+00  0.45593999997E+02  0.45594000000E+02  0.51100000000E-03 0.  1.
         11   -1    0    0    0    0 -0.00000000000E+00 -0.00000000000E+00 -0.45593999997E+02  0.45594000000E+02  0.51100000000E-03 0. -1.
    9900012    2    1    2    0    0  0.13260484218E+02  0.13202886154E+02  0.72183996744E+00  0.72461609600E+02  0.70000051202E+02 0.  0.
        -12    1    1    2    0    0 -0.13260484218E+02 -0.13202886154E+02 -0.72183996744E+00  0.18726390400E+02  0.00000000000E+00 0.  1.
         11    1    3    3    0    0  0.29862730649E+02  0.20243162398E+02  0.29957850255E+01  0.36201423092E+02  0.51100000000E-03 0. -1.
        -11    1    3    3    0    0 -0.11815837018E+02  0.11542805195E+02 -0.39923603470E+01  0.16993801741E+02  0.51100000000E-03 0.  1.
        -12    1    3    3    0    0 -0.47864094127E+01 -0.18583081440E+02  0.17184152889E+01  0.19266384766E+02  0.00000000000E+00 0.  1.
</event>
<event>
 7    1  0.3508738E-013  0.7246163E+02  0.7816164E-02  0.1226708E+00
        -11   -1    0    0    0    0  0.00000000000E+00  0.00000000000E+00  0.45593999997E+02  0.45594000000E+02  0.51100000000E-03 0. -1.
         11   -1    0    0    0    0 -0.00000000000E+00 -0.00000000000E+00 -0.45593999997E+02  0.45594000000E+02  0.51100000000E-03 0.  1.
    9900012    2    1    2    0    0 -0.24714752652E+00 -0.18722224726E+02  0.30697747163E+00  0.72461627800E+02  0.70000074912E+02 0.  0.
        -12    1    1    2    0    0  0.24714752652E+00  0.18722224726E+02 -0.30697747163E+00  0.18726372200E+02  0.00000000000E+00 0.  1.
         11    1    3    3    0    0  0.10260620148E+02 -0.17288032808E+01 -0.54218788895E+01  0.11733109458E+02  0.51100000000E-03 0. -1.
        -11    1    3    3    0    0 -0.19383305799E+02  0.13921714613E+02 -0.87997355388E+01  0.25435448242E+02  0.51100000000E-03 0.  1.
         12    1    3    3    0    0  0.88755381248E+01 -0.30915136058E+02  0.14528591900E+02  0.35293070100E+02  0.00000000000E+00 0. -1.
</event>
<event>
 7    1  0.3508738E-013  0.7246154E+02  0.7816164E-02  0.1226708E+00
        -11   -1    0    0    0    0  0.00000000000E+00  0.00000000000E+00  0.45593999997E+02  0.45594000000E+02  0.51100000000E-03 0. -1.
         11   -1    0    0    0    0 -0.00000000000E+00 -0.00000000000E+00 -0.45593999997E+02  0.45594000000E+02  0.51100000000E-03 0.  1.
    9900012    2    1    2    0    0  0.62634584201E+01  0.61895871562E+01  0.16526899403E+02  0.72461539993E+02  0.69999960526E+02 0.  0.
        -12    1    1    2    0    0 -0.62634584201E+01 -0.61895871562E+01 -0.16526899403E+02  0.18726460007E+02  0.00000000000E+00 0.  1.
         11    1    3    3    0    0 -0.14678412646E+02 -0.12874912868E+02  0.12115520024E+01  0.19562388343E+02  0.51100000000E-03 0. -1.
        -11    1    3    3    0    0 -0.78735380009E+01  0.86733420581E+00 -0.82715999001E+01  0.11452695510E+02  0.51100000000E-03 0.  1.
        -12    1    3    3    0    0  0.28815409067E+02  0.18197165819E+02  0.23586947300E+02  0.41446456139E+02  0.00000000000E+00 0.  1.
</event>
<event>
 7    1  0.3508738E-013  0.7246154E+02  0.7816164E-02  0.1226708E+00
        -11   -1    0    0    0    0  0.00000000000E+00  0.00000000000E+00  0.45593999997E+02  0.45594000000E+02  0.51100000000E-03 0.  1.
         11   -1    0    0    0    0 -0.00000000000E+00 -0.00000000000E+00 -0.45593999997E+02  0.45594000000E+02  0.51100000000E-03 0. -1.
    9900012    2    1    2    0    0  0.20807494622E+01 -0.78250420868E+01 -0.16885476766E+02  0.72461544714E+02  0.69999966676E+02 0.  0.
        -12    1    1    2    0    0 -0.20807494622E+01  0.78250420868E+01  0.16885476766E+02  0.18726455286E+02  0.00000000000E+00 0.  1.
         11    1    3    3    0    0  0.90322876235E+01  0.72191802511E+01  0.80163428512E+00  0.11590573799E+02  0.51100000000E-03 0. -1.
        -11    1    3    3    0    0  0.20058395330E+01  0.35015549276E+01  0.18661575862E+02  0.19092896403E+02  0.51100000000E-03 0.  1.
         12    1    3    3    0    0 -0.89573776943E+01 -0.18545777266E+02 -0.36348686913E+02  0.41778074511E+02  0.00000000000E+00 0. -1.
</event>
<event>
 7    1  0.3508738E-013  0.7246146E+02  0.7816164E-02  0.1226708E+00
        -11   -1    0    0    0    0  0.00000000000E+00  0.00000000000E+00  0.45593999997E+02  0.45594000000E+02  0.51100000000E-03 0. -1.
         11   -1    0    0    0    0 -0.00000000000E+00 -0.00000000000E+00 -0.45593999997E+02  0.45594000000E+02  0.51100000000E-03 0.  1.
    9900012    2    1    2    0    0 -0.10315496820E+02 -0.42240153898E+01 -0.15047641198E+02  0.72461460376E+02  0.69999856811E+02 0.  0.
        -12    1    1    2    0    0  0.10315496820E+02  0.42240153898E+01  0.15047641198E+02  0.18726539624E+02  0.00000000000E+00 0.  1.
         11    1    3    3    0    0 -0.45063153072E+00 -0.34176789704E+01 -0.22967415092E+02  0.23224679860E+02  0.51100000000E-03 0. -1.
        -11    1    3    3    0    0  0.14884361069E+01  0.15494212022E+02 -0.13078936372E+02  0.20330878611E+02  0.51100000000E-03 0.  1.
         12    1    3    3    0    0 -0.11353301396E+02 -0.16300548441E+02  0.20998710266E+02  0.28905901905E+02  0.00000000000E+00 0. -1.
</event>
<event>
 7    1  0.3508738E-013  0.7246156E+02  0.7816164E-02  0.1226708E+00
        -11   -1    0    0    0    0  0.00000000000E+00  0.00000000000E+00  0.45593999997E+02  0.45594000000E+02  0.51100000000E-03 0. -1.
         11   -1    0    0    0    0 -0.00000000000E+00 -0.00000000000E+00 -0.45593999997E+02  0.45594000000E+02  0.51100000000E-03 0.  1.
    9900012    2    1    2    0    0 -0.53628478652E+00 -0.67639657423E+00  0.18706530271E+02  0.72461564448E+02  0.69999992384E+02 0.  0.
        -12    1    1    2    0    0  0.53628478652E+00  0.67639657423E+00 -0.18706530271E+02  0.18726435552E+02  0.00000000000E+00 0.  1.
         11    1    3    3    0    0 -0.26057955403E+02 -0.25009890408E+01  0.18894288879E+02  0.32284146860E+02  0.51100000000E-03 0. -1.
        -11    1    3    3    0    0 -0.67768537725E+01  0.36307989339E+01  0.12853421538E+01  0.77949055585E+01  0.51100000000E-03 0.  1.
        -12    1    3    3    0    0  0.32298524389E+02 -0.18062064674E+01 -0.14731007614E+01  0.32382512029E+02  0.00000000000E+00 0.  1.
</event>
<event>
 7    1  0.3508738E-013  0.7246157E+02  0.7816164E-02  0.1226708E+00
        -11   -1    0    0    0    0  0.00000000000E+00  0.00000000000E+00  0.45593999997E+02  0.45594000000E+02  0.51100000000E-03 0.  1.
         11   -1    0    0    0    0 -0.00000000000E+00 -0.00000000000E+00 -0.45593999997E+02  0.45594000000E+02  0.51100000000E-03 0. -1.
    9900012    2    1    2    0    0 -0.12523015003E+02 -0.75218635921E+01 -0.11716440469E+02  0.72461566439E+02  0.69999994977E+02 0.  0.
        -12    1    1    2    0    0  0.12523015003E+02  0.75218635921E+01  0.11716440469E+02  0.18726433561E+02  0.00000000000E+00 0.  1.
         11    1    3    3    0    0 -0.38093399257E+00  0.57449559941E+01  0.40459372124E+00  0.57717697824E+01  0.51100000000E-03 0. -1.
        -11    1    3    3    0    0 -0.12046093585E+02 -0.25144065014E+02  0.18759118249E+02  0.33604120191E+02  0.51100000000E-03 0.  1.
         12    1    3    3    0    0 -0.95987425541E-01  0.11877245427E+02 -0.30880152439E+02  0.33085676466E+02  0.00000000000E+00 0. -1.
</event>
<event>
 7    1  0.3508738E-013  0.7246155E+02  0.7816164E-02  0.1226708E+00
        -11   -1    0    0    0    0  0.00000000000E+00  0.00000000000E+00  0.45593999997E+02  0.45594000000E+02  0.51100000000E-03 0. -1.
         11   -1    0    0    0    0 -0.00000000000E+00 -0.00000000000E+00 -0.45593999997E+02  0.45594000000E+02  0.51100000000E-03 0.  1.
    9900012    2    1    2    0    0  0.11075635892E+01  0.13218927330E+02  0.13217917233E+02  0.72461546176E+02  0.69999968582E+02 0.  0.
        -12    1    1    2    0    0 -0.11075635892E+01 -0.13218927330E+02 -0.13217917233E+02  0.18726453824E+02  0.00000000000E+00 0.  1.
         11    1    3    3    0    0  0.23542763114E+02  0.23069551280E+02  0.25474627953E+02  0.41658403244E+02  0.51100000000E-03 0. -1.
        -11    1    3    3    0    0 -0.23889350845E+01  0.34449521832E+01 -0.14934749376E+01  0.44503004430E+01  0.51100000000E-03 0.  1.
        -12    1    3    3    0    0 -0.20046264440E+02 -0.13295576133E+02 -0.10763235782E+02  0.26352842489E+02  0.00000000000E+00 0.  1.
</event>
<event>
 7    1  0.3508738E-013  0.7246156E+02  0.7816164E-02  0.1226708E+00
        -11   -1    0    0    0    0  0.00000000000E+00  0.00000000000E+00  0.45593999997E+02  0.45594000000E+02  0.51100000000E-03 0. -1.
         11   -1    0    0    0    0 -0.00000000000E+00 -0.00000000000E+00 -0.45593999997E+02  0.45594000000E+02  0.51100000000E-03 0.  1.
    9900012    2    1    2    0    0 -0.11857074619E+02  0.12985292111E+02 -0.64398270361E+01  0.72461564088E+02  0.69999991915E+02 0.  0.
        -12    1    1    2    0    0  0.11857074619E+02 -0.12985292111E+02  0.64398270361E+01  0.18726435912E+02  0.00000000000E+00 0.  1.
         11    1    3    3    0    0 -0.11520240815E+02  0.15205040499E+02  0.13071821359E+01  0.19121138314E+02  0.51100000000E-03 0. -1.
        -11    1    3    3    0    0 -0.39008870480E+01  0.24692762733E+02  0.38229788133E+00  0.25001911989E+02  0.51100000000E-03 0.  1.
        -12    1    3    3    0    0  0.35640532442E+01 -0.26912511121E+02 -0.81293070534E+01  0.28338513785E+02  0.00000000000E+00 0.  1.
</event>
<event>
 7    1  0.3508738E-013  0.7246140E+02  0.7816164E-02  0.1226708E+00
        -11   -1    0    0    0    0  0.00000000000E+00  0.00000000000E+00  0.45593999997E+02  0.45594000000E+02  0.51100000000E-03 0.  1.
         11   -1    0    0    0    0 -0.00000000000E+00 -0.00000000000E+00 -0.45593999997E+02  0.45594000000E+02  0.51100000000E-03 0. -1.
    9900012    2    1    2    0    0 -0.67228800072E+01 -0.83107495064E+01 -0.15375950172E+02  0.72461400826E+02  0.69999779236E+02 0.  0.
        -12    1    1    2    0    0  0.67228800072E+01  0.83107495064E+01  0.15375950172E+02  0.18726599174E+02  0.00000000000E+00 0.  1.
         11    1    3    3    0    0  0.83143121087E+01 -0.40354258433E+01 -0.86154476956E+01  0.12634808540E+02  0.51100000000E-03 0. -1.
        -11    1    3    3    0    0 -0.14890952241E+02 -0.29999162511E+02 -0.64123771878E+01  0.34099982280E+02  0.51100000000E-03 0.  1.
         12    1    3    3    0    0 -0.14623987439E+00  0.25723838848E+02 -0.34812528812E+00  0.25726610006E+02  0.00000000000E+00 0. -1.
</event>
<event>
 7    1  0.3508738E-013  0.7246142E+02  0.7816164E-02  0.1226708E+00
        -11   -1    0    0    0    0  0.00000000000E+00  0.00000000000E+00  0.45593999997E+02  0.45594000000E+02  0.51100000000E-03 0.  1.
         11   -1    0    0    0    0 -0.00000000000E+00 -0.00000000000E+00 -0.45593999997E+02  0.45594000000E+02  0.51100000000E-03 0. -1.
    9900012    2    1    2    0    0 -0.15602179624E+02 -0.29868325019E+01 -0.99164289334E+01  0.72461421556E+02  0.69999806241E+02 0.  0.
        -12    1    1    2    0    0  0.15602179624E+02  0.29868325019E+01  0.99164289334E+01  0.18726578444E+02  0.00000000000E+00 0.  1.
         11    1    3    3    0    0 -0.16637386756E+02  0.12651762041E+02  0.86041363952E+01  0.22603116692E+02  0.51100000000E-03 0. -1.
        -11    1    3    3    0    0  0.11829264599E+02  0.11143836077E+02 -0.14550813027E+01  0.16316673844E+02  0.51100000000E-03 0.  1.
         12    1    3    3    0    0 -0.10794057467E+02 -0.26782430620E+02 -0.17065484026E+02  0.33541631021E+02  0.00000000000E+00 0. -1.
</event>
<event>
 7    1  0.3508738E-013  0.7246150E+02  0.7816164E-02  0.1226708E+00
        -11   -1    0    0    0    0  0.00000000000E+00  0.00000000000E+00  0.45593999997E+02  0.45594000000E+02  0.51100000000E-03 0. -1.
         11   -1    0    0    0    0 -0.00000000000E+00 -0.00000000000E+00 -0.45593999997E+02  0.45594000000E+02  0.51100000000E-03 0.  1.
    9900012    2    1    2    0    0  0.91401166270E+01 -0.54809649340E+01  0.15398024392E+02  0.72461498358E+02  0.69999906289E+02 0.  0.
        -12    1    1    2    0    0 -0.91401166270E+01  0.54809649340E+01 -0.15398024392E+02  0.18726501642E+02  0.00000000000E+00 0.  1.
         11    1    3    3    0    0  0.95251392059E+01 -0.20960946942E+02 -0.11791068481E+02  0.25867332097E+02  0.51100000000E-03 0. -1.
        -11    1    3    3    0    0 -0.32953714730E+01 -0.57091302822E+01 -0.47712969788E+01  0.81375006510E+01  0.51100000000E-03 0.  1.
        -12    1    3    3    0    0  0.29103488941E+01  0.21189112290E+02  0.31960389852E+02  0.38456665610E+02  0.00000000000E+00 0.  1.
</event>
<event>
 7    1  0.3508738E-013  0.7246160E+02  0.7816164E-02  0.1226708E+00
        -11   -1    0    0    0    0  0.00000000000E+00  0.00000000000E+00  0.45593999997E+02  0.45594000000E+02  0.51100000000E-03 0.  1.
         11   -1    0    0    0    0 -0.00000000000E+00 -0.00000000000E+00 -0.45593999997E+02  0.45594000000E+02  0.51100000000E-03 0. -1.
    9900012    2    1    2    0    0  0.16442322539E+02 -0.10182979110E+01 -0.89045680325E+01  0.72461595301E+02  0.70000032575E+02 0.  0.
        -12    1    1    2    0    0 -0.16442322539E+02  0.10182979110E+01  0.89045680325E+01  0.18726404699E+02  0.00000000000E+00 0.  1.
         11    1    3    3    0    0  0.94314531453E+01  0.15634278763E+02 -0.21830770497E+01  0.18388822870E+02  0.51100000000E-03 0. -1.
        -11    1    3    3    0    0  0.13799778722E+02  0.49184891196E+01  0.16221764831E+02  0.21857975261E+02  0.51100000000E-03 0.  1.
         12    1    3    3    0    0 -0.67889093286E+01 -0.21571065793E+02 -0.22943255814E+02  0.32214797170E+02  0.00000000000E+00 0. -1.
</event>
<event>
 7    1  0.3508738E-013  0.7246159E+02  0.7816164E-02  0.1226708E+00
        -11   -1    0    0    0    0  0.00000000000E+00  0.00000000000E+00  0.45593999997E+02  0.45594000000E+02  0.51100000000E-03 0.  1.
         11   -1    0    0    0    0 -0.00000000000E+00 -0.00000000000E+00 -0.45593999997E+02  0.45594000000E+02  0.51100000000E-03 0. -1.
    9900012    2    1    2    0    0 -0.11216614753E+02  0.88907504972E+00 -0.14969156632E+02  0.72461586802E+02  0.70000021505E+02 0.  0.
        -12    1    1    2    0    0  0.11216614753E+02 -0.88907504972E+00  0.14969156632E+02  0.18726413198E+02  0.00000000000E+00 0.  1.
         11    1    3    3    0    0 -0.14851831761E+02  0.90866037112E+01 -0.75424303779E+01  0.18974496830E+02  0.51100000000E-03 0. -1.
        -11    1    3    3    0    0 -0.18097152751E+02 -0.11406297196E+02  0.11679747580E+02  0.24372670294E+02  0.51100000000E-03 0.  1.
         12    1    3    3    0    0  0.21732369759E+02  0.32087685346E+01 -0.19106473835E+02  0.29114419679E+02  0.00000000000E+00 0. -1.
</event>
<event>
 7    1  0.3508738E-013  0.7246157E+02  0.7816164E-02  0.1226708E+00
        -11   -1    0    0    0    0  0.00000000000E+00  0.00000000000E+00  0.45593999997E+02  0.45594000000E+02  0.51100000000E-03 0.  1.
         11   -1    0    0    0    0 -0.00000000000E+00 -0.00000000000E+00 -0.45593999997E+02  0.45594000000E+02  0.51100000000E-03 0. -1.
    9900012    2    1    2    0    0 -0.11667033620E+02 -0.10035863851E+02 -0.10669632802E+02  0.72461566787E+02  0.69999995432E+02 0.  0.
        -12    1    1    2    0    0  0.11667033620E+02  0.10035863851E+02  0.10669632802E+02  0.18726433213E+02  0.00000000000E+00 0.  1.
         11    1    3    3    0    0 -0.44371791994E+01 -0.11557142127E+02 -0.11593738847E+02  0.16960863012E+02  0.51100000000E-03 0. -1.
        -11    1    3    3    0    0 -0.27976697690E+02 -0.11443804772E+02  0.51833157841E+01  0.30667948156E+02  0.51100000000E-03 0.  1.
         12    1    3    3    0    0  0.20746843269E+02  0.12965083048E+02 -0.42592097388E+01  0.24832755620E+02  0.00000000000E+00 0. -1.
</event>
<event>
 7    1  0.3508738E-013  0.7246149E+02  0.7816164E-02  0.1226708E+00
        -11   -1    0    0    0    0  0.00000000000E+00  0.00000000000E+00  0.45593999997E+02  0.45594000000E+02  0.51100000000E-03 0. -1.
         11   -1    0    0    0    0 -0.00000000000E+00 -0.00000000000E+00 -0.45593999997E+02  0.45594000000E+02  0.51100000000E-03 0.  1.
    9900012    2    1    2    0    0 -0.11357113521E+02  0.89069540374E+01 -0.11931650438E+02  0.72461490984E+02  0.69999896683E+02 0.  0.
        -12    1    1    2    0    0  0.11357113521E+02 -0.89069540374E+01  0.11931650438E+02  0.18726509016E+02  0.00000000000E+00 0.  1.
         11    1    3    3    0    0 -0.24718484598E+02 -0.22090480838E+02 -0.62586626441E+00  0.33156968095E+02  0.51100000000E-03 0. -1.
        -11    1    3    3    0    0 -0.20810733778E+01  0.89488223935E+01  0.18043960873E+01  0.93631263014E+01  0.51100000000E-03 0.  1.
        -12    1    3    3    0    0  0.15442444454E+02  0.22048612482E+02 -0.13110180261E+02  0.29941396587E+02  0.00000000000E+00 0.  1.
</event>
<event>
 7    1  0.3508738E-013  0.7246127E+02  0.7816164E-02  0.1226709E+00
        -11   -1    0    0    0    0  0.00000000000E+00  0.00000000000E+00  0.45593999997E+02  0.45594000000E+02  0.51100000000E-03 0.  1.
         11   -1    0    0    0    0 -0.00000000000E+00 -0.00000000000E+00 -0.45593999997E+02  0.45594000000E+02  0.51100000000E-03 0. -1.
    9900012    2    1    2    0    0 -0.12852559164E+02  0.20842715812E+01 -0.13459491226E+02  0.72461271264E+02  0.69999610457E+02 0.  0.
        -12    1    1    2    0    0  0.12852559164E+02 -0.20842715812E+01  0.13459491226E+02  0.18726728736E+02  0.00000000000E+00 0.  1.
         11    1    3    3    0    0 -0.26553443357E+01  0.12463788922E+02 -0.30132645527E+02  0.32716558721E+02  0.51100000000E-03 0. -1.
        -11    1    3    3    0    0  0.77358266540E+01  0.40035323870E+00 -0.53133420364E+01  0.93933434193E+01  0.51100000000E-03 0.  1.
        -12    1    3    3    0    0 -0.17933041482E+02 -0.10779870580E+02  0.21986496337E+02  0.30351369124E+02  0.00000000000E+00 0.  1.
</event>
<event>
 7    1  0.3508738E-013  0.7246146E+02  0.7816164E-02  0.1226708E+00
        -11   -1    0    0    0    0  0.00000000000E+00  0.00000000000E+00  0.45593999997E+02  0.45594000000E+02  0.51100000000E-03 0.  1.
         11   -1    0    0    0    0 -0.00000000000E+00 -0.00000000000E+00 -0.45593999997E+02  0.45594000000E+02  0.51100000000E-03 0. -1.
    9900012    2    1    2    0    0  0.18565184155E+02  0.24291636305E+01  0.34117423335E+00  0.72461460050E+02  0.69999856386E+02 0.  0.
        -12    1    1    2    0    0 -0.18565184155E+02 -0.24291636305E+01 -0.34117423335E+00  0.18726539950E+02  0.00000000000E+00 0.  1.
         11    1    3    3    0    0 -0.12521950177E+02 -0.82261011109E+01 -0.18914713112E+02  0.24129532695E+02  0.51100000000E-03 0. -1.
        -11    1    3    3    0    0  0.14214591984E+01 -0.75171567875E+01 -0.15359766684E+01  0.78030389597E+01  0.51100000000E-03 0.  1.
        -12    1    3    3    0    0  0.29665675134E+02  0.18172421529E+02  0.20791864014E+02  0.40528888395E+02  0.00000000000E+00 0.  1.
</event>
<event>
 7    1  0.3508738E-013  0.7246163E+02  0.7816164E-02  0.1226708E+00
        -11   -1    0    0    0    0  0.00000000000E+00  0.00000000000E+00  0.45593999997E+02  0.45594000000E+02  0.51100000000E-03 0.  1.
         11   -1    0    0    0    0 -0.00000000000E+00 -0.00000000000E+00 -0.45593999997E+02  0.45594000000E+02  0.51100000000E-03 0. -1.
    9900012    2    1    2    0    0 -0.54351806254E+01 -0.12914650570E+02 -0.12423668812E+02  0.72461629969E+02  0.70000077738E+02 0.  0.
        -12    1    1    2    0    0  0.54351806254E+01  0.12914650570E+02  0.12423668812E+02  0.18726370031E+02  0.00000000000E+00 0.  1.
         11    1    3    3    0    0 -0.21791342939E+02  0.46793963185E+01  0.87404321117E+01  0.23940645997E+02  0.51100000000E-03 0. -1.
        -11    1    3    3    0    0 -0.34072357025E+01  0.79651135062E+01 -0.12252062490E+02  0.15005509782E+02  0.51100000000E-03 0.  1.
        -12    1    3    3    0    0  0.19763398016E+02 -0.25559160394E+02 -0.89120384344E+01  0.33515474191E+02  0.00000000000E+00 0.  1.
</event>
<event>
 7    1  0.3508738E-013  0.7246150E+02  0.7816164E-02  0.1226708E+00
        -11   -1    0    0    0    0  0.00000000000E+00  0.00000000000E+00  0.45593999997E+02  0.45594000000E+02  0.51100000000E-03 0. -1.
         11   -1    0    0    0    0 -0.00000000000E+00 -0.00000000000E+00 -0.45593999997E+02  0.45594000000E+02  0.51100000000E-03 0.  1.
    9900012    2    1    2    0    0  0.16893007130E+02 -0.20831605069E+01  0.78082283903E+01  0.72461503312E+02  0.69999912743E+02 0.  0.
        -12    1    1    2    0    0 -0.16893007130E+02  0.20831605069E+01 -0.78082283903E+01  0.18726496688E+02  0.00000000000E+00 0.  1.
         11    1    3    3    0    0  0.18099652820E+01 -0.11133874912E+02 -0.42817503674E+01  0.12065344229E+02  0.51100000000E-03 0. -1.
        -11    1    3    3    0    0  0.88541252807E+01  0.11576474205E+02 -0.21591796829E+02  0.26050258733E+02  0.51100000000E-03 0.  1.
         12    1    3    3    0    0  0.62289165677E+01 -0.25257597993E+01  0.33681775587E+02  0.34345900350E+02  0.00000000000E+00 0. -1.
</event>
<event>
 7    1  0.3508738E-013  0.7246154E+02  0.7816164E-02  0.1226708E+00
        -11   -1    0    0    0    0  0.00000000000E+00  0.00000000000E+00  0.45593999997E+02  0.45594000000E+02  0.51100000000E-03 0. -1.
         11   -1    0    0    0    0 -0.00000000000E+00 -0.00000000000E+00 -0.45593999997E+02  0.45594000000E+02  0.51100000000E-03 0.  1.
    9900012    2    1    2    0    0 -0.20262455797E+01  0.16326042814E+02  0.89462220501E+01  0.72461541871E+02  0.69999962973E+02 0.  0.
        -12    1    1    2    0    0  0.20262455797E+01 -0.16326042814E+02 -0.89462220501E+01  0.18726458129E+02  0.00000000000E+00 0.  1.
         11    1    3    3    0    0 -0.65772374420E+01 -0.20555553940E+02  0.78530760238E+01  0.22966533335E+02  0.51100000000E-03 0.  1.
        -11    1    3    3    0    0 -0.13076081631E+02  0.20656921810E+02 -0.45850112495E+01  0.24873975515E+02  0.51100000000E-03 0. -1.
        -12    1    3    3    0    0  0.17627073494E+02  0.16224674944E+02  0.56781572758E+01  0.24621033021E+02  0.00000000000E+00 0.  1.
</event>
<event>
 7    1  0.3508738E-013  0.7246155E+02  0.7816164E-02  0.1226708E+00
        -11   -1    0    0    0    0  0.00000000000E+00  0.00000000000E+00  0.45593999997E+02  0.45594000000E+02  0.51100000000E-03 0.  1.
         11   -1    0    0    0    0 -0.00000000000E+00 -0.00000000000E+00 -0.45593999997E+02  0.45594000000E+02  0.51100000000E-03 0. -1.
    9900012    2    1    2    0    0 -0.92467780989E+00  0.10971778233E+02 -0.15147436233E+02  0.72461554232E+02  0.69999979076E+02 0.  0.
        -12    1    1    2    0    0  0.92467780989E+00 -0.10971778233E+02  0.15147436233E+02  0.18726445768E+02  0.00000000000E+00 0.  1.
         11    1    3    3    0    0 -0.36772486439E+01  0.18216090435E+02 -0.15758542319E+02  0.24365544620E+02  0.51100000000E-03 0. -1.
        -11    1    3    3    0    0 -0.20536138630E+02  0.58408641659E+01  0.10939278775E+01  0.21378619284E+02  0.51100000000E-03 0.  1.
         12    1    3    3    0    0  0.23288709464E+02 -0.13085176368E+02 -0.48282179147E+00  0.26717390328E+02  0.00000000000E+00 0. -1.
</event>
<event>
 7    1  0.3508738E-013  0.7246154E+02  0.7816164E-02  0.1226708E+00
        -11   -1    0    0    0    0  0.00000000000E+00  0.00000000000E+00  0.45593999997E+02  0.45594000000E+02  0.51100000000E-03 0. -1.
         11   -1    0    0    0    0 -0.00000000000E+00 -0.00000000000E+00 -0.45593999997E+02  0.45594000000E+02  0.51100000000E-03 0.  1.
    9900012    2    1    2    0    0 -0.18101719880E+02  0.29357844459E+01 -0.37932999256E+01  0.72461542320E+02  0.69999963558E+02 0.  0.
        -12    1    1    2    0    0  0.18101719880E+02 -0.29357844459E+01  0.37932999256E+01  0.18726457680E+02  0.00000000000E+00 0.  1.
         11    1    3    3    0    0 -0.17372925858E+02 -0.15187833076E+02  0.55754534775E-01  0.23075786774E+02  0.51100000000E-03 0. -1.
        -11    1    3    3    0    0 -0.15532579882E+02 -0.20475422939E+01  0.12029086677E+02  0.19752275661E+02  0.51100000000E-03 0.  1.
         12    1    3    3    0    0  0.14803785860E+02  0.20171159816E+02 -0.15878141137E+02  0.29633479885E+02  0.00000000000E+00 0. -1.
</event>
<event>
 7    1  0.3508738E-013  0.7246154E+02  0.7816164E-02  0.1226708E+00
        -11   -1    0    0    0    0  0.00000000000E+00  0.00000000000E+00  0.45593999997E+02  0.45594000000E+02  0.51100000000E-03 0. -1.
         11   -1    0    0    0    0 -0.00000000000E+00 -0.00000000000E+00 -0.45593999997E+02  0.45594000000E+02  0.51100000000E-03 0.  1.
    9900012    2    1    2    0    0  0.68235550324E+01 -0.14434454052E+02  0.97860122095E+01  0.72461537386E+02  0.69999957131E+02 0.  0.
        -12    1    1    2    0    0 -0.68235550324E+01  0.14434454052E+02 -0.97860122095E+01  0.18726462614E+02  0.00000000000E+00 0.  1.
         11    1    3    3    0    0  0.33385774445E+02 -0.13388645886E+02 -0.10503141365E+02  0.37472413223E+02  0.51100000000E-03 0. -1.
        -11    1    3    3    0    0  0.79495146265E+00  0.69198332364E+00  0.42587951826E+00  0.11367332024E+01  0.51100000000E-03 0.  1.
        -12    1    3    3    0    0 -0.27357170875E+02 -0.17377914902E+01  0.19863274057E+02  0.33852390961E+02  0.00000000000E+00 0.  1.
</event>
<event>
 7    1  0.3508738E-013  0.7246157E+02  0.7816164E-02  0.1226708E+00
        -11   -1    0    0    0    0  0.00000000000E+00  0.00000000000E+00  0.45593999997E+02  0.45594000000E+02  0.51100000000E-03 0. -1.
         11   -1    0    0    0    0 -0.00000000000E+00 -0.00000000000E+00 -0.45593999997E+02  0.45594000000E+02  0.51100000000E-03 0.  1.
    9900012    2    1    2    0    0  0.10737224947E+02 -0.15056360915E+02 -0.29490915665E+01  0.72461570958E+02  0.70000000865E+02 0.  0.
        -12    1    1    2    0    0 -0.10737224947E+02  0.15056360915E+02  0.29490915665E+01  0.18726429042E+02  0.00000000000E+00 0.  1.
         11    1    3    3    0    0  0.22672704068E+02  0.12889179354E+02  0.12284210668E+02  0.28828532501E+02  0.51100000000E-03 0. -1.
        -11    1    3    3    0    0  0.20394022663E+00  0.52663021855E+01 -0.39489725573E+00  0.52850235978E+01  0.51100000000E-03 0.  1.
        -12    1    3    3    0    0 -0.12139419348E+02 -0.33211842455E+02 -0.14838404979E+02  0.38348014859E+02  0.00000000000E+00 0.  1.
</event>
<event>
 7    1  0.3508738E-013  0.7246156E+02  0.7816164E-02  0.1226708E+00
        -11   -1    0    0    0    0  0.00000000000E+00  0.00000000000E+00  0.45593999997E+02  0.45594000000E+02  0.51100000000E-03 0.  1.
         11   -1    0    0    0    0 -0.00000000000E+00 -0.00000000000E+00 -0.45593999997E+02  0.45594000000E+02  0.51100000000E-03 0. -1.
    9900012    2    1    2    0    0  0.73471137486E+01 -0.31132803519E+01 -0.16941282335E+02  0.72461557676E+02  0.69999983562E+02 0.  0.
        -12    1    1    2    0    0 -0.73471137486E+01  0.31132803519E+01  0.16941282335E+02  0.18726442324E+02  0.00000000000E+00 0.  1.
         11    1    3    3    0    0  0.61575757239E+01  0.66814175884E+01 -0.88442641842E+01  0.12679830007E+02  0.51100000000E-03 0. -1.
        -11    1    3    3    0    0  0.28212489924E+02 -0.70133622533E+01 -0.13550395431E+02  0.32074055783E+02  0.51100000000E-03 0.  1.
         12    1    3    3    0    0 -0.27022951899E+02 -0.27813356871E+01  0.54533772808E+01  0.27707671885E+02  0.00000000000E+00 0. -1.
</event>
<event>
 7    1  0.3508738E-013  0.7246156E+02  0.7816164E-02  0.1226708E+00
        -11   -1    0    0    0    0  0.00000000000E+00  0.00000000000E+00  0.45593999997E+02  0.45594000000E+02  0.51100000000E-03 0.  1.
         11   -1    0    0    0    0 -0.00000000000E+00 -0.00000000000E+00 -0.45593999997E+02  0.45594000000E+02  0.51100000000E-03 0. -1.
    9900012    2    1    2    0    0 -0.13071505634E+02 -0.94730821024E+01 -0.94908298596E+01  0.72461564261E+02  0.69999992141E+02 0.  0.
        -12    1    1    2    0    0  0.13071505634E+02  0.94730821024E+01  0.94908298596E+01  0.18726435739E+02  0.00000000000E+00 0.  1.
         11    1    3    3    0    0  0.24106947955E+01 -0.13410339989E+02  0.62615251226E+01  0.14995178063E+02  0.51100000000E-03 0. -1.
        -11    1    3    3    0    0  0.18285670993E+02  0.27486659230E+01 -0.14765707884E+02  0.23663200494E+02  0.51100000000E-03 0.  1.
        -12    1    3    3    0    0 -0.33767871423E+02  0.11885919637E+01 -0.98664709771E+00  0.33803185704E+02  0.00000000000E+00 0.  1.
</event>
<event>
 7    1  0.3508738E-013  0.7246161E+02  0.7816164E-02  0.1226708E+00
        -11   -1    0    0    0    0  0.00000000000E+00  0.00000000000E+00  0.45593999997E+02  0.45594000000E+02  0.51100000000E-03 0.  1.
         11   -1    0    0    0    0 -0.00000000000E+00 -0.00000000000E+00 -0.45593999997E+02  0.45594000000E+02  0.51100000000E-03 0. -1.
    9900012    2    1    2    0    0 -0.11776266318E+02 -0.13443230609E+02  0.55925586419E+01  0.72461611940E+02  0.70000054252E+02 0.  0.
        -12    1    1    2    0    0  0.11776266318E+02  0.13443230609E+02 -0.55925586419E+01  0.18726388060E+02  0.00000000000E+00 0.  1.
         11    1    3    3    0    0  0.37359077865E+01 -0.22607372428E+02  0.77655662867E+01  0.24194096699E+02  0.51100000000E-03 0. -1.
        -11    1    3    3    0    0  0.46290099275E+01 -0.13730945678E+02  0.74479536197E+01  0.16292286995E+02  0.51100000000E-03 0.  1.
        -12    1    3    3    0    0 -0.20141184032E+02  0.22895087498E+02 -0.96209612645E+01  0.31975228246E+02  0.00000000000E+00 0.  1.
</event>
<event>
 7    1  0.3508738E-013  0.7246158E+02  0.7816164E-02  0.1226708E+00
        -11   -1    0    0    0    0  0.00000000000E+00  0.00000000000E+00  0.45593999997E+02  0.45594000000E+02  0.51100000000E-03 0.  1.
         11   -1    0    0    0    0 -0.00000000000E+00 -0.00000000000E+00 -0.45593999997E+02  0.45594000000E+02  0.51100000000E-03 0. -1.
    9900012    2    1    2    0    0  0.13589043230E+02 -0.11980167548E+02  0.47425992574E+01  0.72461581279E+02  0.70000014310E+02 0.  0.
        -12    1    1    2    0    0 -0.13589043230E+02  0.11980167548E+02 -0.47425992574E+01  0.18726418721E+02  0.00000000000E+00 0.  1.
         11    1    3    3    0    0 -0.98623006005E+01 -0.33249644831E+01 -0.52166710305E+01  0.11641907870E+02  0.51100000000E-03 0. -1.
        -11    1    3    3    0    0 -0.15169462581E+02  0.88043018634E+01  0.43075559324E+01  0.18060547186E+02  0.51100000000E-03 0.  1.
         12    1    3    3    0    0  0.38620806412E+02 -0.17459504928E+02  0.56517143555E+01  0.42759126223E+02  0.00000000000E+00 0. -1.
</event>
<event>
 7    1  0.3508738E-013  0.7246150E+02  0.7816164E-02  0.1226708E+00
        -11   -1    0    0    0    0  0.00000000000E+00  0.00000000000E+00  0.45593999997E+02  0.45594000000E+02  0.51100000000E-03 0. -1.
         11   -1    0    0    0    0 -0.00000000000E+00 -0.00000000000E+00 -0.45593999997E+02  0.45594000000E+02  0.51100000000E-03 0.  1.
    9900012    2    1    2    0    0 -0.89092551613E+01  0.15743128551E+02  0.48436548673E+01  0.72461496947E+02  0.69999904452E+02 0.  0.
        -12    1    1    2    0    0  0.89092551613E+01 -0.15743128551E+02 -0.48436548673E+01  0.18726503053E+02  0.00000000000E+00 0.  1.
         11    1    3    3    0    0 -0.99327355752E+01  0.48934764978E+01  0.77973936822E+01  0.13542699020E+02  0.51100000000E-03 0. -1.
        -11    1    3    3    0    0 -0.17996309543E+02  0.11447027723E+02 -0.22939440953E+02  0.31322827975E+02  0.51100000000E-03 0.  1.
         12    1    3    3    0    0  0.19019789957E+02 -0.59737566961E+00  0.19985702138E+02  0.27595969953E+02  0.00000000000E+00 0. -1.
</event>
<event>
 7    1  0.3508738E-013  0.7246160E+02  0.7816164E-02  0.1226708E+00
        -11   -1    0    0    0    0  0.00000000000E+00  0.00000000000E+00  0.45593999997E+02  0.45594000000E+02  0.51100000000E-03 0. -1.
         11   -1    0    0    0    0 -0.00000000000E+00 -0.00000000000E+00 -0.45593999997E+02  0.45594000000E+02  0.51100000000E-03 0.  1.
    9900012    2    1    2    0    0 -0.53544859906E+00  0.15391733085E+02  0.10652977226E+02  0.72461599482E+02  0.70000038023E+02 0.  0.
        -12    1    1    2    0    0  0.53544859906E+00 -0.15391733085E+02 -0.10652977226E+02  0.18726400518E+02  0.00000000000E+00 0.  1.
         11    1    3    3    0    0  0.36360720340E+01  0.85577372706E+00  0.29699981935E+02  0.29933965586E+02  0.51100000000E-03 0. -1.
        -11    1    3    3    0    0 -0.66521557157E+01  0.22197353317E+02 -0.15002794676E+01  0.23221208166E+02  0.51100000000E-03 0.  1.
        -12    1    3    3    0    0  0.24806350827E+01 -0.76613939591E+01 -0.17546725241E+02  0.19306425730E+02  0.00000000000E+00 0.  1.
</event>
<event>
 7    1  0.3508738E-013  0.7246163E+02  0.7816164E-02  0.1226708E+00
        -11   -1    0    0    0    0  0.00000000000E+00  0.00000000000E+00  0.45593999997E+02  0.45594000000E+02  0.51100000000E-03 0. -1.
         11   -1    0    0    0    0 -0.00000000000E+00 -0.00000000000E+00 -0.45593999997E+02  0.45594000000E+02  0.51100000000E-03 0.  1.
    9900012    2    1    2    0    0 -0.15341182495E+02  0.86336063174E+01  0.63863877230E+01  0.72461628580E+02  0.70000075929E+02 0.  0.
        -12    1    1    2    0    0  0.15341182495E+02 -0.86336063174E+01 -0.63863877230E+01  0.18726371420E+02  0.00000000000E+00 0.  1.
         11    1    3    3    0    0 -0.15412232890E+02 -0.10935425246E+02 -0.66763555484E+01  0.20042309538E+02  0.51100000000E-03 0. -1.
        -11    1    3    3    0    0 -0.94037608770E+01  0.63917205200E+01 -0.15705070958E+02  0.19389019157E+02  0.51100000000E-03 0.  1.
        -12    1    3    3    0    0  0.94748112721E+01  0.13177311043E+02  0.28767814229E+02  0.33030299885E+02  0.00000000000E+00 0.  1.
</event>
<event>
 7    1  0.3508738E-013  0.7246159E+02  0.7816164E-02  0.1226708E+00
        -11   -1    0    0    0    0  0.00000000000E+00  0.00000000000E+00  0.45593999997E+02  0.45594000000E+02  0.51100000000E-03 0.  1.
         11   -1    0    0    0    0 -0.00000000000E+00 -0.00000000000E+00 -0.45593999997E+02  0.45594000000E+02  0.51100000000E-03 0. -1.
    9900012    2    1    2    0    0  0.11855362019E+02  0.17172373317E+01 -0.14393748047E+02  0.72461588291E+02  0.70000023444E+02 0.  0.
        -12    1    1    2    0    0 -0.11855362019E+02 -0.17172373317E+01  0.14393748047E+02  0.18726411709E+02  0.00000000000E+00 0.  1.
         11    1    3    3    0    0  0.21045715517E+02  0.15432821642E+02 -0.25156490632E+02  0.36248353709E+02  0.51100000000E-03 0. -1.
        -11    1    3    3    0    0  0.43821624846E+00  0.54206664463E+01 -0.66616181476E+01  0.85995822462E+01  0.51100000000E-03 0.  1.
        -12    1    3    3    0    0 -0.96285697461E+01 -0.19136250757E+02  0.17424360733E+02  0.27613652336E+02  0.00000000000E+00 0.  1.
</event>
<event>
 7    1  0.3508738E-013  0.7246155E+02  0.7816164E-02  0.1226708E+00
        -11   -1    0    0    0    0  0.00000000000E+00  0.00000000000E+00  0.45593999997E+02  0.45594000000E+02  0.51100000000E-03 0. -1.
         11   -1    0    0    0    0 -0.00000000000E+00 -0.00000000000E+00 -0.45593999997E+02  0.45594000000E+02  0.51100000000E-03 0.  1.
    9900012    2    1    2    0    0 -0.75019908340E+01 -0.16977847997E+02  0.24804664993E+01  0.72461550707E+02  0.69999974484E+02 0.  0.
        -12    1    1    2    0    0  0.75019908340E+01  0.16977847997E+02 -0.24804664993E+01  0.18726449293E+02  0.00000000000E+00 0.  1.
         11    1    3    3    0    0 -0.57850621622E+01 -0.62051004431E+01  0.98454450843E+00  0.85404650857E+01  0.51100000000E-03 0. -1.
        -11    1    3    3    0    0 -0.26424231108E+02  0.88351221933E+01  0.12468412158E+02  0.30524755132E+02  0.51100000000E-03 0.  1.
         12    1    3    3    0    0  0.24707302437E+02 -0.19607869747E+02 -0.10972490167E+02  0.33396330490E+02  0.00000000000E+00 0. -1.
</event>
<event>
 7    1  0.3508738E-013  0.7246156E+02  0.7816164E-02  0.1226708E+00
        -11   -1    0    0    0    0  0.00000000000E+00  0.00000000000E+00  0.45593999997E+02  0.45594000000E+02  0.51100000000E-03 0.  1.
         11   -1    0    0    0    0 -0.00000000000E+00 -0.00000000000E+00 -0.45593999997E+02  0.45594000000E+02  0.51100000000E-03 0. -1.
    9900012    2    1    2    0    0  0.69733508341E+01 -0.16081965383E+02 -0.65895709662E+01  0.72461556719E+02  0.69999982315E+02 0.  0.
        -12    1    1    2    0    0 -0.69733508341E+01  0.16081965383E+02  0.65895709662E+01  0.18726443281E+02  0.00000000000E+00 0.  1.
         11    1    3    3    0    0  0.13783578315E+02  0.79774595276E+00  0.20893878448E+01  0.13963845158E+02  0.51100000000E-03 0. -1.
        -11    1    3    3    0    0  0.13059554885E+02  0.14308971668E+02  0.32450753912E+01  0.19642534422E+02  0.51100000000E-03 0.  1.
        -12    1    3    3    0    0 -0.19869782366E+02 -0.31188683004E+02 -0.11924034202E+02  0.38855177138E+02  0.00000000000E+00 0.  1.
</event>
<event>
 7    1  0.3508738E-013  0.7246158E+02  0.7816164E-02  0.1226708E+00
        -11   -1    0    0    0    0  0.00000000000E+00  0.00000000000E+00  0.45593999997E+02  0.45594000000E+02  0.51100000000E-03 0.  1.
         11   -1    0    0    0    0 -0.00000000000E+00 -0.00000000000E+00 -0.45593999997E+02  0.45594000000E+02  0.51100000000E-03 0. -1.
    9900012    2    1    2    0    0 -0.13152279310E+02  0.10340388878E+02 -0.84126501954E+01  0.72461580788E+02  0.70000013670E+02 0.  0.
        -12    1    1    2    0    0  0.13152279310E+02 -0.10340388878E+02  0.84126501954E+01  0.18726419212E+02  0.00000000000E+00 0.  1.
         11    1    3    3    0    0  0.44500010556E+01 -0.96131035623E+01 -0.27198234488E+02  0.29188323504E+02  0.51100000000E-03 0. -1.
        -11    1    3    3    0    0  0.66533482786E+01  0.80431833957E+01  0.10972191250E+02  0.15144267019E+02  0.51100000000E-03 0.  1.
        -12    1    3    3    0    0 -0.24255628644E+02  0.11910309045E+02  0.78133930426E+01  0.28128990265E+02  0.00000000000E+00 0.  1.
</event>
<event>
 7    1  0.3508738E-013  0.7246157E+02  0.7816164E-02  0.1226708E+00
        -11   -1    0    0    0    0  0.00000000000E+00  0.00000000000E+00  0.45593999997E+02  0.45594000000E+02  0.51100000000E-03 0.  1.
         11   -1    0    0    0    0 -0.00000000000E+00 -0.00000000000E+00 -0.45593999997E+02  0.45594000000E+02  0.51100000000E-03 0. -1.
    9900012    2    1    2    0    0  0.42491179788E+01 -0.17205045548E+02  0.60506775464E+01  0.72461566953E+02  0.69999995647E+02 0.  0.
        -12    1    1    2    0    0 -0.42491179788E+01  0.17205045548E+02 -0.60506775464E+01  0.18726433047E+02  0.00000000000E+00 0.  1.
         11    1    3    3    0    0  0.40554521744E+01 -0.48407217506E+01 -0.10072865273E+01  0.63948343071E+01  0.51100000000E-03 0. -1.
        -11    1    3    3    0    0  0.43268616360E+01  0.93252249653E+01  0.31496078397E+02  0.33131322143E+02  0.51100000000E-03 0.  1.
         12    1    3    3    0    0 -0.41331958315E+01 -0.21689548762E+02 -0.24438114324E+02  0.32935410503E+02  0.00000000000E+00 0. -1.
</event>
<event>
 7    1  0.3508738E-013  0.7246158E+02  0.7816164E-02  0.1226708E+00
        -11   -1    0    0    0    0  0.00000000000E+00  0.00000000000E+00  0.45593999997E+02  0.45594000000E+02  0.51100000000E-03 0.  1.
         11   -1    0    0    0    0 -0.00000000000E+00 -0.00000000000E+00 -0.45593999997E+02  0.45594000000E+02  0.51100000000E-03 0. -1.
    9900012    2    1    2    0    0  0.13807892124E+02  0.53733535204E+00 -0.12638519633E+02  0.72461580355E+02  0.70000013106E+02 0.  0.
        -12    1    1    2    0    0 -0.13807892124E+02 -0.53733535204E+00  0.12638519633E+02  0.18726419645E+02  0.00000000000E+00 0.  1.
         11    1    3    3    0    0  0.21630018436E+01 -0.11074770001E+02 -0.55949696357E+01  0.12594951093E+02  0.51100000000E-03 0. -1.
        -11    1    3    3    0    0  0.28880201997E+02 -0.41058261485E+01  0.10152770896E+02  0.30886933044E+02  0.51100000000E-03 0.  1.
         12    1    3    3    0    0 -0.17235311716E+02  0.15717931502E+02 -0.17196320893E+02  0.28979696218E+02  0.00000000000E+00 0. -1.
</event>
<event>
 7    1  0.3508738E-013  0.7246161E+02  0.7816164E-02  0.1226708E+00
        -11   -1    0    0    0    0  0.00000000000E+00  0.00000000000E+00  0.45593999997E+02  0.45594000000E+02  0.51100000000E-03 0.  1.
         11   -1    0    0    0    0 -0.00000000000E+00 -0.00000000000E+00 -0.45593999997E+02  0.45594000000E+02  0.51100000000E-03 0. -1.
    9900012    2    1    2    0    0 -0.17525856979E+02 -0.18087567666E+01 -0.63443330071E+01  0.72461606189E+02  0.70000046759E+02 0.  0.
        -12    1    1    2    0    0  0.17525856979E+02  0.18087567666E+01  0.63443330071E+01  0.18726393811E+02  0.00000000000E+00 0.  1.
         11    1    3    3    0    0  0.22182122697E+01  0.81511738456E+01 -0.35006720762E+01  0.91442225466E+01  0.51100000000E-03 0. -1.
        -11    1    3    3    0    0  0.51610513076E+01  0.19470699890E+02  0.10249199395E+02  0.22600679046E+02  0.51100000000E-03 0.  1.
         12    1    3    3    0    0 -0.24905120556E+02 -0.29430630502E+02 -0.13092860326E+02  0.40716704596E+02  0.00000000000E+00 0. -1.
</event>
<event>
 7    1  0.3508738E-013  0.7246180E+02  0.7816164E-02  0.1226707E+00
        -11   -1    0    0    0    0  0.00000000000E+00  0.00000000000E+00  0.45593999997E+02  0.45594000000E+02  0.51100000000E-03 0.  1.
         11   -1    0    0    0    0 -0.00000000000E+00 -0.00000000000E+00 -0.45593999997E+02  0.45594000000E+02  0.51100000000E-03 0. -1.
    9900012    2    1    2    0    0 -0.94320488107E+01 -0.14698574954E+02 -0.67571353130E+01  0.72461801024E+02  0.70000300568E+02 0.  0.
        -12    1    1    2    0    0  0.94320488107E+01  0.14698574954E+02  0.67571353130E+01  0.18726198976E+02  0.00000000000E+00 0.  1.
         11    1    3    3    0    0  0.42990579460E+01  0.37928224340E+01  0.10549252252E+02  0.12006420140E+02  0.51100000000E-03 0.  1.
        -11    1    3    3    0    0  0.17386550048E+02  0.56631164217E+00 -0.16470517587E+02  0.23956017642E+02  0.51100000000E-03 0. -1.
        -12    1    3    3    0    0 -0.31117656805E+02 -0.19057709030E+02 -0.83586997824E+00  0.36499363242E+02  0.00000000000E+00 0.  1.
</event>
<event>
 7    1  0.3508738E-013  0.7246155E+02  0.7816164E-02  0.1226708E+00
        -11   -1    0    0    0    0  0.00000000000E+00  0.00000000000E+00  0.45593999997E+02  0.45594000000E+02  0.51100000000E-03 0. -1.
         11   -1    0    0    0    0 -0.00000000000E+00 -0.00000000000E+00 -0.45593999997E+02  0.45594000000E+02  0.51100000000E-03 0.  1.
    9900012    2    1    2    0    0 -0.15579215729E+02 -0.71867453836E+01  0.75045734672E+01  0.72461550927E+02  0.69999974771E+02 0.  0.
        -12    1    1    2    0    0  0.15579215729E+02  0.71867453836E+01 -0.75045734672E+01  0.18726449073E+02  0.00000000000E+00 0.  1.
         11    1    3    3    0    0  0.52320146544E+01 -0.14913480188E+02  0.24425999332E+02  0.29093217634E+02  0.51100000000E-03 0. -1.
        -11    1    3    3    0    0 -0.25400340899E+02  0.24858606311E+01 -0.49571207093E+00  0.25526506843E+02  0.51100000000E-03 0.  1.
        -12    1    3    3    0    0  0.45891105157E+01  0.52408741732E+01 -0.16425713794E+02  0.17841826450E+02  0.00000000000E+00 0.  1.
</event>
<event>
 7    1  0.3508738E-013  0.7246159E+02  0.7816164E-02  0.1226708E+00
        -11   -1    0    0    0    0  0.00000000000E+00  0.00000000000E+00  0.45593999997E+02  0.45594000000E+02  0.51100000000E-03 0.  1.
         11   -1    0    0    0    0 -0.00000000000E+00 -0.00000000000E+00 -0.45593999997E+02  0.45594000000E+02  0.51100000000E-03 0. -1.
    9900012    2    1    2    0    0 -0.45644820071E+01  0.49415851019E+01 -0.17476404045E+02  0.72461589301E+02  0.70000024760E+02 0.  0.
        -12    1    1    2    0    0  0.45644820071E+01 -0.49415851019E+01  0.17476404045E+02  0.18726410699E+02  0.00000000000E+00 0.  1.
         11    1    3    3    0    0 -0.12813693525E+02 -0.69101464121E+01 -0.17050835842E+02  0.22420344965E+02  0.51100000000E-03 0. -1.
        -11    1    3    3    0    0 -0.15180589266E+02  0.15604320282E+02 -0.10611715316E+02  0.24218868763E+02  0.51100000000E-03 0.  1.
        -12    1    3    3    0    0  0.23429800784E+02 -0.37525887682E+01  0.10186147113E+02  0.25822375573E+02  0.00000000000E+00 0.  1.
</event>
<event>
 7    1  0.4147024E-013  0.7246160E+02  0.7816164E-02  0.1226708E+00
        -11   -1    0    0    0    0  0.00000000000E+00  0.00000000000E+00  0.45593999997E+02  0.45594000000E+02  0.51100000000E-03 0. -1.
         11   -1    0    0    0    0 -0.00000000000E+00 -0.00000000000E+00 -0.45593999997E+02  0.45594000000E+02  0.51100000000E-03 0.  1.
    9900012    2    1    2    0    0  0.77418883029E+01 -0.77024654046E+01  0.15212276369E+02  0.72461597245E+02  0.70000035109E+02 0.  0.
        -12    1    1    2    0    0 -0.77418883029E+01  0.77024654046E+01 -0.15212276369E+02  0.18726402755E+02  0.00000000000E+00 0.  1.
         11    1    3    3    0    0 -0.29262848724E+01  0.13510521704E+02  0.25395632102E+02  0.28914277961E+02  0.51100000000E-03 0. -1.
        -11    1    3    3    0    0 -0.63305115505E+01  0.13942160904E+01  0.77137184653E+01  0.10075746514E+02  0.51100000000E-03 0.  1.
        -12    1    3    3    0    0  0.16998684726E+02 -0.22607203199E+02 -0.17897074198E+02  0.33471572771E+02  0.00000000000E+00 0.  1.
</event>
<event>
 7    1  0.3508738E-013  0.7246162E+02  0.7816164E-02  0.1226708E+00
        -11   -1    0    0    0    0  0.00000000000E+00  0.00000000000E+00  0.45593999997E+02  0.45594000000E+02  0.51100000000E-03 0.  1.
         11   -1    0    0    0    0 -0.00000000000E+00 -0.00000000000E+00 -0.45593999997E+02  0.45594000000E+02  0.51100000000E-03 0. -1.
    9900012    2    1    2    0    0  0.55855743569E+01  0.15823349921E+01 -0.17803791796E+02  0.72461616814E+02  0.70000060600E+02 0.  0.
        -12    1    1    2    0    0 -0.55855743569E+01 -0.15823349921E+01  0.17803791796E+02  0.18726383186E+02  0.00000000000E+00 0.  1.
         11    1    3    3    0    0  0.19470520012E+01  0.17167242498E+02 -0.24211148602E+02  0.29743653834E+02  0.51100000000E-03 0. -1.
        -11    1    3    3    0    0 -0.72139245242E+01  0.11131095341E+02  0.44420952995E+00  0.13271748675E+02  0.51100000000E-03 0.  1.
        -12    1    3    3    0    0  0.10852446880E+02 -0.26716002848E+02  0.59631472760E+01  0.29446214305E+02  0.00000000000E+00 0.  1.
</event>
<event>
 7    1  0.3508738E-013  0.7246145E+02  0.7816164E-02  0.1226708E+00
        -11   -1    0    0    0    0  0.00000000000E+00  0.00000000000E+00  0.45593999997E+02  0.45594000000E+02  0.51100000000E-03 0. -1.
         11   -1    0    0    0    0 -0.00000000000E+00 -0.00000000000E+00 -0.45593999997E+02  0.45594000000E+02  0.51100000000E-03 0.  1.
    9900012    2    1    2    0    0 -0.17329778860E+01 -0.60926475764E+01  0.17622715734E+02  0.72461449952E+02  0.69999843232E+02 0.  0.
        -12    1    1    2    0    0  0.17329778860E+01  0.60926475764E+01 -0.17622715734E+02  0.18726550048E+02  0.00000000000E+00 0.  1.
         11    1    3    3    0    0 -0.29374473555E+01  0.29590205383E+02  0.15520228452E+02  0.33542306763E+02  0.51100000000E-03 0. -1.
        -11    1    3    3    0    0  0.23798577201E+01 -0.59288854904E+01 -0.52254712639E+01  0.82535420346E+01  0.51100000000E-03 0.  1.
        -12    1    3    3    0    0 -0.11753882505E+01 -0.29753967469E+02  0.73279585467E+01  0.30665601154E+02  0.00000000000E+00 0.  1.
</event>
<event>
 7    1  0.3508738E-013  0.7246155E+02  0.7816164E-02  0.1226708E+00
        -11   -1    0    0    0    0  0.00000000000E+00  0.00000000000E+00  0.45593999997E+02  0.45594000000E+02  0.51100000000E-03 0. -1.
         11   -1    0    0    0    0 -0.00000000000E+00 -0.00000000000E+00 -0.45593999997E+02  0.45594000000E+02  0.51100000000E-03 0.  1.
    9900012    2    1    2    0    0  0.43250979107E+01 -0.15702102816E+02  0.92421465980E+01  0.72461554034E+02  0.69999978818E+02 0.  0.
        -12    1    1    2    0    0 -0.43250979107E+01  0.15702102816E+02 -0.92421465980E+01  0.18726445966E+02  0.00000000000E+00 0.  1.
         11    1    3    3    0    0  0.10133226130E+02 -0.71155378440E+01  0.18254988311E+01  0.12515813871E+02  0.51100000000E-03 0. -1.
        -11    1    3    3    0    0 -0.12135168110E+01 -0.25604594672E+02 -0.16314034714E+02  0.30384463468E+02  0.51100000000E-03 0.  1.
         12    1    3    3    0    0 -0.45946114079E+01  0.17018029700E+02  0.23730682480E+02  0.29561276695E+02  0.00000000000E+00 0. -1.
</event>
<event>
 7    1  0.3508738E-013  0.7246148E+02  0.7816164E-02  0.1226708E+00
        -11   -1    0    0    0    0  0.00000000000E+00  0.00000000000E+00  0.45593999997E+02  0.45594000000E+02  0.51100000000E-03 0. -1.
         11   -1    0    0    0    0 -0.00000000000E+00 -0.00000000000E+00 -0.45593999997E+02  0.45594000000E+02  0.51100000000E-03 0.  1.
    9900012    2    1    2    0    0 -0.10907781076E+02 -0.11345129458E+02  0.10148441356E+02  0.72461481040E+02  0.69999883730E+02 0.  0.
        -12    1    1    2    0    0  0.10907781076E+02  0.11345129458E+02 -0.10148441356E+02  0.18726518960E+02  0.00000000000E+00 0.  1.
         11    1    3    3    0    0 -0.12162892769E+02 -0.76137463477E+01  0.13993114295E+02  0.20042762831E+02  0.51100000000E-03 0. -1.
        -11    1    3    3    0    0  0.10815494700E+02 -0.19444502103E+02  0.14406790473E+02  0.26506965116E+02  0.51100000000E-03 0.  1.
        -12    1    3    3    0    0 -0.95603830067E+01  0.15713118993E+02 -0.18251463411E+02  0.25911753094E+02  0.00000000000E+00 0.  1.
</event>
<event>
 7    1  0.4156502E-013  0.7246156E+02  0.7816164E-02  0.1226708E+00
        -11   -1    0    0    0    0  0.00000000000E+00  0.00000000000E+00  0.45593999997E+02  0.45594000000E+02  0.51100000000E-03 0.  1.
         11   -1    0    0    0    0 -0.00000000000E+00 -0.00000000000E+00 -0.45593999997E+02  0.45594000000E+02  0.51100000000E-03 0. -1.
    9900012    2    1    2    0    0  0.14366416335E+02  0.20424065286E+01 -0.11836986359E+02  0.72461559100E+02  0.69999985417E+02 0.  0.
        -12    1    1    2    0    0 -0.14366416335E+02 -0.20424065286E+01  0.11836986359E+02  0.18726440900E+02  0.00000000000E+00 0.  1.
         11    1    3    3    0    0  0.12160428810E+00 -0.17672212562E+02 -0.22654873084E+02  0.28732649707E+02  0.51100000000E-03 0. -1.
        -11    1    3    3    0    0 -0.36979525614E+01  0.11721967963E+02 -0.94502492094E+01  0.15504405711E+02  0.51100000000E-03 0.  1.
        -12    1    3    3    0    0  0.17942764608E+02  0.79926511276E+01  0.20268135934E+02  0.28224503682E+02  0.00000000000E+00 0.  1.
</event>
<event>
 7    1  0.3508738E-013  0.7246156E+02  0.7816164E-02  0.1226708E+00
        -11   -1    0    0    0    0  0.00000000000E+00  0.00000000000E+00  0.45593999997E+02  0.45594000000E+02  0.51100000000E-03 0.  1.
         11   -1    0    0    0    0 -0.00000000000E+00 -0.00000000000E+00 -0.45593999997E+02  0.45594000000E+02  0.51100000000E-03 0. -1.
    9900012    2    1    2    0    0 -0.15558261016E+02 -0.22614612451E+01 -0.10173782743E+02  0.72461560186E+02  0.69999986832E+02 0.  0.
        -12    1    1    2    0    0  0.15558261016E+02  0.22614612451E+01  0.10173782743E+02  0.18726439814E+02  0.00000000000E+00 0.  1.
         11    1    3    3    0    0 -0.69942755024E+01 -0.12270653568E+02 -0.29789698973E+02  0.32968393863E+02  0.51100000000E-03 0. -1.
        -11    1    3    3    0    0  0.11818913429E+02  0.64167164820E+01  0.60517726543E+01  0.14747369853E+02  0.51100000000E-03 0.  1.
        -12    1    3    3    0    0 -0.20382898943E+02  0.35924758408E+01  0.13564143575E+02  0.24745796470E+02  0.00000000000E+00 0.  1.
</event>
<event>
 7    1  0.3508738E-013  0.7246159E+02  0.7816164E-02  0.1226708E+00
        -11   -1    0    0    0    0  0.00000000000E+00  0.00000000000E+00  0.45593999997E+02  0.45594000000E+02  0.51100000000E-03 0.  1.
         11   -1    0    0    0    0 -0.00000000000E+00 -0.00000000000E+00 -0.45593999997E+02  0.45594000000E+02  0.51100000000E-03 0. -1.
    9900012    2    1    2    0    0 -0.11343457038E+01  0.88701341213E+01 -0.16453336267E+02  0.72461593676E+02  0.70000030459E+02 0.  0.
        -12    1    1    2    0    0  0.11343457038E+01 -0.88701341213E+01  0.16453336267E+02  0.18726406324E+02  0.00000000000E+00 0.  1.
         11    1    3    3    0    0  0.87007355394E+01  0.22904843033E+02 -0.11052540512E+02  0.26879235207E+02  0.51100000000E-03 0. -1.
        -11    1    3    3    0    0  0.26770049776E+01  0.86004821922E+01  0.11559158132E+02  0.14654309488E+02  0.51100000000E-03 0.  1.
        -12    1    3    3    0    0 -0.12512086221E+02 -0.22635191104E+02 -0.16959953887E+02  0.30928048980E+02  0.00000000000E+00 0.  1.
</event>
<event>
 7    1  0.3508738E-013  0.7246155E+02  0.7816164E-02  0.1226708E+00
        -11   -1    0    0    0    0  0.00000000000E+00  0.00000000000E+00  0.45593999997E+02  0.45594000000E+02  0.51100000000E-03 0.  1.
         11   -1    0    0    0    0 -0.00000000000E+00 -0.00000000000E+00 -0.45593999997E+02  0.45594000000E+02  0.51100000000E-03 0. -1.
    9900012    2    1    2    0    0 -0.12530135923E+01  0.19718999116E+01 -0.18580134758E+02  0.72461552394E+02  0.69999976682E+02 0.  0.
        -12    1    1    2    0    0  0.12530135923E+01 -0.19718999116E+01  0.18580134758E+02  0.18726447606E+02  0.00000000000E+00 0.  1.
         11    1    3    3    0    0 -0.81786110771E+01 -0.98972947818E+00 -0.96344620358E+01  0.12676438876E+02  0.51100000000E-03 0. -1.
        -11    1    3    3    0    0 -0.62940338273E+00 -0.40852258878E+01  0.24465950006E+02  0.24812656632E+02  0.51100000000E-03 0.  1.
         12    1    3    3    0    0  0.75550008674E+01  0.70468552776E+01 -0.33411622728E+02  0.34972456887E+02  0.00000000000E+00 0. -1.
</event>
<event>
 7    1  0.3508738E-013  0.7246152E+02  0.7816164E-02  0.1226708E+00
        -11   -1    0    0    0    0  0.00000000000E+00  0.00000000000E+00  0.45593999997E+02  0.45594000000E+02  0.51100000000E-03 0. -1.
         11   -1    0    0    0    0 -0.00000000000E+00 -0.00000000000E+00 -0.45593999997E+02  0.45594000000E+02  0.51100000000E-03 0.  1.
    9900012    2    1    2    0    0  0.42094059237E+01  0.10679849595E+02  0.14795359601E+02  0.72461522720E+02  0.69999938025E+02 0.  0.
        -12    1    1    2    0    0 -0.42094059237E+01 -0.10679849595E+02 -0.14795359601E+02  0.18726477280E+02  0.00000000000E+00 0.  1.
         11    1    3    3    0    0  0.89948686218E+01 -0.77062994115E+00  0.74766665905E+01  0.11721863145E+02  0.51100000000E-03 0. -1.
        -11    1    3    3    0    0  0.22849256384E+02 -0.21145383023E+01 -0.10428987311E+02  0.25205625684E+02  0.51100000000E-03 0.  1.
         12    1    3    3    0    0 -0.27634719082E+02  0.13565017838E+02  0.17747680322E+02  0.35534033890E+02  0.00000000000E+00 0. -1.
</event>
<event>
 7    1  0.3508738E-013  0.7246159E+02  0.7816164E-02  0.1226708E+00
        -11   -1    0    0    0    0  0.00000000000E+00  0.00000000000E+00  0.45593999997E+02  0.45594000000E+02  0.51100000000E-03 0. -1.
         11   -1    0    0    0    0 -0.00000000000E+00 -0.00000000000E+00 -0.45593999997E+02  0.45594000000E+02  0.51100000000E-03 0.  1.
    9900012    2    1    2    0    0  0.57836736021E+01  0.17220833676E+02 -0.45464911623E+01  0.72461586175E+02  0.70000020688E+02 0.  0.
        -12    1    1    2    0    0 -0.57836736021E+01 -0.17220833676E+02  0.45464911623E+01  0.18726413825E+02  0.00000000000E+00 0.  1.
         11    1    3    3    0    0 -0.49519405113E+01  0.40028503294E+02 -0.12067994992E+02  0.42100347910E+02  0.51100000000E-03 0. -1.
        -11    1    3    3    0    0  0.11978213159E+02 -0.10573720014E+02  0.59966567969E-01  0.15977632542E+02  0.51100000000E-03 0.  1.
        -12    1    3    3    0    0 -0.12425990452E+01 -0.12233949604E+02  0.74615372618E+01  0.14383605723E+02  0.00000000000E+00 0.  1.
</event>
<event>
 7    1  0.3508738E-013  0.7246162E+02  0.7816164E-02  0.1226708E+00
        -11   -1    0    0    0    0  0.00000000000E+00  0.00000000000E+00  0.45593999997E+02  0.45594000000E+02  0.51100000000E-03 0. -1.
         11   -1    0    0    0    0 -0.00000000000E+00 -0.00000000000E+00 -0.45593999997E+02  0.45594000000E+02  0.51100000000E-03 0.  1.
    9900012    2    1    2    0    0  0.13402866639E+02  0.12882745375E+02  0.22528814510E+01  0.72461616543E+02  0.70000060247E+02 0.  0.
        -12    1    1    2    0    0 -0.13402866639E+02 -0.12882745375E+02 -0.22528814510E+01  0.18726383457E+02  0.00000000000E+00 0.  1.
         11    1    3    3    0    0 -0.44689689658E+01  0.72590848850E+01 -0.82153475830E+01  0.11838831579E+02  0.51100000000E-03 0. -1.
        -11    1    3    3    0    0 -0.18398270670E+02  0.11125803848E+02  0.10522950141E+02  0.23937676471E+02  0.51100000000E-03 0.  1.
         12    1    3    3    0    0  0.36270106275E+02 -0.55021433582E+01 -0.54721106620E-01  0.36685108493E+02  0.00000000000E+00 0. -1.
</event>
<event>
 7    1  0.3508738E-013  0.7246165E+02  0.7816164E-02  0.1226708E+00
        -11   -1    0    0    0    0  0.00000000000E+00  0.00000000000E+00  0.45593999997E+02  0.45594000000E+02  0.51100000000E-03 0. -1.
         11   -1    0    0    0    0 -0.00000000000E+00 -0.00000000000E+00 -0.45593999997E+02  0.45594000000E+02  0.51100000000E-03 0.  1.
    9900012    2    1    2    0    0  0.12934531003E+02  0.80157684179E+00 -0.13517820802E+02  0.72461652333E+02  0.70000106871E+02 0.  0.
        -12    1    1    2    0    0 -0.12934531003E+02 -0.80157684179E+00  0.13517820802E+02  0.18726347667E+02  0.00000000000E+00 0.  1.
         11    1    3    3    0    0  0.13829348848E+01 -0.26070586758E+01  0.45303580310E+01  0.54067927633E+01  0.51100000000E-03 0. -1.
        -11    1    3    3    0    0  0.21360421235E+02 -0.74541496507E+01 -0.36842257277E+02  0.43234059073E+02  0.51100000000E-03 0.  1.
         12    1    3    3    0    0 -0.98088251171E+01  0.10862785168E+02  0.18794078444E+02  0.23820800497E+02  0.00000000000E+00 0. -1.
</event>
<event>
 7    1  0.3508738E-013  0.7246165E+02  0.7816164E-02  0.1226708E+00
        -11   -1    0    0    0    0  0.00000000000E+00  0.00000000000E+00  0.45593999997E+02  0.45594000000E+02  0.51100000000E-03 0.  1.
         11   -1    0    0    0    0 -0.00000000000E+00 -0.00000000000E+00 -0.45593999997E+02  0.45594000000E+02  0.51100000000E-03 0. -1.
    9900012    2    1    2    0    0  0.14172247683E+02  0.84032328892E+01 -0.88999561449E+01  0.72461651003E+02  0.70000105138E+02 0.  0.
        -12    1    1    2    0    0 -0.14172247683E+02 -0.84032328892E+01  0.88999561449E+01  0.18726348997E+02  0.00000000000E+00 0.  1.
         11    1    3    3    0    0  0.41573046738E+01 -0.12865674183E+02  0.20684807181E+01  0.13677988415E+02  0.51100000000E-03 0. -1.
        -11    1    3    3    0    0  0.20596638021E+02  0.30860145919E+02 -0.19736804793E+02  0.42025130191E+02  0.51100000000E-03 0.  1.
         12    1    3    3    0    0 -0.10581695011E+02 -0.95912388468E+01  0.87683679305E+01  0.16758532397E+02  0.00000000000E+00 0. -1.
</event>
<event>
 7    1  0.3508738E-013  0.7246157E+02  0.7816164E-02  0.1226708E+00
        -11   -1    0    0    0    0  0.00000000000E+00  0.00000000000E+00  0.45593999997E+02  0.45594000000E+02  0.51100000000E-03 0.  1.
         11   -1    0    0    0    0 -0.00000000000E+00 -0.00000000000E+00 -0.45593999997E+02  0.45594000000E+02  0.51100000000E-03 0. -1.
    9900012    2    1    2    0    0  0.13342674839E+02 -0.43609438740E+01 -0.12394932959E+02  0.72461570378E+02  0.70000000109E+02 0.  0.
        -12    1    1    2    0    0 -0.13342674839E+02  0.43609438740E+01  0.12394932959E+02  0.18726429622E+02  0.00000000000E+00 0.  1.
         11    1    3    3    0    0  0.64637062152E+01 -0.13568565428E+02  0.11947188806E+02  0.19199499640E+02  0.51100000000E-03 0. -1.
        -11    1    3    3    0    0 -0.19345652125E+02  0.18226256798E+01 -0.57003664715E+01  0.20250195028E+02  0.51100000000E-03 0.  1.
         12    1    3    3    0    0  0.26224620749E+02  0.73849958741E+01 -0.18641755293E+02  0.33011875710E+02  0.00000000000E+00 0. -1.
</event>
<event>
 7    1  0.3508738E-013  0.7246144E+02  0.7816164E-02  0.1226708E+00
        -11   -1    0    0    0    0  0.00000000000E+00  0.00000000000E+00  0.45593999997E+02  0.45594000000E+02  0.51100000000E-03 0. -1.
         11   -1    0    0    0    0 -0.00000000000E+00 -0.00000000000E+00 -0.45593999997E+02  0.45594000000E+02  0.51100000000E-03 0.  1.
    9900012    2    1    2    0    0  0.12076437067E+01  0.41316577398E+01  0.18225118059E+02  0.72461443261E+02  0.69999834516E+02 0.  0.
        -12    1    1    2    0    0 -0.12076437067E+01 -0.41316577398E+01 -0.18225118059E+02  0.18726556739E+02  0.00000000000E+00 0.  1.
         11    1    3    3    0    0 -0.13768339637E+02 -0.16347376465E+02 -0.15606247047E+02  0.26464293696E+02  0.51100000000E-03 0. -1.
        -11    1    3    3    0    0 -0.65102190513E+00 -0.28250922063E+01  0.17916396886E+01  0.34080710864E+01  0.51100000000E-03 0.  1.
         12    1    3    3    0    0  0.15627005249E+02  0.23304126411E+02  0.32039725418E+02  0.42589078479E+02  0.00000000000E+00 0. -1.
</event>
<event>
 7    1  0.3508738E-013  0.7246159E+02  0.7816164E-02  0.1226708E+00
        -11   -1    0    0    0    0  0.00000000000E+00  0.00000000000E+00  0.45593999997E+02  0.45594000000E+02  0.51100000000E-03 0. -1.
         11   -1    0    0    0    0 -0.00000000000E+00 -0.00000000000E+00 -0.45593999997E+02  0.45594000000E+02  0.51100000000E-03 0.  1.
    9900012    2    1    2    0    0  0.18232667362E+02  0.20149212741E+01  0.37667586748E+01  0.72461587162E+02  0.70000021973E+02 0.  0.
        -12    1    1    2    0    0 -0.18232667362E+02 -0.20149212741E+01 -0.37667586748E+01  0.18726412838E+02  0.00000000000E+00 0.  1.
         11    1    3    3    0    0  0.73727952005E+01  0.26685228763E+00  0.58350301303E+01  0.94062158222E+01  0.51100000000E-03 0. -1.
        -11    1    3    3    0    0  0.13642166660E+02  0.30861697083E+02 -0.94708157925E-01  0.33742584784E+02  0.51100000000E-03 0.  1.
        -12    1    3    3    0    0 -0.27822944984E+01 -0.29113628096E+02 -0.19735632975E+01  0.29312786556E+02  0.00000000000E+00 0.  1.
</event>
<event>
 7    1  0.3508738E-013  0.7246157E+02  0.7816164E-02  0.1226708E+00
        -11   -1    0    0    0    0  0.00000000000E+00  0.00000000000E+00  0.45593999997E+02  0.45594000000E+02  0.51100000000E-03 0. -1.
         11   -1    0    0    0    0 -0.00000000000E+00 -0.00000000000E+00 -0.45593999997E+02  0.45594000000E+02  0.51100000000E-03 0.  1.
    9900012    2    1    2    0    0  0.14187302131E+02 -0.60244513164E+01  0.10635115890E+02  0.72461568269E+02  0.69999997361E+02 0.  0.
        -12    1    1    2    0    0 -0.14187302131E+02  0.60244513164E+01 -0.10635115890E+02  0.18726431731E+02  0.00000000000E+00 0.  1.
         11    1    3    3    0    0  0.87150097535E+01 -0.13756159207E+02  0.98040270040E+01  0.19007952465E+02  0.51100000000E-03 0. -1.
        -11    1    3    3    0    0 -0.13366533427E+02  0.34877134369E+01 -0.20474447050E+02  0.24698812586E+02  0.51100000000E-03 0.  1.
         12    1    3    3    0    0  0.18838825804E+02  0.42439944541E+01  0.21305535936E+02  0.28754803218E+02  0.00000000000E+00 0. -1.
</event>
<event>
 7    1  0.3508738E-013  0.7246162E+02  0.7816164E-02  0.1226708E+00
        -11   -1    0    0    0    0  0.00000000000E+00  0.00000000000E+00  0.45593999997E+02  0.45594000000E+02  0.51100000000E-03 0.  1.
         11   -1    0    0    0    0 -0.00000000000E+00 -0.00000000000E+00 -0.45593999997E+02  0.45594000000E+02  0.51100000000E-03 0. -1.
    9900012    2    1    2    0    0  0.52766162357E+01  0.12686373478E+02 -0.12723620221E+02  0.72461621214E+02  0.70000066332E+02 0.  0.
        -12    1    1    2    0    0 -0.52766162357E+01 -0.12686373478E+02  0.12723620221E+02  0.18726378786E+02  0.00000000000E+00 0.  1.
         11    1    3    3    0    0  0.92863758954E+01 -0.14149089456E+02  0.80214031892E+01  0.18729026112E+02  0.51100000000E-03 0. -1.
        -11    1    3    3    0    0 -0.10027991159E+02 -0.83392821753E+01 -0.13376221581E+01  0.13110814894E+02  0.51100000000E-03 0.  1.
        -12    1    3    3    0    0  0.60182314996E+01  0.35174745109E+02 -0.19407401252E+02  0.40621780208E+02  0.00000000000E+00 0.  1.
</event>
<event>
 7    1  0.3508738E-013  0.7246157E+02  0.7816164E-02  0.1226708E+00
        -11   -1    0    0    0    0  0.00000000000E+00  0.00000000000E+00  0.45593999997E+02  0.45594000000E+02  0.51100000000E-03 0.  1.
         11   -1    0    0    0    0 -0.00000000000E+00 -0.00000000000E+00 -0.45593999997E+02  0.45594000000E+02  0.51100000000E-03 0. -1.
    9900012    2    1    2    0    0  0.73520047572E+01  0.16721390551E+02 -0.41257921399E+01  0.72461573841E+02  0.70000004620E+02 0.  0.
        -12    1    1    2    0    0 -0.73520047572E+01 -0.16721390551E+02  0.41257921399E+01  0.18726426159E+02  0.00000000000E+00 0.  1.
         11    1    3    3    0    0  0.14270613850E+01  0.11755732498E+02 -0.37742962429E+01  0.12428960662E+02  0.51100000000E-03 0. -1.
        -11    1    3    3    0    0  0.40032493336E+01  0.30366293212E+02  0.10451775730E+02  0.32363210361E+02  0.51100000000E-03 0.  1.
         12    1    3    3    0    0  0.19216940386E+01 -0.25400635159E+02 -0.10803271627E+02  0.27669402818E+02  0.00000000000E+00 0. -1.
</event>
<event>
 7    1  0.3508738E-013  0.7246152E+02  0.7816164E-02  0.1226708E+00
        -11   -1    0    0    0    0  0.00000000000E+00  0.00000000000E+00  0.45593999997E+02  0.45594000000E+02  0.51100000000E-03 0. -1.
         11   -1    0    0    0    0 -0.00000000000E+00 -0.00000000000E+00 -0.45593999997E+02  0.45594000000E+02  0.51100000000E-03 0.  1.
    9900012    2    1    2    0    0  0.22927518888E+01  0.25719624040E+01  0.18406771582E+02  0.72461522971E+02  0.69999938352E+02 0.  0.
        -12    1    1    2    0    0 -0.22927518888E+01 -0.25719624040E+01 -0.18406771582E+02  0.18726477029E+02  0.00000000000E+00 0.  1.
         11    1    3    3    0    0  0.60549008091E+01  0.56572377991E+00  0.38253065572E+01  0.71843467149E+01  0.51100000000E-03 0. -1.
        -11    1    3    3    0    0  0.20753959844E+02  0.62378025760E+01 -0.15200882522E+02  0.26470811470E+02  0.51100000000E-03 0.  1.
        -12    1    3    3    0    0 -0.24516108764E+02 -0.42315639518E+01  0.29782347548E+02  0.38806364786E+02  0.00000000000E+00 0.  1.
</event>
<event>
 7    1  0.3508738E-013  0.7246153E+02  0.7816164E-02  0.1226708E+00
        -11   -1    0    0    0    0  0.00000000000E+00  0.00000000000E+00  0.45593999997E+02  0.45594000000E+02  0.51100000000E-03 0.  1.
         11   -1    0    0    0    0 -0.00000000000E+00 -0.00000000000E+00 -0.45593999997E+02  0.45594000000E+02  0.51100000000E-03 0. -1.
    9900012    2    1    2    0    0 -0.72928727796E+01  0.64303955093E+01 -0.16004527051E+02  0.72461525001E+02  0.69999940997E+02 0.  0.
        -12    1    1    2    0    0  0.72928727796E+01 -0.64303955093E+01  0.16004527051E+02  0.18726474999E+02  0.00000000000E+00 0.  1.
         11    1    3    3    0    0 -0.14885574783E+02 -0.45377347067E+01 -0.35907703580E+02  0.39134825278E+02  0.51100000000E-03 0. -1.
        -11    1    3    3    0    0 -0.18871757568E+01 -0.55828846141E+01  0.18961892503E+00  0.58962690363E+01  0.51100000000E-03 0.  1.
        -12    1    3    3    0    0  0.94798777604E+01  0.16551014830E+02  0.19713557604E+02  0.27430430687E+02  0.00000000000E+00 0.  1.
</event>
<event>
 7    1  0.3508738E-013  0.7246156E+02  0.7816164E-02  0.1226708E+00
        -11   -1    0    0    0    0  0.00000000000E+00  0.00000000000E+00  0.45593999997E+02  0.45594000000E+02  0.51100000000E-03 0.  1.
         11   -1    0    0    0    0 -0.00000000000E+00 -0.00000000000E+00 -0.45593999997E+02  0.45594000000E+02  0.51100000000E-03 0. -1.
    9900012    2    1    2    0    0  0.11739330859E+02 -0.40225672377E+01 -0.14024502378E+02  0.72461558716E+02  0.69999984917E+02 0.  0.
        -12    1    1    2    0    0 -0.11739330859E+02  0.40225672377E+01  0.14024502378E+02  0.18726441284E+02  0.00000000000E+00 0.  1.
         11    1    3    3    0    0  0.10186812894E+02 -0.18232936467E+02  0.22417731200E+01  0.21005634390E+02  0.51100000000E-03 0. -1.
        -11    1    3    3    0    0  0.13180682599E+02 -0.62862932229E+01  0.88017697673E+01  0.17050484672E+02  0.51100000000E-03 0.  1.
        -12    1    3    3    0    0 -0.11628164633E+02  0.20496662452E+02 -0.25068045265E+02  0.34405439654E+02  0.00000000000E+00 0.  1.
</event>
<event>
 7    1  0.3508738E-013  0.7246155E+02  0.7816164E-02  0.1226708E+00
        -11   -1    0    0    0    0  0.00000000000E+00  0.00000000000E+00  0.45593999997E+02  0.45594000000E+02  0.51100000000E-03 0.  1.
         11   -1    0    0    0    0 -0.00000000000E+00 -0.00000000000E+00 -0.45593999997E+02  0.45594000000E+02  0.51100000000E-03 0. -1.
    9900012    2    1    2    0    0  0.42001064866E+01 -0.12141363636E+02 -0.13624468816E+02  0.72461554637E+02  0.69999979603E+02 0.  0.
        -12    1    1    2    0    0 -0.42001064866E+01  0.12141363636E+02  0.13624468816E+02  0.18726445363E+02  0.00000000000E+00 0.  1.
         11    1    3    3    0    0 -0.17263486283E+02 -0.60968248298E+01 -0.10572478828E+02  0.21141819706E+02  0.51100000000E-03 0. -1.
        -11    1    3    3    0    0 -0.12488541433E+02 -0.84048630683E+01  0.58346101846E+01  0.16144598681E+02  0.51100000000E-03 0.  1.
         12    1    3    3    0    0  0.33952134203E+02  0.23603242626E+01 -0.88866001730E+01  0.35175136249E+02  0.00000000000E+00 0. -1.
</event>
<event>
 7    1  0.3508738E-013  0.7246157E+02  0.7816164E-02  0.1226708E+00
        -11   -1    0    0    0    0  0.00000000000E+00  0.00000000000E+00  0.45593999997E+02  0.45594000000E+02  0.51100000000E-03 0.  1.
         11   -1    0    0    0    0 -0.00000000000E+00 -0.00000000000E+00 -0.45593999997E+02  0.45594000000E+02  0.51100000000E-03 0. -1.
    9900012    2    1    2    0    0  0.17516275275E+02  0.17821678677E+01 -0.63783369022E+01  0.72461569388E+02  0.69999998819E+02 0.  0.
        -12    1    1    2    0    0 -0.17516275275E+02 -0.17821678677E+01  0.63783369022E+01  0.18726430612E+02  0.00000000000E+00 0.  1.
         11    1    3    3    0    0 -0.32612306691E+01  0.58822955328E+01 -0.31068208453E+02  0.31787900260E+02  0.51100000000E-03 0. -1.
        -11    1    3    3    0    0  0.12248524635E+02  0.86535724355E+01  0.52079259695E+01  0.15875552425E+02  0.51100000000E-03 0.  1.
        -12    1    3    3    0    0  0.85289813098E+01 -0.12753700101E+02  0.19481945581E+02  0.24798116704E+02  0.00000000000E+00 0.  1.
</event>
<event>
 7    1  0.3508738E-013  0.7246159E+02  0.7816164E-02  0.1226708E+00
        -11   -1    0    0    0    0  0.00000000000E+00  0.00000000000E+00  0.45593999997E+02  0.45594000000E+02  0.51100000000E-03 0.  1.
         11   -1    0    0    0    0 -0.00000000000E+00 -0.00000000000E+00 -0.45593999997E+02  0.45594000000E+02  0.51100000000E-03 0. -1.
    9900012    2    1    2    0    0  0.69278813215E+01  0.12693631998E+02 -0.11897671819E+02  0.72461590103E+02  0.70000025805E+02 0.  0.
        -12    1    1    2    0    0 -0.69278813215E+01 -0.12693631998E+02  0.11897671819E+02  0.18726409897E+02  0.00000000000E+00 0.  1.
         11    1    3    3    0    0  0.48163348455E+01 -0.19435298248E+02  0.61501862282E+01  0.20946424283E+02  0.51100000000E-03 0. -1.
        -11    1    3    3    0    0  0.10846123606E+02  0.16106528707E+01  0.52327268060E+01  0.12149651437E+02  0.51100000000E-03 0.  1.
        -12    1    3    3    0    0 -0.87345771301E+01  0.30518277375E+02 -0.23280584853E+02  0.39365514384E+02  0.00000000000E+00 0.  1.
</event>
<event>
 7    1  0.3508738E-013  0.7246149E+02  0.7816164E-02  0.1226708E+00
        -11   -1    0    0    0    0  0.00000000000E+00  0.00000000000E+00  0.45593999997E+02  0.45594000000E+02  0.51100000000E-03 0. -1.
         11   -1    0    0    0    0 -0.00000000000E+00 -0.00000000000E+00 -0.45593999997E+02  0.45594000000E+02  0.51100000000E-03 0.  1.
    9900012    2    1    2    0    0  0.17533547989E+02 -0.78815926133E+00  0.65295905266E+01  0.72461493317E+02  0.69999899722E+02 0.  0.
        -12    1    1    2    0    0 -0.17533547989E+02  0.78815926133E+00 -0.65295905266E+01  0.18726506683E+02  0.00000000000E+00 0.  1.
         11    1    3    3    0    0  0.34026799868E+01  0.13558627249E+02 -0.20639896149E+01  0.14130628343E+02  0.51100000000E-03 0. -1.
        -11    1    3    3    0    0 -0.10291262489E+01 -0.40514805198E+01 -0.22149460600E+02  0.22540456969E+02  0.51100000000E-03 0.  1.
         12    1    3    3    0    0  0.15159994251E+02 -0.10295305991E+02  0.30743040741E+02  0.35790408005E+02  0.00000000000E+00 0. -1.
</event>
<event>
 7    1  0.3508738E-013  0.7246142E+02  0.7816164E-02  0.1226708E+00
        -11   -1    0    0    0    0  0.00000000000E+00  0.00000000000E+00  0.45593999997E+02  0.45594000000E+02  0.51100000000E-03 0.  1.
         11   -1    0    0    0    0 -0.00000000000E+00 -0.00000000000E+00 -0.45593999997E+02  0.45594000000E+02  0.51100000000E-03 0. -1.
    9900012    2    1    2    0    0  0.14520992924E+01  0.17888432228E+02 -0.53460516990E+01  0.72461418126E+02  0.69999801772E+02 0.  0.
        -12    1    1    2    0    0 -0.14520992924E+01 -0.17888432228E+02  0.53460516990E+01  0.18726581874E+02  0.00000000000E+00 0.  1.
         11    1    3    3    0    0 -0.22173619199E+02  0.14056555640E+02 -0.23279426092E+02  0.35088286140E+02  0.51100000000E-03 0. -1.
        -11    1    3    3    0    0  0.43168253784E+01 -0.73603601751E+01  0.11162909820E+02  0.14050638390E+02  0.51100000000E-03 0.  1.
        -12    1    3    3    0    0  0.19308893113E+02  0.11192236763E+02  0.67704645726E+01  0.23322493596E+02  0.00000000000E+00 0.  1.
</event>
<event>
 7    1  0.3508738E-013  0.7246144E+02  0.7816164E-02  0.1226708E+00
        -11   -1    0    0    0    0  0.00000000000E+00  0.00000000000E+00  0.45593999997E+02  0.45594000000E+02  0.51100000000E-03 0.  1.
         11   -1    0    0    0    0 -0.00000000000E+00 -0.00000000000E+00 -0.45593999997E+02  0.45594000000E+02  0.51100000000E-03 0. -1.
    9900012    2    1    2    0    0 -0.87595547137E+01 -0.15464597659E+02 -0.58992003022E+01  0.72461437482E+02  0.69999826987E+02 0.  0.
        -12    1    1    2    0    0  0.87595547137E+01  0.15464597659E+02  0.58992003022E+01  0.18726562518E+02  0.00000000000E+00 0.  1.
         11    1    3    3    0    0 -0.16219986418E+02 -0.19463664777E+02 -0.29497142958E+02  0.38884491110E+02  0.51100000000E-03 0. -1.
        -11    1    3    3    0    0 -0.21569423998E+01 -0.67712472342E+01  0.16341834293E+01  0.72919644380E+01  0.51100000000E-03 0.  1.
        -12    1    3    3    0    0  0.96173741042E+01  0.10770314353E+02  0.21963759226E+02  0.26284981934E+02  0.00000000000E+00 0.  1.
</event>
<event>
 7    1  0.3508738E-013  0.7246161E+02  0.7816164E-02  0.1226708E+00
        -11   -1    0    0    0    0  0.00000000000E+00  0.00000000000E+00  0.45593999997E+02  0.45594000000E+02  0.51100000000E-03 0.  1.
         11   -1    0    0    0    0 -0.00000000000E+00 -0.00000000000E+00 -0.45593999997E+02  0.45594000000E+02  0.51100000000E-03 0. -1.
    9900012    2    1    2    0    0 -0.51135977084E+01  0.11434784100E+02 -0.13920293979E+02  0.72461608105E+02  0.70000049255E+02 0.  0.
        -12    1    1    2    0    0  0.51135977084E+01 -0.11434784100E+02  0.13920293979E+02  0.18726391895E+02  0.00000000000E+00 0.  1.
         11    1    3    3    0    0  0.18585414061E+02  0.10710194904E+02  0.34494092941E+01  0.21726120579E+02  0.51100000000E-03 0. -1.
        -11    1    3    3    0    0  0.59132721562E+01  0.12893899253E+02  0.25903463717E+00  0.14187548229E+02  0.51100000000E-03 0.  1.
        -12    1    3    3    0    0 -0.29612283925E+02 -0.12169310057E+02 -0.17628737910E+02  0.36547939297E+02  0.00000000000E+00 0.  1.
</event>
<event>
 7    1  0.3508738E-013  0.7246178E+02  0.7816164E-02  0.1226707E+00
        -11   -1    0    0    0    0  0.00000000000E+00  0.00000000000E+00  0.45593999997E+02  0.45594000000E+02  0.51100000000E-03 0. -1.
         11   -1    0    0    0    0 -0.00000000000E+00 -0.00000000000E+00 -0.45593999997E+02  0.45594000000E+02  0.51100000000E-03 0.  1.
    9900012    2    1    2    0    0  0.19007482499E+01 -0.13122737001E+02  0.13223163791E+02  0.72461784927E+02  0.70000279599E+02 0.  0.
        -12    1    1    2    0    0 -0.19007482499E+01  0.13122737001E+02 -0.13223163791E+02  0.18726215073E+02  0.00000000000E+00 0.  1.
         11    1    3    3    0    0  0.62957474117E+01  0.36688596007E+01 -0.14756208844E+02  0.16457298258E+02  0.51100000000E-03 0. -1.
        -11    1    3    3    0    0  0.11717054948E+02 -0.21605846966E+02  0.14839556015E+01  0.24623243577E+02  0.51100000000E-03 0.  1.
         12    1    3    3    0    0 -0.16112054110E+02  0.48142503643E+01  0.26495417033E+02  0.31381243092E+02  0.00000000000E+00 0. -1.
</event>
<event>
 7    1  0.4553468E-013  0.7246155E+02  0.7816164E-02  0.1226708E+00
        -11   -1    0    0    0    0  0.00000000000E+00  0.00000000000E+00  0.45593999997E+02  0.45594000000E+02  0.51100000000E-03 0. -1.
         11   -1    0    0    0    0 -0.00000000000E+00 -0.00000000000E+00 -0.45593999997E+02  0.45594000000E+02  0.51100000000E-03 0.  1.
    9900012    2    1    2    0    0 -0.18502083792E+02 -0.37197160767E+00  0.28661000810E+01  0.72461548195E+02  0.69999971211E+02 0.  0.
        -12    1    1    2    0    0  0.18502083792E+02  0.37197160767E+00 -0.28661000810E+01  0.18726451805E+02  0.00000000000E+00 0.  1.
         11    1    3    3    0    0 -0.31258372949E+02 -0.16383204038E+02  0.13060550175E+02  0.37630748400E+02  0.51100000000E-03 0. -1.
        -11    1    3    3    0    0  0.25110202893E+01 -0.65459115576E+01 -0.69018405262E+01  0.98381697446E+01  0.51100000000E-03 0.  1.
        -12    1    3    3    0    0  0.10245268867E+02  0.22557143988E+02 -0.32926095681E+01  0.24992630050E+02  0.00000000000E+00 0.  1.
</event>
<event>
 7    1  0.3508738E-013  0.7246157E+02  0.7816164E-02  0.1226708E+00
        -11   -1    0    0    0    0  0.00000000000E+00  0.00000000000E+00  0.45593999997E+02  0.45594000000E+02  0.51100000000E-03 0.  1.
         11   -1    0    0    0    0 -0.00000000000E+00 -0.00000000000E+00 -0.45593999997E+02  0.45594000000E+02  0.51100000000E-03 0. -1.
    9900012    2    1    2    0    0 -0.12912806848E+02  0.45057333842E+01 -0.12792059990E+02  0.72461574478E+02  0.70000005451E+02 0.  0.
        -12    1    1    2    0    0  0.12912806848E+02 -0.45057333842E+01  0.12792059990E+02  0.18726425522E+02  0.00000000000E+00 0.  1.
         11    1    3    3    0    0 -0.89877099383E+01  0.32433738621E+01 -0.45586588192E+01  0.10586773561E+02  0.51100000000E-03 0. -1.
        -11    1    3    3    0    0 -0.65232173543E+01  0.30227465347E+02  0.21434377704E+01  0.30997521702E+02  0.51100000000E-03 0.  1.
        -12    1    3    3    0    0  0.25981204445E+01 -0.28965105825E+02 -0.10376838941E+02  0.30877279215E+02  0.00000000000E+00 0.  1.
</event>
<event>
 7    1  0.3508738E-013  0.7246156E+02  0.7816164E-02  0.1226708E+00
        -11   -1    0    0    0    0  0.00000000000E+00  0.00000000000E+00  0.45593999997E+02  0.45594000000E+02  0.51100000000E-03 0. -1.
         11   -1    0    0    0    0 -0.00000000000E+00 -0.00000000000E+00 -0.45593999997E+02  0.45594000000E+02  0.51100000000E-03 0.  1.
    9900012    2    1    2    0    0  0.60429962737E+01  0.17496685586E+02  0.28333554281E+01  0.72461555771E+02  0.69999981081E+02 0.  0.
        -12    1    1    2    0    0 -0.60429962737E+01 -0.17496685586E+02 -0.28333554281E+01  0.18726444229E+02  0.00000000000E+00 0.  1.
         11    1    3    3    0    0 -0.41882855888E+01  0.70874363319E+00 -0.99206396624E+01  0.10791809176E+02  0.51100000000E-03 0. -1.
        -11    1    3    3    0    0 -0.67142070666E+01  0.16816732818E+02 -0.18644503941E+02  0.25990394508E+02  0.51100000000E-03 0.  1.
         12    1    3    3    0    0  0.16945488929E+02 -0.28790865498E-01  0.31398499031E+02  0.35679352088E+02  0.00000000000E+00 0. -1.
</event>
<event>
 7    1  0.3508738E-013  0.7246158E+02  0.7816164E-02  0.1226708E+00
        -11   -1    0    0    0    0  0.00000000000E+00  0.00000000000E+00  0.45593999997E+02  0.45594000000E+02  0.51100000000E-03 0.  1.
         11   -1    0    0    0    0 -0.00000000000E+00 -0.00000000000E+00 -0.45593999997E+02  0.45594000000E+02  0.51100000000E-03 0. -1.
    9900012    2    1    2    0    0 -0.16422507956E+02 -0.66817552920E+01  0.60277869359E+01  0.72461579181E+02  0.70000011576E+02 0.  0.
        -12    1    1    2    0    0  0.16422507956E+02  0.66817552920E+01 -0.60277869359E+01  0.18726420819E+02  0.00000000000E+00 0.  1.
         11    1    3    3    0    0 -0.31156306131E+02 -0.37477745355E+01  0.22737047989E+02  0.38752220287E+02  0.51100000000E-03 0. -1.
        -11    1    3    3    0    0 -0.67839055082E+01  0.16800736610E+01 -0.61096581700E+01  0.92828845014E+01  0.51100000000E-03 0.  1.
        -12    1    3    3    0    0  0.21517703683E+02 -0.46140544175E+01 -0.10599602883E+02  0.24426474392E+02  0.00000000000E+00 0.  1.
</event>
<event>
 7    1  0.3508738E-013  0.7246153E+02  0.7816164E-02  0.1226708E+00
        -11   -1    0    0    0    0  0.00000000000E+00  0.00000000000E+00  0.45593999997E+02  0.45594000000E+02  0.51100000000E-03 0.  1.
         11   -1    0    0    0    0 -0.00000000000E+00 -0.00000000000E+00 -0.45593999997E+02  0.45594000000E+02  0.51100000000E-03 0. -1.
    9900012    2    1    2    0    0  0.37833292127E+01  0.13926905116E+01 -0.18287354692E+02  0.72461534546E+02  0.69999953431E+02 0.  0.
        -12    1    1    2    0    0 -0.37833292127E+01 -0.13926905116E+01  0.18287354692E+02  0.18726465454E+02  0.00000000000E+00 0.  1.
         11    1    3    3    0    0 -0.18086799952E+02  0.11834593031E+02 -0.26815247162E+02  0.34441942531E+02  0.51100000000E-03 0. -1.
        -11    1    3    3    0    0 -0.43497837429E+01 -0.47339933783E+01  0.91448005646E+01  0.11178492275E+02  0.51100000000E-03 0.  1.
        -12    1    3    3    0    0  0.26219912907E+02 -0.57079091407E+01 -0.61690809387E+00  0.26841099739E+02  0.00000000000E+00 0.  1.
</event>
<event>
 7    1  0.3508738E-013  0.7246155E+02  0.7816164E-02  0.1226708E+00
        -11   -1    0    0    0    0  0.00000000000E+00  0.00000000000E+00  0.45593999997E+02  0.45594000000E+02  0.51100000000E-03 0. -1.
         11   -1    0    0    0    0 -0.00000000000E+00 -0.00000000000E+00 -0.45593999997E+02  0.45594000000E+02  0.51100000000E-03 0.  1.
    9900012    2    1    2    0    0  0.17729853328E+02  0.11465444331E+01  0.59175592191E+01  0.72461554253E+02  0.69999979104E+02 0.  0.
        -12    1    1    2    0    0 -0.17729853328E+02 -0.11465444331E+01 -0.59175592191E+01  0.18726445747E+02  0.00000000000E+00 0.  1.
         11    1    3    3    0    0 -0.28655368927E+00 -0.20079868856E+01 -0.12364785610E+02  0.12530045802E+02  0.51100000000E-03 0. -1.
        -11    1    3    3    0    0  0.28466250898E+02 -0.11579822415E+02 -0.42809741533E+01  0.31028156041E+02  0.51100000000E-03 0.  1.
         12    1    3    3    0    0 -0.10449843880E+02  0.14734353734E+02  0.22563318982E+02  0.28903352411E+02  0.00000000000E+00 0. -1.
</event>
<event>
 7    1  0.3508738E-013  0.7246156E+02  0.7816164E-02  0.1226708E+00
        -11   -1    0    0    0    0  0.00000000000E+00  0.00000000000E+00  0.45593999997E+02  0.45594000000E+02  0.51100000000E-03 0.  1.
         11   -1    0    0    0    0 -0.00000000000E+00 -0.00000000000E+00 -0.45593999997E+02  0.45594000000E+02  0.51100000000E-03 0. -1.
    9900012    2    1    2    0    0 -0.16404916478E+02 -0.82049799438E+01  0.37731352095E+01  0.72461560674E+02  0.69999987468E+02 0.  0.
        -12    1    1    2    0    0  0.16404916478E+02  0.82049799438E+01 -0.37731352095E+01  0.18726439326E+02  0.00000000000E+00 0.  1.
         11    1    3    3    0    0 -0.89354941385E+01  0.16112809152E+02  0.17728420901E+02  0.25568781398E+02  0.51100000000E-03 0. -1.
        -11    1    3    3    0    0  0.56587544199E+01 -0.82036193687E+01  0.10715399020E+02  0.14633545324E+02  0.51100000000E-03 0.  1.
        -12    1    3    3    0    0 -0.13128176759E+02 -0.16114169727E+02 -0.24670684712E+02  0.32259233952E+02  0.00000000000E+00 0.  1.
</event>
<event>
 7    1  0.3508738E-013  0.7246158E+02  0.7816164E-02  0.1226708E+00
        -11   -1    0    0    0    0  0.00000000000E+00  0.00000000000E+00  0.45593999997E+02  0.45594000000E+02  0.51100000000E-03 0.  1.
         11   -1    0    0    0    0 -0.00000000000E+00 -0.00000000000E+00 -0.45593999997E+02  0.45594000000E+02  0.51100000000E-03 0. -1.
    9900012    2    1    2    0    0 -0.13720887000E+02 -0.24902248864E+01 -0.12498586911E+02  0.72461584571E+02  0.70000018598E+02 0.  0.
        -12    1    1    2    0    0  0.13720887000E+02  0.24902248864E+01  0.12498586911E+02  0.18726415429E+02  0.00000000000E+00 0.  1.
         11    1    3    3    0    0  0.21921012440E+00  0.12633977642E+00  0.92392832952E+01  0.92427469341E+01  0.51100000000E-03 0. -1.
        -11    1    3    3    0    0  0.19588258613E+02 -0.13663384559E+02 -0.63715570566E+01  0.24718104552E+02  0.51100000000E-03 0.  1.
         12    1    3    3    0    0 -0.33528355737E+02  0.11046819896E+02 -0.15366313150E+02  0.38500733085E+02  0.00000000000E+00 0. -1.
</event>
<event>
 7    1  0.3508738E-013  0.7246159E+02  0.7816164E-02  0.1226708E+00
        -11   -1    0    0    0    0  0.00000000000E+00  0.00000000000E+00  0.45593999997E+02  0.45594000000E+02  0.51100000000E-03 0. -1.
         11   -1    0    0    0    0 -0.00000000000E+00 -0.00000000000E+00 -0.45593999997E+02  0.45594000000E+02  0.51100000000E-03 0.  1.
    9900012    2    1    2    0    0  0.15494364898E+02 -0.34461425008E+01  0.99361541783E+01  0.72461590799E+02  0.70000026711E+02 0.  0.
        -12    1    1    2    0    0 -0.15494364898E+02  0.34461425008E+01 -0.99361541783E+01  0.18726409201E+02  0.00000000000E+00 0.  1.
         11    1    3    3    0    0 -0.36622314422E+01  0.71852426205E+00 -0.20221472147E+02  0.20562980142E+02  0.51100000000E-03 0. -1.
        -11    1    3    3    0    0  0.51586906079E+01  0.16486547551E+02  0.11678404865E+02  0.20851941862E+02  0.51100000000E-03 0.  1.
         12    1    3    3    0    0  0.13997905732E+02 -0.20651214314E+02  0.18479221460E+02  0.31046668795E+02  0.00000000000E+00 0. -1.
</event>
<event>
 7    1  0.3508738E-013  0.7246159E+02  0.7816164E-02  0.1226708E+00
        -11   -1    0    0    0    0  0.00000000000E+00  0.00000000000E+00  0.45593999997E+02  0.45594000000E+02  0.51100000000E-03 0.  1.
         11   -1    0    0    0    0 -0.00000000000E+00 -0.00000000000E+00 -0.45593999997E+02  0.45594000000E+02  0.51100000000E-03 0. -1.
    9900012    2    1    2    0    0  0.29008039442E+01  0.12361666495E+02 -0.13764197077E+02  0.72461585948E+02  0.70000020392E+02 0.  0.
        -12    1    1    2    0    0 -0.29008039442E+01 -0.12361666495E+02  0.13764197077E+02  0.18726414052E+02  0.00000000000E+00 0.  1.
         11    1    3    3    0    0 -0.39193438662E+01  0.20591728299E+02 -0.17550375934E+02  0.27338548359E+02  0.51100000000E-03 0. -1.
        -11    1    3    3    0    0  0.18758945756E+02  0.70216482221E+01  0.12788487952E+02  0.23764406451E+02  0.51100000000E-03 0.  1.
         12    1    3    3    0    0 -0.11938797945E+02 -0.15251710025E+02 -0.90023090949E+01  0.21358631138E+02  0.00000000000E+00 0. -1.
</event>
<event>
 7    1  0.3508738E-013  0.7246151E+02  0.7816164E-02  0.1226708E+00
        -11   -1    0    0    0    0  0.00000000000E+00  0.00000000000E+00  0.45593999997E+02  0.45594000000E+02  0.51100000000E-03 0.  1.
         11   -1    0    0    0    0 -0.00000000000E+00 -0.00000000000E+00 -0.45593999997E+02  0.45594000000E+02  0.51100000000E-03 0. -1.
    9900012    2    1    2    0    0 -0.87438444839E+00  0.37948481605E+01 -0.18317092564E+02  0.72461513391E+02  0.69999925872E+02 0.  0.
        -12    1    1    2    0    0  0.87438444839E+00 -0.37948481605E+01  0.18317092564E+02  0.18726486609E+02  0.00000000000E+00 0.  1.
         11    1    3    3    0    0 -0.22632076518E+02 -0.79522681186E+01 -0.18172850425E+02  0.30094882432E+02  0.51100000000E-03 0. -1.
        -11    1    3    3    0    0 -0.46534565482E+01  0.14010230938E+01 -0.10975830669E+02  0.12003598739E+02  0.51100000000E-03 0.  1.
        -12    1    3    3    0    0  0.26411148618E+02  0.10346093185E+02  0.10831588530E+02  0.30363032220E+02  0.00000000000E+00 0.  1.
</event>
<event>
 7    1  0.3508738E-013  0.7246157E+02  0.7816164E-02  0.1226708E+00
        -11   -1    0    0    0    0  0.00000000000E+00  0.00000000000E+00  0.45593999997E+02  0.45594000000E+02  0.51100000000E-03 0. -1.
         11   -1    0    0    0    0 -0.00000000000E+00 -0.00000000000E+00 -0.45593999997E+02  0.45594000000E+02  0.51100000000E-03 0.  1.
    9900012    2    1    2    0    0 -0.15227439934E+02  0.10898963609E+02  0.13034647266E+00  0.72461566146E+02  0.69999994596E+02 0.  0.
        -12    1    1    2    0    0  0.15227439934E+02 -0.10898963609E+02 -0.13034647266E+00  0.18726433854E+02  0.00000000000E+00 0.  1.
         11    1    3    3    0    0  0.15609465904E+02 -0.82300839155E+01 -0.17709747943E+02  0.25000497586E+02  0.51100000000E-03 0. -1.
        -11    1    3    3    0    0  0.12726520936E+01  0.51832268181E+01  0.10374095654E+02  0.11666505239E+02  0.51100000000E-03 0.  1.
        -12    1    3    3    0    0 -0.32109557932E+02  0.13945820707E+02  0.74659987618E+01  0.35794563320E+02  0.00000000000E+00 0.  1.
</event>
<event>
 7    1  0.3508738E-013  0.7246172E+02  0.7816164E-02  0.1226708E+00
        -11   -1    0    0    0    0  0.00000000000E+00  0.00000000000E+00  0.45593999997E+02  0.45594000000E+02  0.51100000000E-03 0. -1.
         11   -1    0    0    0    0 -0.00000000000E+00 -0.00000000000E+00 -0.45593999997E+02  0.45594000000E+02  0.51100000000E-03 0.  1.
    9900012    2    1    2    0    0  0.79409080645E+01 -0.11982760126E+02  0.12001214821E+02  0.72461715844E+02  0.70000189605E+02 0.  0.
        -12    1    1    2    0    0 -0.79409080645E+01  0.11982760126E+02 -0.12001214821E+02  0.18726284156E+02  0.00000000000E+00 0.  1.
         11    1    3    3    0    0  0.33122024421E+02 -0.41074763625E+01  0.50739253116E+01  0.33759214774E+02  0.51100000000E-03 0. -1.
        -11    1    3    3    0    0  0.93799382276E+00 -0.11406958926E+02  0.42541303344E+01  0.12210494237E+02  0.51100000000E-03 0.  1.
        -12    1    3    3    0    0 -0.26119110180E+02  0.35316751623E+01  0.26731591746E+01  0.26492006832E+02  0.00000000000E+00 0.  1.
</event>
<event>
 7    1  0.3508738E-013  0.7246163E+02  0.7816164E-02  0.1226708E+00
        -11   -1    0    0    0    0  0.00000000000E+00  0.00000000000E+00  0.45593999997E+02  0.45594000000E+02  0.51100000000E-03 0.  1.
         11   -1    0    0    0    0 -0.00000000000E+00 -0.00000000000E+00 -0.45593999997E+02  0.45594000000E+02  0.51100000000E-03 0. -1.
    9900012    2    1    2    0    0  0.10055104436E+02  0.10464118180E+02 -0.11835291399E+02  0.72461627767E+02  0.70000074869E+02 0.  0.
        -12    1    1    2    0    0 -0.10055104436E+02 -0.10464118180E+02  0.11835291399E+02  0.18726372233E+02  0.00000000000E+00 0.  1.
         11    1    3    3    0    0 -0.13667845846E+02  0.23193105974E+02  0.57654045760E+01  0.27531256145E+02  0.51100000000E-03 0. -1.
        -11    1    3    3    0    0 -0.49266767665E+01 -0.10984193726E+02 -0.87893957985E+01  0.14905641030E+02  0.51100000000E-03 0.  1.
        -12    1    3    3    0    0  0.28649627048E+02 -0.17447940681E+01 -0.88113001765E+01  0.30024730592E+02  0.00000000000E+00 0.  1.
</event>
<event>
 7    1  0.3508738E-013  0.7246157E+02  0.7816164E-02  0.1226708E+00
        -11   -1    0    0    0    0  0.00000000000E+00  0.00000000000E+00  0.45593999997E+02  0.45594000000E+02  0.51100000000E-03 0. -1.
         11   -1    0    0    0    0 -0.00000000000E+00 -0.00000000000E+00 -0.45593999997E+02  0.45594000000E+02  0.51100000000E-03 0.  1.
    9900012    2    1    2    0    0  0.48854235475E+01 -0.15254231981E+02  0.97015538755E+01  0.72461572039E+02  0.70000002273E+02 0.  0.
        -12    1    1    2    0    0 -0.48854235475E+01  0.15254231981E+02 -0.97015538755E+01  0.18726427961E+02  0.00000000000E+00 0.  1.
         11    1    3    3    0    0 -0.16422892930E+02  0.51239715876E+01 -0.72293446366E+01  0.18660919622E+02  0.51100000000E-03 0. -1.
        -11    1    3    3    0    0  0.30256450180E+02 -0.14494475675E+02 -0.25625051226E+00  0.33550085949E+02  0.51100000000E-03 0.  1.
         12    1    3    3    0    0 -0.89481337025E+01 -0.58837278936E+01  0.17187149024E+02  0.20250566468E+02  0.00000000000E+00 0. -1.
</event>
<event>
 7    1  0.3508738E-013  0.7246154E+02  0.7816164E-02  0.1226708E+00
        -11   -1    0    0    0    0  0.00000000000E+00  0.00000000000E+00  0.45593999997E+02  0.45594000000E+02  0.51100000000E-03 0. -1.
         11   -1    0    0    0    0 -0.00000000000E+00 -0.00000000000E+00 -0.45593999997E+02  0.45594000000E+02  0.51100000000E-03 0.  1.
    9900012    2    1    2    0    0  0.14768088973E+01  0.18594562532E+02 -0.16557555170E+01  0.72461541536E+02  0.69999962537E+02 0.  0.
        -12    1    1    2    0    0 -0.14768088973E+01 -0.18594562532E+02  0.16557555170E+01  0.18726458464E+02  0.00000000000E+00 0.  1.
         11    1    3    3    0    0 -0.36078566937E+01 -0.10694440355E+02 -0.10215704649E+02  0.15223281715E+02  0.51100000000E-03 0. -1.
        -11    1    3    3    0    0 -0.77931603780E+01  0.17557154952E+02 -0.17437862978E+02  0.25943517575E+02  0.51100000000E-03 0.  1.
         12    1    3    3    0    0  0.12877825969E+02  0.11731847936E+02  0.25997812110E+02  0.31294742245E+02  0.00000000000E+00 0. -1.
</event>
<event>
 7    1  0.5044018E-013  0.7246159E+02  0.7816164E-02  0.1226708E+00
        -11   -1    0    0    0    0  0.00000000000E+00  0.00000000000E+00  0.45593999997E+02  0.45594000000E+02  0.51100000000E-03 0. -1.
         11   -1    0    0    0    0 -0.00000000000E+00 -0.00000000000E+00 -0.45593999997E+02  0.45594000000E+02  0.51100000000E-03 0.  1.
    9900012    2    1    2    0    0  0.17406748886E+02  0.41946335974E+01  0.54853093460E+01  0.72461588800E+02  0.70000024107E+02 0.  0.
        -12    1    1    2    0    0 -0.17406748886E+02 -0.41946335974E+01 -0.54853093460E+01  0.18726411200E+02  0.00000000000E+00 0.  1.
         11    1    3    3    0    0  0.29420902267E+02  0.10339097984E+02 -0.13343372406E+02  0.33919493286E+02  0.51100000000E-03 0. -1.
        -11    1    3    3    0    0  0.85695064737E+01 -0.44937604520E+01 -0.12296593135E+01  0.97540958829E+01  0.51100000000E-03 0.  1.
        -12    1    3    3    0    0 -0.20583659854E+02 -0.16507039348E+01  0.20058341066E+02  0.28787999632E+02  0.00000000000E+00 0.  1.
</event>
<event>
 7    1  0.3508738E-013  0.7246147E+02  0.7816164E-02  0.1226708E+00
        -11   -1    0    0    0    0  0.00000000000E+00  0.00000000000E+00  0.45593999997E+02  0.45594000000E+02  0.51100000000E-03 0. -1.
         11   -1    0    0    0    0 -0.00000000000E+00 -0.00000000000E+00 -0.45593999997E+02  0.45594000000E+02  0.51100000000E-03 0.  1.
    9900012    2    1    2    0    0 -0.30226564747E+01  0.15844082741E+02  0.95137489144E+01  0.72461472600E+02  0.69999872734E+02 0.  0.
        -12    1    1    2    0    0  0.30226564747E+01 -0.15844082741E+02 -0.95137489144E+01  0.18726527400E+02  0.00000000000E+00 0.  1.
         11    1    3    3    0    0 -0.66981431661E+01  0.86830705753E+01  0.99583606713E+01  0.14813162526E+02  0.51100000000E-03 0. -1.
        -11    1    3    3    0    0 -0.86275387758E+01  0.27792980896E+02  0.10908828845E+02  0.31078718755E+02  0.51100000000E-03 0.  1.
         12    1    3    3    0    0  0.12303025467E+02 -0.20631968730E+02 -0.11353440602E+02  0.26569591319E+02  0.00000000000E+00 0. -1.
</event>
<event>
 7    1  0.3508738E-013  0.7246148E+02  0.7816164E-02  0.1226708E+00
        -11   -1    0    0    0    0  0.00000000000E+00  0.00000000000E+00  0.45593999997E+02  0.45594000000E+02  0.51100000000E-03 0.  1.
         11   -1    0    0    0    0 -0.00000000000E+00 -0.00000000000E+00 -0.45593999997E+02  0.45594000000E+02  0.51100000000E-03 0. -1.
    9900012    2    1    2    0    0 -0.25120104238E+01 -0.12206257410E+02 -0.13977822899E+02  0.72461482723E+02  0.69999885921E+02 0.  0.
        -12    1    1    2    0    0  0.25120104238E+01  0.12206257410E+02  0.13977822899E+02  0.18726517277E+02  0.00000000000E+00 0.  1.
         11    1    3    3    0    0 -0.41126628998E+01  0.59768535096E+00 -0.98680743575E+01  0.10707479428E+02  0.51100000000E-03 0. -1.
        -11    1    3    3    0    0  0.19003186319E+02 -0.30022266324E+02 -0.93018303405E+01  0.36728485041E+02  0.51100000000E-03 0.  1.
         12    1    3    3    0    0 -0.17402533843E+02  0.17218323562E+02  0.51920817986E+01  0.25025518254E+02  0.00000000000E+00 0. -1.
</event>
<event>
 7    1  0.3508738E-013  0.7246162E+02  0.7816164E-02  0.1226708E+00
        -11   -1    0    0    0    0  0.00000000000E+00  0.00000000000E+00  0.45593999997E+02  0.45594000000E+02  0.51100000000E-03 0. -1.
         11   -1    0    0    0    0 -0.00000000000E+00 -0.00000000000E+00 -0.45593999997E+02  0.45594000000E+02  0.51100000000E-03 0.  1.
    9900012    2    1    2    0    0  0.74668712721E+01  0.17117565990E+02 -0.13827834391E+01  0.72461619622E+02  0.70000064259E+02 0.  0.
        -12    1    1    2    0    0 -0.74668712721E+01 -0.17117565990E+02  0.13827834391E+01  0.18726380378E+02  0.00000000000E+00 0.  1.
         11    1    3    3    0    0  0.17552540131E+02  0.18469027678E+02  0.19514736629E+01  0.25553960518E+02  0.51100000000E-03 0. -1.
        -11    1    3    3    0    0 -0.16798838895E+02  0.35138240607E+01  0.17483680639E+02  0.24499531357E+02  0.51100000000E-03 0.  1.
        -12    1    3    3    0    0  0.67131700365E+01 -0.48652857493E+01 -0.20817937741E+02  0.22408127748E+02  0.00000000000E+00 0.  1.
</event>
<event>
 7    1  0.3508738E-013  0.7246159E+02  0.7816164E-02  0.1226708E+00
        -11   -1    0    0    0    0  0.00000000000E+00  0.00000000000E+00  0.45593999997E+02  0.45594000000E+02  0.51100000000E-03 0.  1.
         11   -1    0    0    0    0 -0.00000000000E+00 -0.00000000000E+00 -0.45593999997E+02  0.45594000000E+02  0.51100000000E-03 0. -1.
    9900012    2    1    2    0    0 -0.15863011048E+02  0.66139312153E+01 -0.74363479144E+01  0.72461588814E+02  0.70000024125E+02 0.  0.
        -12    1    1    2    0    0  0.15863011048E+02 -0.66139312153E+01  0.74363479144E+01  0.18726411186E+02  0.00000000000E+00 0.  1.
         11    1    3    3    0    0  0.78076705192E+01 -0.97175302755E+01 -0.24128833385E+02  0.27158621363E+02  0.51100000000E-03 0. -1.
        -11    1    3    3    0    0  0.40720276011E+01  0.11895901199E+02 -0.96181013903E-01  0.12573906520E+02  0.51100000000E-03 0.  1.
         12    1    3    3    0    0 -0.27742709168E+02  0.44355602919E+01  0.16788666484E+02  0.32729060930E+02  0.00000000000E+00 0. -1.
</event>
<event>
 7    1  0.3508738E-013  0.7246159E+02  0.7816164E-02  0.1226708E+00
        -11   -1    0    0    0    0  0.00000000000E+00  0.00000000000E+00  0.45593999997E+02  0.45594000000E+02  0.51100000000E-03 0.  1.
         11   -1    0    0    0    0 -0.00000000000E+00 -0.00000000000E+00 -0.45593999997E+02  0.45594000000E+02  0.51100000000E-03 0. -1.
    9900012    2    1    2    0    0  0.61406024302E+01  0.84727922278E+01 -0.15530076054E+02  0.72461589009E+02  0.70000024380E+02 0.  0.
        -12    1    1    2    0    0 -0.61406024302E+01 -0.84727922278E+01  0.15530076054E+02  0.18726410991E+02  0.00000000000E+00 0.  1.
         11    1    3    3    0    0 -0.11266549420E+00 -0.72704851610E+01 -0.30244644273E+01  0.78752798885E+01  0.51100000000E-03 0. -1.
        -11    1    3    3    0    0  0.28488846949E+02  0.25653535563E+02 -0.30066219191E+01  0.38454623428E+02  0.51100000000E-03 0.  1.
         12    1    3    3    0    0 -0.22235579025E+02 -0.99102581741E+01 -0.94989897080E+01  0.26131685692E+02  0.00000000000E+00 0. -1.
</event>
<event>
 7    1  0.3508738E-013  0.7246162E+02  0.7816164E-02  0.1226708E+00
        -11   -1    0    0    0    0  0.00000000000E+00  0.00000000000E+00  0.45593999997E+02  0.45594000000E+02  0.51100000000E-03 0. -1.
         11   -1    0    0    0    0 -0.00000000000E+00 -0.00000000000E+00 -0.45593999997E+02  0.45594000000E+02  0.51100000000E-03 0.  1.
    9900012    2    1    2    0    0  0.52979871469E+01 -0.95396064337E+01  0.15218557134E+02  0.72461621814E+02  0.70000067114E+02 0.  0.
        -12    1    1    2    0    0 -0.52979871469E+01  0.95396064337E+01 -0.15218557134E+02  0.18726378186E+02  0.00000000000E+00 0.  1.
         11    1    3    3    0    0  0.22819883295E+02 -0.14483108745E+01  0.22541875145E+02  0.32108889942E+02  0.51100000000E-03 0. -1.
        -11    1    3    3    0    0  0.77583680072E+01 -0.74299954007E+01  0.54225893282E+01  0.12033352861E+02  0.51100000000E-03 0.  1.
        -12    1    3    3    0    0 -0.25280264156E+02 -0.66130015848E+00 -0.12745907340E+02  0.28319379011E+02  0.00000000000E+00 0.  1.
</event>
<event>
 7    1  0.3508738E-013  0.7246112E+02  0.7816164E-02  0.1226709E+00
        -11   -1    0    0    0    0  0.00000000000E+00  0.00000000000E+00  0.45593999997E+02  0.45594000000E+02  0.51100000000E-03 0. -1.
         11   -1    0    0    0    0 -0.00000000000E+00 -0.00000000000E+00 -0.45593999997E+02  0.45594000000E+02  0.51100000000E-03 0.  1.
    9900012    2    1    2    0    0  0.87865326927E+01  0.14095716990E+02  0.86489115081E+01  0.72461119200E+02  0.69999412363E+02 0.  0.
        -12    1    1    2    0    0 -0.87865326927E+01 -0.14095716990E+02 -0.86489115081E+01  0.18726880800E+02  0.00000000000E+00 0.  1.
         11    1    3    3    0    0  0.12405280893E+02  0.30908321796E+00 -0.17209242826E+02  0.21216610600E+02  0.51100000000E-03 0. -1.
        -11    1    3    3    0    0  0.47099377430E+00 -0.14071687677E+02  0.17711157845E+01  0.14190527848E+02  0.51100000000E-03 0.  1.
         12    1    3    3    0    0 -0.40897419747E+01  0.27858321450E+02  0.24087038549E+02  0.37053980751E+02  0.00000000000E+00 0. -1.
</event>
<event>
 7    1  0.3508738E-013  0.7246160E+02  0.7816164E-02  0.1226708E+00
        -11   -1    0    0    0    0  0.00000000000E+00  0.00000000000E+00  0.45593999997E+02  0.45594000000E+02  0.51100000000E-03 0.  1.
         11   -1    0    0    0    0 -0.00000000000E+00 -0.00000000000E+00 -0.45593999997E+02  0.45594000000E+02  0.51100000000E-03 0. -1.
    9900012    2    1    2    0    0 -0.12077393867E+02 -0.40039829396E+01 -0.13739818065E+02  0.72461603591E+02  0.70000043375E+02 0.  0.
        -12    1    1    2    0    0  0.12077393867E+02  0.40039829396E+01  0.13739818065E+02  0.18726396409E+02  0.00000000000E+00 0.  1.
         11    1    3    3    0    0  0.46697908187E+01 -0.95176803353E+00  0.64905021636E+01  0.80522932931E+01  0.51100000000E-03 0. -1.
        -11    1    3    3    0    0 -0.23653090967E+02 -0.11935216564E+02  0.12866105192E+02  0.29452585113E+02  0.51100000000E-03 0.  1.
         12    1    3    3    0    0  0.69059062812E+01  0.88830016579E+01 -0.33096425421E+02  0.34956725185E+02  0.00000000000E+00 0. -1.
</event>
<event>
 7    1  0.3508738E-013  0.7246145E+02  0.7816164E-02  0.1226708E+00
        -11   -1    0    0    0    0  0.00000000000E+00  0.00000000000E+00  0.45593999997E+02  0.45594000000E+02  0.51100000000E-03 0. -1.
         11   -1    0    0    0    0 -0.00000000000E+00 -0.00000000000E+00 -0.45593999997E+02  0.45594000000E+02  0.51100000000E-03 0.  1.
    9900012    2    1    2    0    0 -0.14732642416E+02 -0.10584535121E+02  0.46476445008E+01  0.72461448377E+02  0.69999841180E+02 0.  0.
        -12    1    1    2    0    0  0.14732642416E+02  0.10584535121E+02 -0.46476445008E+01  0.18726551623E+02  0.00000000000E+00 0.  1.
         11    1    3    3    0    0 -0.12543710374E+02  0.38367898503E+01  0.40207422996E+01  0.13719766587E+02  0.51100000000E-03 0. -1.
        -11    1    3    3    0    0 -0.14597644839E+02  0.18210368634E+02  0.39561821592E+01  0.23671927217E+02  0.51100000000E-03 0.  1.
         12    1    3    3    0    0  0.12408712797E+02 -0.32631693605E+02 -0.33292799580E+01  0.35069754573E+02  0.00000000000E+00 0. -1.
</event>
<event>
 7    1  0.3508738E-013  0.7246157E+02  0.7816164E-02  0.1226708E+00
        -11   -1    0    0    0    0  0.00000000000E+00  0.00000000000E+00  0.45593999997E+02  0.45594000000E+02  0.51100000000E-03 0.  1.
         11   -1    0    0    0    0 -0.00000000000E+00 -0.00000000000E+00 -0.45593999997E+02  0.45594000000E+02  0.51100000000E-03 0. -1.
    9900012    2    1    2    0    0 -0.10740930925E+02  0.13365240330E+02 -0.75287310045E+01  0.72461573839E+02  0.70000004618E+02 0.  0.
        -12    1    1    2    0    0  0.10740930925E+02 -0.13365240330E+02  0.75287310045E+01  0.18726426161E+02  0.00000000000E+00 0.  1.
         11    1    3    3    0    0 -0.32529954370E+02  0.24905737367E+02 -0.30161377192E+01  0.41080296641E+02  0.51100000000E-03 0. -1.
        -11    1    3    3    0    0 -0.72255683969E+00 -0.50055068577E+00 -0.61901929882E+01  0.62522898899E+01  0.51100000000E-03 0.  1.
        -12    1    3    3    0    0  0.22511580285E+02 -0.11039946351E+02  0.16775997029E+01  0.25128987308E+02  0.00000000000E+00 0.  1.
</event>
<event>
 7    1  0.3508738E-013  0.7246155E+02  0.7816164E-02  0.1226708E+00
        -11   -1    0    0    0    0  0.00000000000E+00  0.00000000000E+00  0.45593999997E+02  0.45594000000E+02  0.51100000000E-03 0.  1.
         11   -1    0    0    0    0 -0.00000000000E+00 -0.00000000000E+00 -0.45593999997E+02  0.45594000000E+02  0.51100000000E-03 0. -1.
    9900012    2    1    2    0    0  0.51361662706E+01 -0.42733442520E+01 -0.17493953774E+02  0.72461545619E+02  0.69999967855E+02 0.  0.
        -12    1    1    2    0    0 -0.51361662706E+01  0.42733442520E+01  0.17493953774E+02  0.18726454381E+02  0.00000000000E+00 0.  1.
         11    1    3    3    0    0 -0.89862586044E+01 -0.60955146094E+01 -0.75085976292E+00  0.10884481279E+02  0.51100000000E-03 0. -1.
        -11    1    3    3    0    0 -0.80888053734E+01 -0.94200826915E+01  0.16121268681E+02  0.20348514306E+02  0.51100000000E-03 0.  1.
         12    1    3    3    0    0  0.22211230248E+02  0.11242253049E+02 -0.32864362692E+02  0.41228550034E+02  0.00000000000E+00 0. -1.
</event>
<event>
 7    1  0.3508738E-013  0.7246159E+02  0.7816164E-02  0.1226708E+00
        -11   -1    0    0    0    0  0.00000000000E+00  0.00000000000E+00  0.45593999997E+02  0.45594000000E+02  0.51100000000E-03 0.  1.
         11   -1    0    0    0    0 -0.00000000000E+00 -0.00000000000E+00 -0.45593999997E+02  0.45594000000E+02  0.51100000000E-03 0. -1.
    9900012    2    1    2    0    0 -0.16051014893E+02 -0.87859072451E+01 -0.39813673316E+01  0.72461587342E+02  0.70000022208E+02 0.  0.
        -12    1    1    2    0    0  0.16051014893E+02  0.87859072451E+01  0.39813673316E+01  0.18726412658E+02  0.00000000000E+00 0.  1.
         11    1    3    3    0    0  0.13295165841E+02  0.13950249961E+02 -0.38784585848E+01  0.19657399370E+02  0.51100000000E-03 0. -1.
        -11    1    3    3    0    0 -0.26709312934E+02  0.35083506308E-01  0.89338765828E+01  0.28163855903E+02  0.51100000000E-03 0.  1.
        -12    1    3    3    0    0 -0.26368677992E+01 -0.22771240713E+02 -0.90367853296E+01  0.24640332069E+02  0.00000000000E+00 0.  1.
</event>
<event>
 7    1  0.3508738E-013  0.7246151E+02  0.7816164E-02  0.1226708E+00
        -11   -1    0    0    0    0  0.00000000000E+00  0.00000000000E+00  0.45593999997E+02  0.45594000000E+02  0.51100000000E-03 0.  1.
         11   -1    0    0    0    0 -0.00000000000E+00 -0.00000000000E+00 -0.45593999997E+02  0.45594000000E+02  0.51100000000E-03 0. -1.
    9900012    2    1    2    0    0  0.89772581479E-01  0.18593381803E+02 -0.22270163244E+01  0.72461507864E+02  0.69999918673E+02 0.  0.
        -12    1    1    2    0    0 -0.89772581479E-01 -0.18593381803E+02  0.22270163244E+01  0.18726492136E+02  0.00000000000E+00 0.  1.
         11    1    3    3    0    0  0.71780136938E+01  0.13275725998E+01  0.19988391729E+01  0.75684666807E+01  0.51100000000E-03 0. -1.
        -11    1    3    3    0    0 -0.22621102677E+02  0.32343716875E+02  0.76471376024E+01  0.40203345898E+02  0.51100000000E-03 0.  1.
         12    1    3    3    0    0  0.15532861565E+02 -0.15077907671E+02 -0.11872993100E+02  0.24689695286E+02  0.00000000000E+00 0. -1.
</event>
<event>
 7    1  0.3508738E-013  0.7246119E+02  0.7816164E-02  0.1226709E+00
        -11   -1    0    0    0    0  0.00000000000E+00  0.00000000000E+00  0.45593999997E+02  0.45594000000E+02  0.51100000000E-03 0.  1.
         11   -1    0    0    0    0 -0.00000000000E+00 -0.00000000000E+00 -0.45593999997E+02  0.45594000000E+02  0.51100000000E-03 0. -1.
    9900012    2    1    2    0    0 -0.14111978008E+02  0.43726096879E+01 -0.11507640880E+02  0.72461189342E+02  0.69999503737E+02 0.  0.
        -12    1    1    2    0    0  0.14111978008E+02 -0.43726096879E+01  0.11507640880E+02  0.18726810658E+02  0.00000000000E+00 0.  1.
         11    1    3    3    0    0 -0.20977813567E+02 -0.11216974057E+01 -0.36872102944E+02  0.42436762870E+02  0.51100000000E-03 0. -1.
        -11    1    3    3    0    0 -0.30379277811E+01 -0.15144004739E+01  0.27812845014E+01  0.43883889684E+01  0.51100000000E-03 0.  1.
        -12    1    3    3    0    0  0.99037633394E+01  0.70087075675E+01  0.22583177563E+02  0.25636037503E+02  0.00000000000E+00 0.  1.
</event>
<event>
 7    1  0.3508738E-013  0.7246159E+02  0.7816164E-02  0.1226708E+00
        -11   -1    0    0    0    0  0.00000000000E+00  0.00000000000E+00  0.45593999997E+02  0.45594000000E+02  0.51100000000E-03 0.  1.
         11   -1    0    0    0    0 -0.00000000000E+00 -0.00000000000E+00 -0.45593999997E+02  0.45594000000E+02  0.51100000000E-03 0. -1.
    9900012    2    1    2    0    0 -0.40089668186E+01  0.72143437204E+01 -0.16809512061E+02  0.72461594419E+02  0.70000031427E+02 0.  0.
        -12    1    1    2    0    0  0.40089668186E+01 -0.72143437204E+01  0.16809512061E+02  0.18726405581E+02  0.00000000000E+00 0.  1.
         11    1    3    3    0    0 -0.98374349068E+01  0.31516344047E+02 -0.82245699879E+01  0.34024970528E+02  0.51100000000E-03 0. -1.
        -11    1    3    3    0    0 -0.71526484070E+01 -0.14742202672E+02  0.52358010403E+01  0.17201933951E+02  0.51100000000E-03 0.  1.
        -12    1    3    3    0    0  0.12981116495E+02 -0.95597976547E+01 -0.13820743113E+02  0.21234689940E+02  0.00000000000E+00 0.  1.
</event>
<event>
 7    1  0.3508738E-013  0.7246157E+02  0.7816164E-02  0.1226708E+00
        -11   -1    0    0    0    0  0.00000000000E+00  0.00000000000E+00  0.45593999997E+02  0.45594000000E+02  0.51100000000E-03 0. -1.
         11   -1    0    0    0    0 -0.00000000000E+00 -0.00000000000E+00 -0.45593999997E+02  0.45594000000E+02  0.51100000000E-03 0.  1.
    9900012    2    1    2    0    0 -0.21260851944E+00  0.30194839921E+01  0.18480169503E+02  0.72461570794E+02  0.70000000651E+02 0.  0.
        -12    1    1    2    0    0  0.21260851944E+00 -0.30194839921E+01 -0.18480169503E+02  0.18726429206E+02  0.00000000000E+00 0.  1.
         11    1    3    3    0    0 -0.21980640100E+01 -0.20816962838E+02  0.17455832713E+02  0.27255889697E+02  0.51100000000E-03 0. -1.
        -11    1    3    3    0    0  0.41987745516E+01  0.94807784460E+01 -0.18298563874E+02  0.21032173159E+02  0.51100000000E-03 0.  1.
         12    1    3    3    0    0 -0.22133190610E+01  0.14355668384E+02  0.19322900663E+02  0.24173507939E+02  0.00000000000E+00 0. -1.
</event>
<event>
 7    1  0.3508738E-013  0.7246161E+02  0.7816164E-02  0.1226708E+00
        -11   -1    0    0    0    0  0.00000000000E+00  0.00000000000E+00  0.45593999997E+02  0.45594000000E+02  0.51100000000E-03 0. -1.
         11   -1    0    0    0    0 -0.00000000000E+00 -0.00000000000E+00 -0.45593999997E+02  0.45594000000E+02  0.51100000000E-03 0.  1.
    9900012    2    1    2    0    0 -0.17995634104E+02  0.26252188522E+01  0.44657519833E+01  0.72461613226E+02  0.70000055927E+02 0.  0.
        -12    1    1    2    0    0  0.17995634104E+02 -0.26252188522E+01 -0.44657519833E+01  0.18726386774E+02  0.00000000000E+00 0.  1.
         11    1    3    3    0    0 -0.62139811302E+01  0.94076924580E+01  0.32214049288E+02  0.34130092450E+02  0.51100000000E-03 0. -1.
        -11    1    3    3    0    0 -0.50275175838E+01 -0.90635340268E+01 -0.73185960331E+00  0.10390341710E+02  0.51100000000E-03 0.  1.
        -12    1    3    3    0    0 -0.67541353900E+01  0.22810604211E+01 -0.27016437701E+02  0.27941179066E+02  0.00000000000E+00 0.  1.
</event>
<event>
 7    1  0.3508738E-013  0.7246158E+02  0.7816164E-02  0.1226708E+00
        -11   -1    0    0    0    0  0.00000000000E+00  0.00000000000E+00  0.45593999997E+02  0.45594000000E+02  0.51100000000E-03 0. -1.
         11   -1    0    0    0    0 -0.00000000000E+00 -0.00000000000E+00 -0.45593999997E+02  0.45594000000E+02  0.51100000000E-03 0.  1.
    9900012    2    1    2    0    0 -0.70308458649E+01  0.16587299911E+02  0.51095427018E+01  0.72461581802E+02  0.70000014990E+02 0.  0.
        -12    1    1    2    0    0  0.70308458649E+01 -0.16587299911E+02 -0.51095427018E+01  0.18726418198E+02  0.00000000000E+00 0.  1.
         11    1    3    3    0    0  0.20734098750E+01 -0.11745256889E+02  0.30487812564E+02  0.32737696973E+02  0.51100000000E-03 0. -1.
        -11    1    3    3    0    0 -0.76808039611E+00  0.74653012165E+01 -0.32222816768E+01  0.81672375510E+01  0.51100000000E-03 0.  1.
        -12    1    3    3    0    0 -0.83361753438E+01  0.20867255583E+02 -0.22155988185E+02  0.31556647278E+02  0.00000000000E+00 0.  1.
</event>
<event>
 7    1  0.3508738E-013  0.7246158E+02  0.7816164E-02  0.1226708E+00
        -11   -1    0    0    0    0  0.00000000000E+00  0.00000000000E+00  0.45593999997E+02  0.45594000000E+02  0.51100000000E-03 0.  1.
         11   -1    0    0    0    0 -0.00000000000E+00 -0.00000000000E+00 -0.45593999997E+02  0.45594000000E+02  0.51100000000E-03 0. -1.
    9900012    2    1    2    0    0 -0.15128398114E+02  0.88768589343E+01 -0.65583255320E+01  0.72461583156E+02  0.70000016755E+02 0.  0.
        -12    1    1    2    0    0  0.15128398114E+02 -0.88768589343E+01  0.65583255320E+01  0.18726416844E+02  0.00000000000E+00 0.  1.
         11    1    3    3    0    0 -0.18690684479E+02  0.15869360811E+02 -0.89384075254E+01  0.26097383550E+02  0.51100000000E-03 0. -1.
        -11    1    3    3    0    0 -0.17558025166E+02  0.87747620115E+01  0.37010502413E+01  0.19974445405E+02  0.51100000000E-03 0.  1.
        -12    1    3    3    0    0  0.21120311530E+02 -0.15767263888E+02 -0.13209682479E+01  0.26389754201E+02  0.00000000000E+00 0.  1.
</event>
<event>
 7    1  0.3508738E-013  0.7246143E+02  0.7816164E-02  0.1226708E+00
        -11   -1    0    0    0    0  0.00000000000E+00  0.00000000000E+00  0.45593999997E+02  0.45594000000E+02  0.51100000000E-03 0.  1.
         11   -1    0    0    0    0 -0.00000000000E+00 -0.00000000000E+00 -0.45593999997E+02  0.45594000000E+02  0.51100000000E-03 0. -1.
    9900012    2    1    2    0    0  0.16735186467E+02 -0.33992028082E+01  0.76852822033E+01  0.72461425077E+02  0.69999810827E+02 0.  0.
        -12    1    1    2    0    0 -0.16735186467E+02  0.33992028082E+01 -0.76852822033E+01  0.18726574923E+02  0.00000000000E+00 0.  1.
         11    1    3    3    0    0 -0.10855788569E+02 -0.66970376911E+00  0.86271590277E+01  0.13882525769E+02  0.51100000000E-03 0. -1.
        -11    1    3    3    0    0  0.80590244070E+01  0.19548225360E+02 -0.14861225644E+02  0.25844477496E+02  0.51100000000E-03 0.  1.
         12    1    3    3    0    0  0.19531950628E+02 -0.22277724399E+02  0.13919348820E+02  0.32734421812E+02  0.00000000000E+00 0. -1.
</event>
<event>
 7    1  0.3508738E-013  0.7246158E+02  0.7816164E-02  0.1226708E+00
        -11   -1    0    0    0    0  0.00000000000E+00  0.00000000000E+00  0.45593999997E+02  0.45594000000E+02  0.51100000000E-03 0.  1.
         11   -1    0    0    0    0 -0.00000000000E+00 -0.00000000000E+00 -0.45593999997E+02  0.45594000000E+02  0.51100000000E-03 0. -1.
    9900012    2    1    2    0    0  0.30926951254E+01 -0.16970330509E+02  0.72884734487E+01  0.72461582138E+02  0.70000015429E+02 0.  0.
        -12    1    1    2    0    0 -0.30926951254E+01  0.16970330509E+02 -0.72884734487E+01  0.18726417862E+02  0.00000000000E+00 0.  1.
         11    1    3    3    0    0 -0.41830279848E+01  0.17669235674E+02  0.85167881011E+01  0.20055804453E+02  0.51100000000E-03 0. -1.
        -11    1    3    3    0    0  0.36137948186E+01  0.84050288478E+01 -0.10154806666E+01  0.92051737718E+01  0.51100000000E-03 0.  1.
         12    1    3    3    0    0  0.36619282915E+01 -0.43044595031E+02 -0.21283398586E+00  0.43200603914E+02  0.00000000000E+00 0. -1.
</event>
<event>
 7    1  0.3508738E-013  0.7246154E+02  0.7816164E-02  0.1226708E+00
        -11   -1    0    0    0    0  0.00000000000E+00  0.00000000000E+00  0.45593999997E+02  0.45594000000E+02  0.51100000000E-03 0.  1.
         11   -1    0    0    0    0 -0.00000000000E+00 -0.00000000000E+00 -0.45593999997E+02  0.45594000000E+02  0.51100000000E-03 0. -1.
    9900012    2    1    2    0    0  0.98457752466E+01 -0.15413745017E+02  0.40196327665E+01  0.72461540825E+02  0.69999961610E+02 0.  0.
        -12    1    1    2    0    0 -0.98457752466E+01  0.15413745017E+02 -0.40196327665E+01  0.18726459175E+02  0.00000000000E+00 0.  1.
         11    1    3    3    0    0 -0.10404778264E+01 -0.20770943323E+01  0.62092565877E+01  0.66296140616E+01  0.51100000000E-03 0. -1.
        -11    1    3    3    0    0 -0.25271123826E+02 -0.12942102867E+02  0.53568606389E+01  0.28893315529E+02  0.51100000000E-03 0.  1.
         12    1    3    3    0    0  0.36157376899E+02 -0.39454781815E+00 -0.75464844601E+01  0.36938611234E+02  0.00000000000E+00 0. -1.
</event>
<event>
 7    1  0.3508738E-013  0.7246153E+02  0.7816164E-02  0.1226708E+00
        -11   -1    0    0    0    0  0.00000000000E+00  0.00000000000E+00  0.45593999997E+02  0.45594000000E+02  0.51100000000E-03 0. -1.
         11   -1    0    0    0    0 -0.00000000000E+00 -0.00000000000E+00 -0.45593999997E+02  0.45594000000E+02  0.51100000000E-03 0.  1.
    9900012    2    1    2    0    0  0.30734972184E+01 -0.27558734443E+01  0.18265798748E+02  0.72461531366E+02  0.69999949288E+02 0.  0.
        -12    1    1    2    0    0 -0.30734972184E+01  0.27558734443E+01 -0.18265798748E+02  0.18726468634E+02  0.00000000000E+00 0.  1.
         11    1    3    3    0    0 -0.25987000950E+02 -0.16473152817E+01  0.26305075474E+02  0.37013441640E+02  0.51100000000E-03 0. -1.
        -11    1    3    3    0    0  0.27840307663E+01  0.29463039196E+01 -0.78784558860E+01  0.88601129509E+01  0.51100000000E-03 0.  1.
        -12    1    3    3    0    0  0.26276467402E+02 -0.40548620822E+01 -0.16082083988E+00  0.26587976775E+02  0.00000000000E+00 0.  1.
</event>
<event>
 7    1  0.3508738E-013  0.7246158E+02  0.7816164E-02  0.1226708E+00
        -11   -1    0    0    0    0  0.00000000000E+00  0.00000000000E+00  0.45593999997E+02  0.45594000000E+02  0.51100000000E-03 0. -1.
         11   -1    0    0    0    0 -0.00000000000E+00 -0.00000000000E+00 -0.45593999997E+02  0.45594000000E+02  0.51100000000E-03 0.  1.
    9900012    2    1    2    0    0  0.17629096730E+02  0.62620002109E+01  0.82531101981E+00  0.72461579188E+02  0.70000011585E+02 0.  0.
        -12    1    1    2    0    0 -0.17629096730E+02 -0.62620002109E+01 -0.82531101981E+00  0.18726420812E+02  0.00000000000E+00 0.  1.
         11    1    3    3    0    0  0.19697270491E+01 -0.39096506092E+01 -0.45279979256E+00  0.44011612612E+01  0.51100000000E-03 0. -1.
        -11    1    3    3    0    0  0.32647587337E+02  0.51441949224E+01 -0.21331419404E+02  0.39336460878E+02  0.51100000000E-03 0.  1.
         12    1    3    3    0    0 -0.16988217656E+02  0.50274558977E+01  0.22609530216E+02  0.28723957049E+02  0.00000000000E+00 0. -1.
</event>
<event>
 7    1  0.3508738E-013  0.7246155E+02  0.7816164E-02  0.1226708E+00
        -11   -1    0    0    0    0  0.00000000000E+00  0.00000000000E+00  0.45593999997E+02  0.45594000000E+02  0.51100000000E-03 0.  1.
         11   -1    0    0    0    0 -0.00000000000E+00 -0.00000000000E+00 -0.45593999997E+02  0.45594000000E+02  0.51100000000E-03 0. -1.
    9900012    2    1    2    0    0 -0.75463896785E+01  0.17132502159E+02 -0.45745257140E+00  0.72461551051E+02  0.69999974931E+02 0.  0.
        -12    1    1    2    0    0  0.75463896785E+01 -0.17132502159E+02  0.45745257140E+00  0.18726448949E+02  0.00000000000E+00 0.  1.
         11    1    3    3    0    0 -0.17115034604E+02  0.18418103149E+02  0.23152567755E+02  0.34178828638E+02  0.51100000000E-03 0.  1.
        -11    1    3    3    0    0 -0.86190803206E+01 -0.62624667716E+01 -0.12390005850E+02  0.16340724612E+02  0.51100000000E-03 0. -1.
        -12    1    3    3    0    0  0.18187725246E+02  0.49768657812E+01 -0.11220014477E+02  0.21941997801E+02  0.00000000000E+00 0.  1.
</event>
<event>
 7    1  0.3508738E-013  0.7246160E+02  0.7816164E-02  0.1226708E+00
        -11   -1    0    0    0    0  0.00000000000E+00  0.00000000000E+00  0.45593999997E+02  0.45594000000E+02  0.51100000000E-03 0.  1.
         11   -1    0    0    0    0 -0.00000000000E+00 -0.00000000000E+00 -0.45593999997E+02  0.45594000000E+02  0.51100000000E-03 0. -1.
    9900012    2    1    2    0    0  0.17271120527E+02 -0.64114082312E+01  0.33586147168E+01  0.72461600117E+02  0.70000038849E+02 0.  0.
        -12    1    1    2    0    0 -0.17271120527E+02  0.64114082312E+01 -0.33586147168E+01  0.18726399883E+02  0.00000000000E+00 0.  1.
         11    1    3    3    0    0 -0.14626462395E+02  0.75443614689E+01  0.14760676363E+02  0.22107201522E+02  0.51100000000E-03 0. -1.
        -11    1    3    3    0    0  0.21630095965E+01 -0.37904894204E+00  0.10682384771E+02  0.10905761471E+02  0.51100000000E-03 0.  1.
         12    1    3    3    0    0  0.29734573325E+02 -0.13576720758E+02 -0.22084446417E+02  0.39448637124E+02  0.00000000000E+00 0. -1.
</event>
<event>
 7    1  0.3508738E-013  0.7246160E+02  0.7816164E-02  0.1226708E+00
        -11   -1    0    0    0    0  0.00000000000E+00  0.00000000000E+00  0.45593999997E+02  0.45594000000E+02  0.51100000000E-03 0. -1.
         11   -1    0    0    0    0 -0.00000000000E+00 -0.00000000000E+00 -0.45593999997E+02  0.45594000000E+02  0.51100000000E-03 0.  1.
    9900012    2    1    2    0    0 -0.17609237954E+02 -0.42455390870E+01  0.47505859524E+01  0.72461603381E+02  0.70000043101E+02 0.  0.
        -12    1    1    2    0    0  0.17609237954E+02  0.42455390870E+01 -0.47505859524E+01  0.18726396619E+02  0.00000000000E+00 0.  1.
         11    1    3    3    0    0 -0.50568098791E+01  0.70716454315E+01 -0.10793847402E+02  0.13859532361E+02  0.51100000000E-03 0. -1.
        -11    1    3    3    0    0  0.17115131722E+02 -0.13045034136E+02 -0.54709530262E+01  0.22204323380E+02  0.51100000000E-03 0.  1.
         12    1    3    3    0    0 -0.29667559796E+02  0.17278496175E+01  0.21015386381E+02  0.36397747640E+02  0.00000000000E+00 0. -1.
</event>
<event>
 7    1  0.5787828E-013  0.7246156E+02  0.7816164E-02  0.1226708E+00
        -11   -1    0    0    0    0  0.00000000000E+00  0.00000000000E+00  0.45593999997E+02  0.45594000000E+02  0.51100000000E-03 0.  1.
         11   -1    0    0    0    0 -0.00000000000E+00 -0.00000000000E+00 -0.45593999997E+02  0.45594000000E+02  0.51100000000E-03 0. -1.
    9900012    2    1    2    0    0  0.71537058060E+01  0.84046999376E+01 -0.15128290091E+02  0.72461557495E+02  0.69999983327E+02 0.  0.
        -12    1    1    2    0    0 -0.71537058060E+01 -0.84046999376E+01  0.15128290091E+02  0.18726442505E+02  0.00000000000E+00 0.  1.
         11    1    3    3    0    0  0.25220843816E+02  0.78650285407E+01 -0.15643053596E+02  0.30702683316E+02  0.51100000000E-03 0. -1.
        -11    1    3    3    0    0  0.15152373838E+01  0.28498221875E+01 -0.15824756467E+02  0.16150552570E+02  0.51100000000E-03 0.  1.
        -12    1    3    3    0    0 -0.19582375394E+02 -0.23101507907E+01  0.16339519972E+02  0.25608321609E+02  0.00000000000E+00 0.  1.
</event>
<event>
 7    1  0.3508738E-013  0.7246153E+02  0.7816164E-02  0.1226708E+00
        -11   -1    0    0    0    0  0.00000000000E+00  0.00000000000E+00  0.45593999997E+02  0.45594000000E+02  0.51100000000E-03 0.  1.
         11   -1    0    0    0    0 -0.00000000000E+00 -0.00000000000E+00 -0.45593999997E+02  0.45594000000E+02  0.51100000000E-03 0. -1.
    9900012    2    1    2    0    0 -0.72906116021E+01  0.13735885312E+02  0.10433267923E+02  0.72461530969E+02  0.69999948771E+02 0.  0.
        -12    1    1    2    0    0  0.72906116021E+01 -0.13735885312E+02 -0.10433267923E+02  0.18726469031E+02  0.00000000000E+00 0.  1.
         11    1    3    3    0    0  0.16450933778E+02  0.21304412612E+01 -0.76530083330E+01  0.18268566964E+02  0.51100000000E-03 0. -1.
        -11    1    3    3    0    0  0.60113303434E+01  0.14412362827E+02 -0.50355949202E+01  0.16407605286E+02  0.51100000000E-03 0.  1.
        -12    1    3    3    0    0 -0.29752875723E+02 -0.28069187765E+01  0.23121871176E+02  0.37785358719E+02  0.00000000000E+00 0.  1.
</event>
<event>
 7    1  0.3508738E-013  0.7246168E+02  0.7816164E-02  0.1226708E+00
        -11   -1    0    0    0    0  0.00000000000E+00  0.00000000000E+00  0.45593999997E+02  0.45594000000E+02  0.51100000000E-03 0.  1.
         11   -1    0    0    0    0 -0.00000000000E+00 -0.00000000000E+00 -0.45593999997E+02  0.45594000000E+02  0.51100000000E-03 0. -1.
    9900012    2    1    2    0    0 -0.17239464517E+02  0.66801101553E+01 -0.29752583476E+01  0.72461677062E+02  0.70000139085E+02 0.  0.
        -12    1    1    2    0    0  0.17239464517E+02 -0.66801101553E+01  0.29752583476E+01  0.18726322938E+02  0.00000000000E+00 0.  1.
         11    1    3    3    0    0 -0.17914436115E+02 -0.14621864809E+02 -0.21043967382E+02  0.31266188051E+02  0.51100000000E-03 0. -1.
        -11    1    3    3    0    0 -0.11011544932E+02  0.11634557057E+00  0.23590871144E-01  0.11012184836E+02  0.51100000000E-03 0.  1.
        -12    1    3    3    0    0  0.11686516529E+02  0.21185629394E+02  0.18045118163E+02  0.30183304175E+02  0.00000000000E+00 0.  1.
</event>
<event>
 7    1  0.3508738E-013  0.7246156E+02  0.7816164E-02  0.1226708E+00
        -11   -1    0    0    0    0  0.00000000000E+00  0.00000000000E+00  0.45593999997E+02  0.45594000000E+02  0.51100000000E-03 0. -1.
         11   -1    0    0    0    0 -0.00000000000E+00 -0.00000000000E+00 -0.45593999997E+02  0.45594000000E+02  0.51100000000E-03 0.  1.
    9900012    2    1    2    0    0  0.98052779902E+01 -0.15488866694E+02  0.38250427518E+01  0.72461563607E+02  0.69999991289E+02 0.  0.
        -12    1    1    2    0    0 -0.98052779902E+01  0.15488866694E+02 -0.38250427518E+01  0.18726436393E+02  0.00000000000E+00 0.  1.
         11    1    3    3    0    0 -0.31384097684E+01 -0.22810325722E+00 -0.35257543454E+01  0.47257370785E+01  0.51100000000E-03 0. -1.
        -11    1    3    3    0    0 -0.94753272606E+01 -0.16725438952E+02 -0.22999363917E+02  0.29974870736E+02  0.51100000000E-03 0.  1.
         12    1    3    3    0    0  0.22419015019E+02  0.14646755155E+01  0.30350161014E+02  0.37760955792E+02  0.00000000000E+00 0. -1.
</event>
<event>
 7    1  0.3508738E-013  0.7246149E+02  0.7816164E-02  0.1226708E+00
        -11   -1    0    0    0    0  0.00000000000E+00  0.00000000000E+00  0.45593999997E+02  0.45594000000E+02  0.51100000000E-03 0. -1.
         11   -1    0    0    0    0 -0.00000000000E+00 -0.00000000000E+00 -0.45593999997E+02  0.45594000000E+02  0.51100000000E-03 0.  1.
    9900012    2    1    2    0    0 -0.62217235422E+01 -0.17573766378E+02 -0.17706286927E+01  0.72461488459E+02  0.69999893394E+02 0.  0.
        -12    1    1    2    0    0  0.62217235422E+01  0.17573766378E+02  0.17706286927E+01  0.18726511541E+02  0.00000000000E+00 0.  1.
         11    1    3    3    0    0 -0.15363384886E+02 -0.82598828950E+01 -0.41595961933E+01  0.17932135995E+02  0.51100000000E-03 0. -1.
        -11    1    3    3    0    0  0.12990878394E+02 -0.30199486524E+02 -0.16282809241E+01  0.32915394678E+02  0.51100000000E-03 0.  1.
         12    1    3    3    0    0 -0.38492170507E+01  0.20885603041E+02  0.40172484248E+01  0.21613957786E+02  0.00000000000E+00 0. -1.
</event>
<event>
 7    1  0.3508738E-013  0.7246157E+02  0.7816164E-02  0.1226708E+00
        -11   -1    0    0    0    0  0.00000000000E+00  0.00000000000E+00  0.45593999997E+02  0.45594000000E+02  0.51100000000E-03 0. -1.
         11   -1    0    0    0    0 -0.00000000000E+00 -0.00000000000E+00 -0.45593999997E+02  0.45594000000E+02  0.51100000000E-03 0.  1.
    9900012    2    1    2    0    0  0.18667139495E+01  0.18249059981E+02  0.37638457034E+01  0.72461565592E+02  0.69999993874E+02 0.  0.
        -12    1    1    2    0    0 -0.18667139495E+01 -0.18249059981E+02 -0.37638457034E+01  0.18726434408E+02  0.00000000000E+00 0.  1.
         11    1    3    3    0    0  0.21143009047E+01  0.90952245153E+01 -0.99602946775E+01  0.13652869575E+02  0.51100000000E-03 0. -1.
        -11    1    3    3    0    0  0.19058367599E+02  0.16770821011E+02 -0.10002239126E+02  0.27286014746E+02  0.51100000000E-03 0.  1.
         12    1    3    3    0    0 -0.19305954554E+02 -0.76169855456E+01  0.23726379507E+02  0.31522681271E+02  0.00000000000E+00 0. -1.
</event>
<event>
 7    1  0.3508738E-013  0.7246169E+02  0.7816164E-02  0.1226708E+00
        -11   -1    0    0    0    0  0.00000000000E+00  0.00000000000E+00  0.45593999997E+02  0.45594000000E+02  0.51100000000E-03 0. -1.
         11   -1    0    0    0    0 -0.00000000000E+00 -0.00000000000E+00 -0.45593999997E+02  0.45594000000E+02  0.51100000000E-03 0.  1.
    9900012    2    1    2    0    0  0.18006858182E+02  0.49583115335E+01  0.13575323284E+01  0.72461689929E+02  0.70000155846E+02 0.  0.
        -12    1    1    2    0    0 -0.18006858182E+02 -0.49583115335E+01 -0.13575323284E+01  0.18726310071E+02  0.00000000000E+00 0.  1.
         11    1    3    3    0    0  0.31905045618E+02 -0.29935399689E+01  0.11782589923E+02  0.34142680665E+02  0.51100000000E-03 0. -1.
        -11    1    3    3    0    0  0.10558491125E+02 -0.28985775412E+00 -0.59587837745E+01  0.12127359840E+02  0.51100000000E-03 0.  1.
        -12    1    3    3    0    0 -0.24456678561E+02  0.82417092565E+01 -0.44662738196E+01  0.26191649424E+02  0.00000000000E+00 0.  1.
</event>
<event>
 7    1  0.3508738E-013  0.7246160E+02  0.7816164E-02  0.1226708E+00
        -11   -1    0    0    0    0  0.00000000000E+00  0.00000000000E+00  0.45593999997E+02  0.45594000000E+02  0.51100000000E-03 0. -1.
         11   -1    0    0    0    0 -0.00000000000E+00 -0.00000000000E+00 -0.45593999997E+02  0.45594000000E+02  0.51100000000E-03 0.  1.
    9900012    2    1    2    0    0  0.48470351978E+01  0.17251002876E+02 -0.54394118449E+01  0.72461600141E+02  0.70000038881E+02 0.  0.
        -12    1    1    2    0    0 -0.48470351978E+01 -0.17251002876E+02  0.54394118449E+01  0.18726399859E+02  0.00000000000E+00 0.  1.
         11    1    3    3    0    0  0.10024331456E+02  0.30249092899E+02  0.22874475186E+02  0.39226731417E+02  0.51100000000E-03 0. -1.
        -11    1    3    3    0    0  0.19437619307E+01 -0.31590666468E+01 -0.19112886794E+01  0.41726415134E+01  0.51100000000E-03 0.  1.
        -12    1    3    3    0    0 -0.71210581891E+01 -0.98390233759E+01 -0.26402598352E+02  0.29062227211E+02  0.00000000000E+00 0.  1.
</event>
<event>
 7    1  0.3508738E-013  0.7246155E+02  0.7816164E-02  0.1226708E+00
        -11   -1    0    0    0    0  0.00000000000E+00  0.00000000000E+00  0.45593999997E+02  0.45594000000E+02  0.51100000000E-03 0.  1.
         11   -1    0    0    0    0 -0.00000000000E+00 -0.00000000000E+00 -0.45593999997E+02  0.45594000000E+02  0.51100000000E-03 0. -1.
    9900012    2    1    2    0    0 -0.69814826632E+01  0.96910944815E+01 -0.14422946255E+02  0.72461553698E+02  0.69999978380E+02 0.  0.
        -12    1    1    2    0    0  0.69814826632E+01 -0.96910944815E+01  0.14422946255E+02  0.18726446302E+02  0.00000000000E+00 0.  1.
         11    1    3    3    0    0 -0.54204703925E+01 -0.68066467339E+01 -0.11692103195E+01  0.87794642245E+01  0.51100000000E-03 0.  1.
        -11    1    3    3    0    0  0.76497076910E+01  0.58374696314E+01 -0.35814044852E+02  0.37084226949E+02  0.51100000000E-03 0. -1.
         12    1    3    3    0    0 -0.92107199617E+01  0.10660271584E+02  0.22560308916E+02  0.26597862524E+02  0.00000000000E+00 0. -1.
</event>
<event>
 7    1  0.3508738E-013  0.7246155E+02  0.7816164E-02  0.1226708E+00
        -11   -1    0    0    0    0  0.00000000000E+00  0.00000000000E+00  0.45593999997E+02  0.45594000000E+02  0.51100000000E-03 0. -1.
         11   -1    0    0    0    0 -0.00000000000E+00 -0.00000000000E+00 -0.45593999997E+02  0.45594000000E+02  0.51100000000E-03 0.  1.
    9900012    2    1    2    0    0  0.34718119513E+01  0.17363262007E+02  0.60945607948E+01  0.72461547665E+02  0.69999970521E+02 0.  0.
        -12    1    1    2    0    0 -0.34718119513E+01 -0.17363262007E+02 -0.60945607948E+01  0.18726452335E+02  0.00000000000E+00 0.  1.
         11    1    3    3    0    0  0.23206177874E+02  0.10422419279E+02  0.18909340559E+02  0.31697266062E+02  0.51100000000E-03 0. -1.
        -11    1    3    3    0    0  0.57224410483E+01 -0.69696610205E+01 -0.63885817284E+01  0.11051537588E+02  0.51100000000E-03 0.  1.
        -12    1    3    3    0    0 -0.25456806971E+02  0.13910503749E+02 -0.64261980359E+01  0.29712744016E+02  0.00000000000E+00 0.  1.
</event>
<event>
 7    1  0.4971677E-013  0.7246159E+02  0.7816164E-02  0.1226708E+00
        -11   -1    0    0    0    0  0.00000000000E+00  0.00000000000E+00  0.45593999997E+02  0.45594000000E+02  0.51100000000E-03 0. -1.
         11   -1    0    0    0    0 -0.00000000000E+00 -0.00000000000E+00 -0.45593999997E+02  0.45594000000E+02  0.51100000000E-03 0.  1.
    9900012    2    1    2    0    0 -0.93131779674E+00  0.11209695464E+02  0.14971770533E+02  0.72461587153E+02  0.70000021962E+02 0.  0.
        -12    1    1    2    0    0  0.93131779674E+00 -0.11209695464E+02 -0.14971770533E+02  0.18726412847E+02  0.00000000000E+00 0.  1.
         11    1    3    3    0    0 -0.10526350616E+02 -0.13561622590E+02  0.28495523801E+02  0.33267349482E+02  0.51100000000E-03 0. -1.
        -11    1    3    3    0    0  0.10983581963E+02  0.14835247458E+02  0.41058668770E+01  0.18909832970E+02  0.51100000000E-03 0.  1.
        -12    1    3    3    0    0 -0.13885491431E+01  0.99360705960E+01 -0.17629620146E+02  0.20284404701E+02  0.00000000000E+00 0.  1.
</event>
<event>
 7    1  0.3508738E-013  0.7246159E+02  0.7816164E-02  0.1226708E+00
        -11   -1    0    0    0    0  0.00000000000E+00  0.00000000000E+00  0.45593999997E+02  0.45594000000E+02  0.51100000000E-03 0.  1.
         11   -1    0    0    0    0 -0.00000000000E+00 -0.00000000000E+00 -0.45593999997E+02  0.45594000000E+02  0.51100000000E-03 0. -1.
    9900012    2    1    2    0    0 -0.10974330645E+02 -0.67447591547E+00 -0.15158747385E+02  0.72461588888E+02  0.70000024222E+02 0.  0.
        -12    1    1    2    0    0  0.10974330645E+02  0.67447591547E+00  0.15158747385E+02  0.18726411112E+02  0.00000000000E+00 0.  1.
         11    1    3    3    0    0 -0.12351002083E+02  0.18214591886E+02  0.98795636868E+01  0.24123109023E+02  0.51100000000E-03 0. -1.
        -11    1    3    3    0    0 -0.16207436064E+02 -0.81612170078E+01 -0.33969547666E+01  0.18461466593E+02  0.51100000000E-03 0.  1.
        -12    1    3    3    0    0  0.17584107502E+02 -0.10727850794E+02 -0.21641356305E+02  0.29877013272E+02  0.00000000000E+00 0.  1.
</event>
<event>
 7    1  0.3508738E-013  0.7246158E+02  0.7816164E-02  0.1226708E+00
        -11   -1    0    0    0    0  0.00000000000E+00  0.00000000000E+00  0.45593999997E+02  0.45594000000E+02  0.51100000000E-03 0.  1.
         11   -1    0    0    0    0 -0.00000000000E+00 -0.00000000000E+00 -0.45593999997E+02  0.45594000000E+02  0.51100000000E-03 0. -1.
    9900012    2    1    2    0    0  0.16549194003E+02  0.77212494975E+01 -0.41455077320E+01  0.72461581487E+02  0.70000014581E+02 0.  0.
        -12    1    1    2    0    0 -0.16549194003E+02 -0.77212494975E+01  0.41455077320E+01  0.18726418513E+02  0.00000000000E+00 0.  1.
         11    1    3    3    0    0  0.29984436158E+02  0.15197807401E+02  0.13410745675E+01  0.33642803729E+02  0.51100000000E-03 0. -1.
        -11    1    3    3    0    0  0.87303395301E+01  0.73199939456E+01  0.85194408472E+00  0.11424839109E+02  0.51100000000E-03 0.  1.
        -12    1    3    3    0    0 -0.22165581685E+02 -0.14796551849E+02 -0.63385263842E+01  0.27393938650E+02  0.00000000000E+00 0.  1.
</event>
<event>
 7    1  0.3508738E-013  0.7246158E+02  0.7816164E-02  0.1226708E+00
        -11   -1    0    0    0    0  0.00000000000E+00  0.00000000000E+00  0.45593999997E+02  0.45594000000E+02  0.51100000000E-03 0. -1.
         11   -1    0    0    0    0 -0.00000000000E+00 -0.00000000000E+00 -0.45593999997E+02  0.45594000000E+02  0.51100000000E-03 0.  1.
    9900012    2    1    2    0    0 -0.43777565382E+01  0.15552675176E+02  0.94672241216E+01  0.72461580427E+02  0.70000013200E+02 0.  0.
        -12    1    1    2    0    0  0.43777565382E+01 -0.15552675176E+02 -0.94672241216E+01  0.18726419573E+02  0.00000000000E+00 0.  1.
         11    1    3    3    0    0 -0.24053426518E+01  0.91676457133E+01  0.54553524560E+01  0.10935825158E+02  0.51100000000E-03 0. -1.
        -11    1    3    3    0    0  0.19291476633E+02 -0.13768153864E+02 -0.13616961696E+02  0.27333949176E+02  0.51100000000E-03 0.  1.
         12    1    3    3    0    0 -0.21263890519E+02  0.20153183327E+02  0.17628833361E+02  0.34191806093E+02  0.00000000000E+00 0. -1.
</event>
<event>
 7    1  0.3508738E-013  0.7246156E+02  0.7816164E-02  0.1226708E+00
        -11   -1    0    0    0    0  0.00000000000E+00  0.00000000000E+00  0.45593999997E+02  0.45594000000E+02  0.51100000000E-03 0. -1.
         11   -1    0    0    0    0 -0.00000000000E+00 -0.00000000000E+00 -0.45593999997E+02  0.45594000000E+02  0.51100000000E-03 0.  1.
    9900012    2    1    2    0    0  0.17923078858E+02 -0.30752481196E+01 -0.44705425499E+01  0.72461557267E+02  0.69999983030E+02 0.  0.
        -12    1    1    2    0    0 -0.17923078858E+02  0.30752481196E+01  0.44705425499E+01  0.18726442733E+02  0.00000000000E+00 0.  1.
         11    1    3    3    0    0 -0.10645927852E+02  0.15411993389E+02 -0.42327501542E+01  0.19203684390E+02  0.51100000000E-03 0. -1.
        -11    1    3    3    0    0 -0.40539369291E+01  0.71195872168E+01  0.74561191679E+01  0.11077754288E+02  0.51100000000E-03 0.  1.
         12    1    3    3    0    0  0.32622943639E+02 -0.25606828725E+02 -0.76939115636E+01  0.42180118589E+02  0.00000000000E+00 0. -1.
</event>
<event>
 7    1  0.3508738E-013  0.7246161E+02  0.7816164E-02  0.1226708E+00
        -11   -1    0    0    0    0  0.00000000000E+00  0.00000000000E+00  0.45593999997E+02  0.45594000000E+02  0.51100000000E-03 0.  1.
         11   -1    0    0    0    0 -0.00000000000E+00 -0.00000000000E+00 -0.45593999997E+02  0.45594000000E+02  0.51100000000E-03 0. -1.
    9900012    2    1    2    0    0 -0.77498857733E+01  0.11917853836E+02  0.12189404533E+02  0.72461613471E+02  0.70000056246E+02 0.  0.
        -12    1    1    2    0    0  0.77498857733E+01 -0.11917853836E+02 -0.12189404533E+02  0.18726386529E+02  0.00000000000E+00 0.  1.
         11    1    3    3    0    0  0.11144167727E+02  0.35747811299E+01  0.35736176838E+01  0.12236922736E+02  0.51100000000E-03 0.  1.
        -11    1    3    3    0    0 -0.26616939381E+02  0.15271365147E+02 -0.15201576260E+02  0.34245641716E+02  0.51100000000E-03 0. -1.
         12    1    3    3    0    0  0.77228858814E+01 -0.69282924402E+01  0.23817363109E+02  0.25979049019E+02  0.00000000000E+00 0. -1.
</event>
<event>
 7    1  0.3508738E-013  0.7246152E+02  0.7816164E-02  0.1226708E+00
        -11   -1    0    0    0    0  0.00000000000E+00  0.00000000000E+00  0.45593999997E+02  0.45594000000E+02  0.51100000000E-03 0. -1.
         11   -1    0    0    0    0 -0.00000000000E+00 -0.00000000000E+00 -0.45593999997E+02  0.45594000000E+02  0.51100000000E-03 0.  1.
    9900012    2    1    2    0    0  0.10381123070E+02  0.11725066043E+02  0.10268209028E+02  0.72461521245E+02  0.69999936105E+02 0.  0.
        -12    1    1    2    0    0 -0.10381123070E+02 -0.11725066043E+02 -0.10268209028E+02  0.18726478755E+02  0.00000000000E+00 0.  1.
         11    1    3    3    0    0 -0.21286899405E+02  0.14096153111E+02  0.17537956752E+02  0.30974401465E+02  0.51100000000E-03 0. -1.
        -11    1    3    3    0    0  0.15896138053E+02 -0.12778763082E+02  0.18988746960E+01  0.20483889188E+02  0.51100000000E-03 0.  1.
        -12    1    3    3    0    0  0.15771884422E+02  0.10407676014E+02 -0.91686224204E+01  0.21003230592E+02  0.00000000000E+00 0.  1.
</event>
<event>
 7    1  0.3508738E-013  0.7246153E+02  0.7816164E-02  0.1226708E+00
        -11   -1    0    0    0    0  0.00000000000E+00  0.00000000000E+00  0.45593999997E+02  0.45594000000E+02  0.51100000000E-03 0.  1.
         11   -1    0    0    0    0 -0.00000000000E+00 -0.00000000000E+00 -0.45593999997E+02  0.45594000000E+02  0.51100000000E-03 0. -1.
    9900012    2    1    2    0    0 -0.42079527222E+01 -0.10769350620E+02 -0.14730744706E+02  0.72461531607E+02  0.69999949603E+02 0.  0.
        -12    1    1    2    0    0  0.42079527222E+01  0.10769350620E+02  0.14730744706E+02  0.18726468393E+02  0.00000000000E+00 0.  1.
         11    1    3    3    0    0 -0.21722917675E+02  0.73643403514E+01  0.62923257800E+01  0.23784701493E+02  0.51100000000E-03 0. -1.
        -11    1    3    3    0    0 -0.74030992408E+01 -0.80290878427E+00 -0.16351258767E+02  0.17967031041E+02  0.51100000000E-03 0.  1.
        -12    1    3    3    0    0  0.24918064194E+02 -0.17330782187E+02 -0.46718117187E+01  0.30709799073E+02  0.00000000000E+00 0.  1.
</event>
<event>
 7    1  0.3508738E-013  0.7246171E+02  0.7816164E-02  0.1226708E+00
        -11   -1    0    0    0    0  0.00000000000E+00  0.00000000000E+00  0.45593999997E+02  0.45594000000E+02  0.51100000000E-03 0.  1.
         11   -1    0    0    0    0 -0.00000000000E+00 -0.00000000000E+00 -0.45593999997E+02  0.45594000000E+02  0.51100000000E-03 0. -1.
    9900012    2    1    2    0    0  0.16029530034E+02  0.87004203383E+01 -0.42462741448E+01  0.72461708555E+02  0.70000180110E+02 0.  0.
        -12    1    1    2    0    0 -0.16029530034E+02 -0.87004203383E+01  0.42462741448E+01  0.18726291445E+02  0.00000000000E+00 0.  1.
         11    1    3    3    0    0 -0.64269836055E+01  0.27916981820E+02 -0.15726285243E+02  0.32679963893E+02  0.51100000000E-03 0. -1.
        -11    1    3    3    0    0  0.91461524648E+01  0.49469955329E+01  0.44675823920E+01  0.11317427376E+02  0.51100000000E-03 0.  1.
        -12    1    3    3    0    0  0.13310361175E+02 -0.24163557015E+02  0.70124287063E+01  0.28464317286E+02  0.00000000000E+00 0.  1.
</event>
<event>
 7    1  0.3508738E-013  0.7246158E+02  0.7816164E-02  0.1226708E+00
        -11   -1    0    0    0    0  0.00000000000E+00  0.00000000000E+00  0.45593999997E+02  0.45594000000E+02  0.51100000000E-03 0. -1.
         11   -1    0    0    0    0 -0.00000000000E+00 -0.00000000000E+00 -0.45593999997E+02  0.45594000000E+02  0.51100000000E-03 0.  1.
    9900012    2    1    2    0    0 -0.49199835135E+01  0.16001984644E+02  0.83910091943E+01  0.72461580545E+02  0.70000013353E+02 0.  0.
        -12    1    1    2    0    0  0.49199835135E+01 -0.16001984644E+02 -0.83910091943E+01  0.18726419455E+02  0.00000000000E+00 0.  1.
         11    1    3    3    0    0 -0.87909860325E+01  0.91460364885E+01  0.25305752861E+02  0.28307464510E+02  0.51100000000E-03 0. -1.
        -11    1    3    3    0    0 -0.12678225254E+02 -0.35861844437E+01  0.56067704678E+01  0.14319007990E+02  0.51100000000E-03 0.  1.
        -12    1    3    3    0    0  0.16549227774E+02  0.10442132599E+02 -0.22521514135E+02  0.29835108045E+02  0.00000000000E+00 0.  1.
</event>
<event>
 7    1  0.3508738E-013  0.7246145E+02  0.7816164E-02  0.1226708E+00
        -11   -1    0    0    0    0  0.00000000000E+00  0.00000000000E+00  0.45593999997E+02  0.45594000000E+02  0.51100000000E-03 0.  1.
         11   -1    0    0    0    0 -0.00000000000E+00 -0.00000000000E+00 -0.45593999997E+02  0.45594000000E+02  0.51100000000E-03 0. -1.
    9900012    2    1    2    0    0 -0.79765718014E+01 -0.15710796938E+02 -0.63426218929E+01  0.72461449581E+02  0.69999842748E+02 0.  0.
        -12    1    1    2    0    0  0.79765718014E+01  0.15710796938E+02  0.63426218929E+01  0.18726550419E+02  0.00000000000E+00 0.  1.
         11    1    3    3    0    0 -0.71968899108E+01  0.91004092316E+01 -0.15503003407E+02  0.19363775134E+02  0.51100000000E-03 0. -1.
        -11    1    3    3    0    0  0.56887891141E+01  0.94186951019E+01 -0.86283065674E+01  0.13982911481E+02  0.51100000000E-03 0.  1.
        -12    1    3    3    0    0 -0.64684710047E+01 -0.34229901271E+02  0.17788688081E+02  0.39114762965E+02  0.00000000000E+00 0.  1.
</event>
<event>
 7    1  0.3508738E-013  0.7246152E+02  0.7816164E-02  0.1226708E+00
        -11   -1    0    0    0    0  0.00000000000E+00  0.00000000000E+00  0.45593999997E+02  0.45594000000E+02  0.51100000000E-03 0. -1.
         11   -1    0    0    0    0 -0.00000000000E+00 -0.00000000000E+00 -0.45593999997E+02  0.45594000000E+02  0.51100000000E-03 0.  1.
    9900012    2    1    2    0    0 -0.11332334790E+02  0.95513576034E+01 -0.11446862647E+02  0.72461523868E+02  0.69999939522E+02 0.  0.
        -12    1    1    2    0    0  0.11332334790E+02 -0.95513576034E+01  0.11446862647E+02  0.18726476132E+02  0.00000000000E+00 0.  1.
         11    1    3    3    0    0  0.74202647402E+01  0.30110871173E+02  0.11853078109E+02  0.33199704103E+02  0.51100000000E-03 0. -1.
        -11    1    3    3    0    0 -0.34834330817E+00  0.15010758104E+01  0.82373561702E+00  0.17473157347E+01  0.51100000000E-03 0.  1.
        -12    1    3    3    0    0 -0.18404256222E+02 -0.22060589380E+02 -0.24123676373E+02  0.37514504030E+02  0.00000000000E+00 0.  1.
</event>
<event>
 7    1  0.3508738E-013  0.7246158E+02  0.7816164E-02  0.1226708E+00
        -11   -1    0    0    0    0  0.00000000000E+00  0.00000000000E+00  0.45593999997E+02  0.45594000000E+02  0.51100000000E-03 0.  1.
         11   -1    0    0    0    0 -0.00000000000E+00 -0.00000000000E+00 -0.45593999997E+02  0.45594000000E+02  0.51100000000E-03 0. -1.
    9900012    2    1    2    0    0  0.23479285391E+00  0.13268880782E+02 -0.13212129122E+02  0.72461583343E+02  0.70000016998E+02 0.  0.
        -12    1    1    2    0    0 -0.23479285391E+00 -0.13268880782E+02  0.13212129122E+02  0.18726416657E+02  0.00000000000E+00 0.  1.
         11    1    3    3    0    0  0.36493775188E+01 -0.53803017328E+01 -0.17496698711E+01  0.67325290886E+01  0.51100000000E-03 0. -1.
        -11    1    3    3    0    0  0.20472207463E+02 -0.11234236230E+02  0.53239764720E+01  0.23951285306E+02  0.51100000000E-03 0.  1.
         12    1    3    3    0    0 -0.23886792128E+02  0.29883418744E+02 -0.16786435723E+02  0.41777768948E+02  0.00000000000E+00 0. -1.
</event>
<event>
 7    1  0.3508738E-013  0.7246164E+02  0.7816164E-02  0.1226708E+00
        -11   -1    0    0    0    0  0.00000000000E+00  0.00000000000E+00  0.45593999997E+02  0.45594000000E+02  0.51100000000E-03 0.  1.
         11   -1    0    0    0    0 -0.00000000000E+00 -0.00000000000E+00 -0.45593999997E+02  0.45594000000E+02  0.51100000000E-03 0. -1.
    9900012    2    1    2    0    0 -0.12814704098E+02 -0.10649371900E+02 -0.85469859654E+01  0.72461635375E+02  0.70000084779E+02 0.  0.
        -12    1    1    2    0    0  0.12814704098E+02  0.10649371900E+02  0.85469859654E+01  0.18726364625E+02  0.00000000000E+00 0.  1.
         11    1    3    3    0    0 -0.25788747745E+02 -0.93994235009E+01 -0.58295229873E+01  0.28060506249E+02  0.51100000000E-03 0. -1.
        -11    1    3    3    0    0 -0.14213095311E+02 -0.34363340594E+01  0.59431665384E+01  0.15784223099E+02  0.51100000000E-03 0.  1.
         12    1    3    3    0    0  0.27187138957E+02  0.21863856602E+01 -0.86606295164E+01  0.28616906027E+02  0.00000000000E+00 0. -1.
</event>
<event>
 7    1  0.3508738E-013  0.7246155E+02  0.7816164E-02  0.1226708E+00
        -11   -1    0    0    0    0  0.00000000000E+00  0.00000000000E+00  0.45593999997E+02  0.45594000000E+02  0.51100000000E-03 0. -1.
         11   -1    0    0    0    0 -0.00000000000E+00 -0.00000000000E+00 -0.45593999997E+02  0.45594000000E+02  0.51100000000E-03 0.  1.
    9900012    2    1    2    0    0 -0.13303626040E+02 -0.13082128482E+02 -0.15972716801E+01  0.72461552706E+02  0.69999977088E+02 0.  0.
        -12    1    1    2    0    0  0.13303626040E+02  0.13082128482E+02  0.15972716801E+01  0.18726447294E+02  0.00000000000E+00 0.  1.
         11    1    3    3    0    0  0.14080316168E+02  0.11542089648E+02  0.15060471487E+01  0.18268642946E+02  0.51100000000E-03 0. -1.
        -11    1    3    3    0    0 -0.39459145036E+01  0.10601899529E+02  0.22828951471E+01  0.11540456032E+02  0.51100000000E-03 0.  1.
         12    1    3    3    0    0 -0.23438027704E+02 -0.35226117660E+02 -0.53862139759E+01  0.42652453728E+02  0.00000000000E+00 0. -1.
</event>
<event>
 7    1  0.3508738E-013  0.7246202E+02  0.7816164E-02  0.1226707E+00
        -11   -1    0    0    0    0  0.00000000000E+00  0.00000000000E+00  0.45593999997E+02  0.45594000000E+02  0.51100000000E-03 0.  1.
         11   -1    0    0    0    0 -0.00000000000E+00 -0.00000000000E+00 -0.45593999997E+02  0.45594000000E+02  0.51100000000E-03 0. -1.
    9900012    2    1    2    0    0 -0.13418670612E+02  0.10013410907E+01 -0.13023015142E+02  0.72462019963E+02  0.70000585774E+02 0.  0.
        -12    1    1    2    0    0  0.13418670612E+02 -0.10013410907E+01  0.13023015142E+02  0.18725980037E+02  0.00000000000E+00 0.  1.
         11    1    3    3    0    0  0.16970659171E+02  0.23084589968E+01 -0.29583858785E+01  0.17380572571E+02  0.51100000000E-03 0. -1.
        -11    1    3    3    0    0  0.32032224639E+01 -0.16407046801E+02 -0.70022179445E+01  0.18124096537E+02  0.51100000000E-03 0.  1.
        -12    1    3    3    0    0 -0.33592552247E+02  0.15099928895E+02 -0.30624113193E+01  0.36957350854E+02  0.00000000000E+00 0.  1.
</event>
<event>
 7    1  0.3508738E-013  0.7246155E+02  0.7816164E-02  0.1226708E+00
        -11   -1    0    0    0    0  0.00000000000E+00  0.00000000000E+00  0.45593999997E+02  0.45594000000E+02  0.51100000000E-03 0.  1.
         11   -1    0    0    0    0 -0.00000000000E+00 -0.00000000000E+00 -0.45593999997E+02  0.45594000000E+02  0.51100000000E-03 0. -1.
    9900012    2    1    2    0    0  0.39995249372E+01  0.14889938858E+02 -0.10628896320E+02  0.72461550366E+02  0.69999974039E+02 0.  0.
        -12    1    1    2    0    0 -0.39995249372E+01 -0.14889938858E+02  0.10628896320E+02  0.18726449634E+02  0.00000000000E+00 0.  1.
         11    1    3    3    0    0 -0.35687641371E+01 -0.13471293852E+02  0.42191645206E+01  0.14560672547E+02  0.51100000000E-03 0.  1.
        -11    1    3    3    0    0  0.11443814474E+01 -0.19833439599E+01 -0.25122288856E+02  0.25226427804E+02  0.51100000000E-03 0. -1.
         12    1    3    3    0    0  0.64239076269E+01  0.30344576670E+02  0.10274228015E+02  0.32674450015E+02  0.00000000000E+00 0. -1.
</event>
<event>
 7    1  0.3508738E-013  0.7246156E+02  0.7816164E-02  0.1226708E+00
        -11   -1    0    0    0    0  0.00000000000E+00  0.00000000000E+00  0.45593999997E+02  0.45594000000E+02  0.51100000000E-03 0.  1.
         11   -1    0    0    0    0 -0.00000000000E+00 -0.00000000000E+00 -0.45593999997E+02  0.45594000000E+02  0.51100000000E-03 0. -1.
    9900012    2    1    2    0    0  0.70816737978E+01 -0.17288861076E+02  0.12745886632E+01  0.72461564212E+02  0.69999992076E+02 0.  0.
        -12    1    1    2    0    0 -0.70816737978E+01  0.17288861076E+02 -0.12745886632E+01  0.18726435788E+02  0.00000000000E+00 0.  1.
         11    1    3    3    0    0  0.28156284820E+02 -0.84097365819E+01  0.95974663246E+01  0.30912964988E+02  0.51100000000E-03 0. -1.
        -11    1    3    3    0    0 -0.23879187966E+01  0.14085068166E+01 -0.17937548225E+02  0.18150528483E+02  0.51100000000E-03 0.  1.
        -12    1    3    3    0    0 -0.18686692226E+02 -0.10287631310E+02  0.96146705639E+01  0.23398070740E+02  0.00000000000E+00 0.  1.
</event>
<event>
 7    1  0.3508738E-013  0.7246163E+02  0.7816164E-02  0.1226708E+00
        -11   -1    0    0    0    0  0.00000000000E+00  0.00000000000E+00  0.45593999997E+02  0.45594000000E+02  0.51100000000E-03 0. -1.
         11   -1    0    0    0    0 -0.00000000000E+00 -0.00000000000E+00 -0.45593999997E+02  0.45594000000E+02  0.51100000000E-03 0.  1.
    9900012    2    1    2    0    0 -0.12795992020E+02  0.40481136960E+01  0.13059570403E+02  0.72461627810E+02  0.70000074925E+02 0.  0.
        -12    1    1    2    0    0  0.12795992020E+02 -0.40481136960E+01 -0.13059570403E+02  0.18726372190E+02  0.00000000000E+00 0.  1.
         11    1    3    3    0    0  0.11147694588E+02  0.46404980982E-02  0.25480432115E+02  0.27812291118E+02  0.51100000000E-03 0. -1.
        -11    1    3    3    0    0 -0.24790594869E+01  0.15897754044E+02  0.19823941097E+01  0.16211545462E+02  0.51100000000E-03 0.  1.
        -12    1    3    3    0    0 -0.21464627121E+02 -0.11854280846E+02 -0.14403255822E+02  0.28437791231E+02  0.00000000000E+00 0.  1.
</event>
<event>
 7    1  0.3508738E-013  0.7246156E+02  0.7816164E-02  0.1226708E+00
        -11   -1    0    0    0    0  0.00000000000E+00  0.00000000000E+00  0.45593999997E+02  0.45594000000E+02  0.51100000000E-03 0.  1.
         11   -1    0    0    0    0 -0.00000000000E+00 -0.00000000000E+00 -0.45593999997E+02  0.45594000000E+02  0.51100000000E-03 0. -1.
    9900012    2    1    2    0    0  0.17758193449E+02  0.33019386647E+01  0.49420058728E+01  0.72461557317E+02  0.69999983095E+02 0.  0.
        -12    1    1    2    0    0 -0.17758193449E+02 -0.33019386647E+01 -0.49420058728E+01  0.18726442683E+02  0.00000000000E+00 0.  1.
         11    1    3    3    0    0 -0.31430580054E+01  0.20319622261E+02 -0.63320281923E+01  0.21514191682E+02  0.51100000000E-03 0. -1.
        -11    1    3    3    0    0  0.10468462946E+02  0.13555122828E+02  0.63713183977E+01  0.18273581196E+02  0.51100000000E-03 0.  1.
         12    1    3    3    0    0  0.10432788508E+02 -0.30572806424E+02  0.49027156675E+01  0.32673784440E+02  0.00000000000E+00 0. -1.
</event>
<event>
 7    1  0.3508738E-013  0.7246157E+02  0.7816164E-02  0.1226708E+00
        -11   -1    0    0    0    0  0.00000000000E+00  0.00000000000E+00  0.45593999997E+02  0.45594000000E+02  0.51100000000E-03 0. -1.
         11   -1    0    0    0    0 -0.00000000000E+00 -0.00000000000E+00 -0.45593999997E+02  0.45594000000E+02  0.51100000000E-03 0.  1.
    9900012    2    1    2    0    0 -0.13987751074E+01  0.17374302377E+02 -0.68451536048E+01  0.72461572610E+02  0.70000003017E+02 0.  0.
        -12    1    1    2    0    0  0.13987751074E+01 -0.17374302377E+02  0.68451536048E+01  0.18726427390E+02  0.00000000000E+00 0.  1.
         11    1    3    3    0    0 -0.18420696132E+02  0.10777281404E+02  0.24890149279E+01  0.21486438421E+02  0.51100000000E-03 0. -1.
        -11    1    3    3    0    0 -0.10756257133E+02 -0.13724975667E+01 -0.17816796081E+02  0.20857110057E+02  0.51100000000E-03 0.  1.
         12    1    3    3    0    0  0.27778178158E+02  0.79695185403E+01  0.84826275484E+01  0.30118024132E+02  0.00000000000E+00 0. -1.
</event>
<event>
 7    1  0.3508738E-013  0.7246164E+02  0.7816164E-02  0.1226708E+00
        -11   -1    0    0    0    0  0.00000000000E+00  0.00000000000E+00  0.45593999997E+02  0.45594000000E+02  0.51100000000E-03 0. -1.
         11   -1    0    0    0    0 -0.00000000000E+00 -0.00000000000E+00 -0.45593999997E+02  0.45594000000E+02  0.51100000000E-03 0.  1.
    9900012    2    1    2    0    0  0.18462111551E+02  0.21740737198E+01  0.22584181694E+01  0.72461638579E+02  0.70000088953E+02 0.  0.
        -12    1    1    2    0    0 -0.18462111551E+02 -0.21740737198E+01 -0.22584181694E+01  0.18726361421E+02  0.00000000000E+00 0.  1.
         11    1    3    3    0    0  0.16130349270E+02 -0.13446674901E+02  0.49102537353E+01  0.21566451388E+02  0.51100000000E-03 0. -1.
        -11    1    3    3    0    0 -0.16301738790E+02  0.69746256092E+01  0.15448242267E+02  0.23516808443E+02  0.51100000000E-03 0.  1.
         12    1    3    3    0    0  0.18633501071E+02  0.86461230115E+01 -0.18100077833E+02  0.27378378747E+02  0.00000000000E+00 0. -1.
</event>
<event>
 7    1  0.3508738E-013  0.7246183E+02  0.7816164E-02  0.1226707E+00
        -11   -1    0    0    0    0  0.00000000000E+00  0.00000000000E+00  0.45593999997E+02  0.45594000000E+02  0.51100000000E-03 0. -1.
         11   -1    0    0    0    0 -0.00000000000E+00 -0.00000000000E+00 -0.45593999997E+02  0.45594000000E+02  0.51100000000E-03 0.  1.
    9900012    2    1    2    0    0 -0.76657627869E+01  0.13232742545E+02  0.10807403446E+02  0.72461832116E+02  0.70000341071E+02 0.  0.
        -12    1    1    2    0    0  0.76657627869E+01 -0.13232742545E+02 -0.10807403446E+02  0.18726167884E+02  0.00000000000E+00 0.  1.
         11    1    3    3    0    0  0.93160719461E+01  0.51222360332E+01  0.23532425313E+01  0.10888721190E+02  0.51100000000E-03 0. -1.
        -11    1    3    3    0    0 -0.10619659789E+02 -0.94200477093E+00 -0.24549248038E+02  0.26764344314E+02  0.51100000000E-03 0.  1.
         12    1    3    3    0    0 -0.63621749440E+01  0.90525112823E+01  0.33003408953E+02  0.34808766612E+02  0.00000000000E+00 0. -1.
</event>
<event>
 7    1  0.3508738E-013  0.7246165E+02  0.7816164E-02  0.1226708E+00
        -11   -1    0    0    0    0  0.00000000000E+00  0.00000000000E+00  0.45593999997E+02  0.45594000000E+02  0.51100000000E-03 0.  1.
         11   -1    0    0    0    0 -0.00000000000E+00 -0.00000000000E+00 -0.45593999997E+02  0.45594000000E+02  0.51100000000E-03 0. -1.
    9900012    2    1    2    0    0 -0.89276217346E+01  0.47303382594E+00 -0.16454480826E+02  0.72461651448E+02  0.70000105718E+02 0.  0.
        -12    1    1    2    0    0  0.89276217346E+01 -0.47303382594E+00  0.16454480826E+02  0.18726348552E+02  0.00000000000E+00 0.  1.
         11    1    3    3    0    0  0.21716232777E+01 -0.11919689661E+02 -0.11493806455E+02  0.16700375336E+02  0.51100000000E-03 0. -1.
        -11    1    3    3    0    0  0.15495312900E+02  0.97489467104E+01  0.13954657334E+02  0.23019103922E+02  0.51100000000E-03 0.  1.
         12    1    3    3    0    0 -0.26594557912E+02  0.26437767766E+01 -0.18915331705E+02  0.32742172190E+02  0.00000000000E+00 0. -1.
</event>
<event>
 7    1  0.3508738E-013  0.7246153E+02  0.7816164E-02  0.1226708E+00
        -11   -1    0    0    0    0  0.00000000000E+00  0.00000000000E+00  0.45593999997E+02  0.45594000000E+02  0.51100000000E-03 0.  1.
         11   -1    0    0    0    0 -0.00000000000E+00 -0.00000000000E+00 -0.45593999997E+02  0.45594000000E+02  0.51100000000E-03 0. -1.
    9900012    2    1    2    0    0  0.18577644634E+02  0.21641333739E+01  0.93186202624E+00  0.72461528890E+02  0.69999946063E+02 0.  0.
        -12    1    1    2    0    0 -0.18577644634E+02 -0.21641333739E+01 -0.93186202624E+00  0.18726471110E+02  0.00000000000E+00 0.  1.
         11    1    3    3    0    0  0.38278585971E+02 -0.10197411185E+02  0.64977333378E+01  0.40142967972E+02  0.51100000000E-03 0. -1.
        -11    1    3    3    0    0  0.26908650017E+01  0.64828321460E+01 -0.58940824503E+01  0.91655919221E+01  0.51100000000E-03 0.  1.
         12    1    3    3    0    0 -0.22391806339E+02  0.58787124127E+01  0.32821113872E+00  0.23152968995E+02  0.00000000000E+00 0. -1.
</event>
<event>
 7    1  0.3508738E-013  0.7246156E+02  0.7816164E-02  0.1226708E+00
        -11   -1    0    0    0    0  0.00000000000E+00  0.00000000000E+00  0.45593999997E+02  0.45594000000E+02  0.51100000000E-03 0. -1.
         11   -1    0    0    0    0 -0.00000000000E+00 -0.00000000000E+00 -0.45593999997E+02  0.45594000000E+02  0.51100000000E-03 0.  1.
    9900012    2    1    2    0    0 -0.73006539591E+01  0.16593582270E+02  0.46939310184E+01  0.72461561225E+02  0.69999988186E+02 0.  0.
        -12    1    1    2    0    0  0.73006539591E+01 -0.16593582270E+02 -0.46939310184E+01  0.18726438775E+02  0.00000000000E+00 0.  1.
         11    1    3    3    0    0 -0.36130871456E+01  0.69007756330E+01 -0.45207502830E+01  0.90062359751E+01  0.51100000000E-03 0. -1.
        -11    1    3    3    0    0  0.11365793729E+02 -0.53044347093E+01 -0.22218149517E+02  0.25514005230E+02  0.51100000000E-03 0.  1.
         12    1    3    3    0    0 -0.15053360542E+02  0.14997241346E+02  0.31432830818E+02  0.37941320020E+02  0.00000000000E+00 0. -1.
</event>
<event>
 7    1  0.3508738E-013  0.7246159E+02  0.7816164E-02  0.1226708E+00
        -11   -1    0    0    0    0  0.00000000000E+00  0.00000000000E+00  0.45593999997E+02  0.45594000000E+02  0.51100000000E-03 0. -1.
         11   -1    0    0    0    0 -0.00000000000E+00 -0.00000000000E+00 -0.45593999997E+02  0.45594000000E+02  0.51100000000E-03 0.  1.
    9900012    2    1    2    0    0  0.16226486858E+02 -0.94923833226E+00 -0.92993838148E+01  0.72461589012E+02  0.70000024383E+02 0.  0.
        -12    1    1    2    0    0 -0.16226486858E+02  0.94923833226E+00  0.92993838148E+01  0.18726410988E+02  0.00000000000E+00 0.  1.
         11    1    3    3    0    0  0.35137737768E+00 -0.99486366357E+01  0.14611035544E+02  0.17679965976E+02  0.51100000000E-03 0. -1.
        -11    1    3    3    0    0 -0.56540716689E+01 -0.12513200748E+02  0.31141012510E+01  0.14079998092E+02  0.51100000000E-03 0.  1.
        -12    1    3    3    0    0  0.21529181149E+02  0.21512599052E+02 -0.27024520610E+02  0.40701624944E+02  0.00000000000E+00 0.  1.
</event>
<event>
 7    1  0.3508738E-013  0.7246157E+02  0.7816164E-02  0.1226708E+00
        -11   -1    0    0    0    0  0.00000000000E+00  0.00000000000E+00  0.45593999997E+02  0.45594000000E+02  0.51100000000E-03 0.  1.
         11   -1    0    0    0    0 -0.00000000000E+00 -0.00000000000E+00 -0.45593999997E+02  0.45594000000E+02  0.51100000000E-03 0. -1.
    9900012    2    1    2    0    0  0.16481520983E+02 -0.86918775316E+01  0.18681598099E+01  0.72461567077E+02  0.69999995809E+02 0.  0.
        -12    1    1    2    0    0 -0.16481520983E+02  0.86918775316E+01 -0.18681598099E+01  0.18726432923E+02  0.00000000000E+00 0.  1.
         11    1    3    3    0    0  0.30043537267E+01  0.10755904373E+01 -0.12930003568E+02  0.13317958877E+02  0.51100000000E-03 0. -1.
        -11    1    3    3    0    0 -0.19340203656E+02 -0.13971865475E+02  0.92835521062E+01  0.25601578902E+02  0.51100000000E-03 0.  1.
         12    1    3    3    0    0  0.32817370912E+02  0.42043975057E+01  0.55146112720E+01  0.33542029299E+02  0.00000000000E+00 0. -1.
</event>
<event>
 7    1  0.3508738E-013  0.7246149E+02  0.7816164E-02  0.1226708E+00
        -11   -1    0    0    0    0  0.00000000000E+00  0.00000000000E+00  0.45593999997E+02  0.45594000000E+02  0.51100000000E-03 0.  1.
         11   -1    0    0    0    0 -0.00000000000E+00 -0.00000000000E+00 -0.45593999997E+02  0.45594000000E+02  0.51100000000E-03 0. -1.
    9900012    2    1    2    0    0  0.14524278471E+02  0.38562578200E+01 -0.11173938064E+02  0.72461487209E+02  0.69999891765E+02 0.  0.
        -12    1    1    2    0    0 -0.14524278471E+02 -0.38562578200E+01  0.11173938064E+02  0.18726512791E+02  0.00000000000E+00 0.  1.
         11    1    3    3    0    0  0.18763716360E+02 -0.23139936123E+02 -0.38629231382E+01  0.30040903296E+02  0.51100000000E-03 0. -1.
        -11    1    3    3    0    0  0.12598047663E+02  0.40061078601E+01 -0.34614928775E+01  0.13665344427E+02  0.51100000000E-03 0.  1.
        -12    1    3    3    0    0 -0.16837485553E+02  0.22990086083E+02 -0.38495220484E+01  0.28755239485E+02  0.00000000000E+00 0.  1.
</event>
<event>
 7    1  0.3508738E-013  0.7246159E+02  0.7816164E-02  0.1226708E+00
        -11   -1    0    0    0    0  0.00000000000E+00  0.00000000000E+00  0.45593999997E+02  0.45594000000E+02  0.51100000000E-03 0. -1.
         11   -1    0    0    0    0 -0.00000000000E+00 -0.00000000000E+00 -0.45593999997E+02  0.45594000000E+02  0.51100000000E-03 0.  1.
    9900012    2    1    2    0    0 -0.28173076821E+01  0.12888186384E+02  0.13290439165E+02  0.72461592335E+02  0.70000028712E+02 0.  0.
        -12    1    1    2    0    0  0.28173076821E+01 -0.12888186384E+02 -0.13290439165E+02  0.18726407665E+02  0.00000000000E+00 0.  1.
         11    1    3    3    0    0  0.10957211604E+02 -0.23075978839E+02  0.88483229950E+01  0.27034313485E+02  0.51100000000E-03 0. -1.
        -11    1    3    3    0    0  0.52827491758E+01  0.44623646363E+01  0.51183824942E+01  0.86033700734E+01  0.51100000000E-03 0.  1.
        -12    1    3    3    0    0 -0.19057268462E+02  0.31501800587E+02 -0.67626632441E+00  0.36823908777E+02  0.00000000000E+00 0.  1.
</event>
<event>
 7    1  0.3508738E-013  0.7246106E+02  0.7816164E-02  0.1226709E+00
        -11   -1    0    0    0    0  0.00000000000E+00  0.00000000000E+00  0.45593999997E+02  0.45594000000E+02  0.51100000000E-03 0.  1.
         11   -1    0    0    0    0 -0.00000000000E+00 -0.00000000000E+00 -0.45593999997E+02  0.45594000000E+02  0.51100000000E-03 0. -1.
    9900012    2    1    2    0    0 -0.41064925096E+01 -0.92529299691E+01 -0.15754943053E+02  0.72461061533E+02  0.69999337240E+02 0.  0.
        -12    1    1    2    0    0  0.41064925096E+01  0.92529299691E+01  0.15754943053E+02  0.18726938467E+02  0.00000000000E+00 0.  1.
         11    1    3    3    0    0 -0.95692067575E+01 -0.18819437215E+01  0.55306839049E+01  0.11211596445E+02  0.51100000000E-03 0. -1.
        -11    1    3    3    0    0 -0.25387268879E+02 -0.41147717768E+01 -0.49527162400E+01  0.26191108535E+02  0.51100000000E-03 0.  1.
         12    1    3    3    0    0  0.30849983127E+02 -0.32562144709E+01 -0.16332910718E+02  0.35058356552E+02  0.00000000000E+00 0. -1.
</event>
<event>
 7    1  0.3508738E-013  0.7246153E+02  0.7816164E-02  0.1226708E+00
        -11   -1    0    0    0    0  0.00000000000E+00  0.00000000000E+00  0.45593999997E+02  0.45594000000E+02  0.51100000000E-03 0.  1.
         11   -1    0    0    0    0 -0.00000000000E+00 -0.00000000000E+00 -0.45593999997E+02  0.45594000000E+02  0.51100000000E-03 0. -1.
    9900012    2    1    2    0    0  0.17723416780E+02  0.24832380023E+00 -0.60414855185E+01  0.72461529047E+02  0.69999946268E+02 0.  0.
        -12    1    1    2    0    0 -0.17723416780E+02 -0.24832380023E+00  0.60414855185E+01  0.18726470953E+02  0.00000000000E+00 0.  1.
         11    1    3    3    0    0  0.19037564820E+02  0.12480820118E+02  0.10293610120E+02  0.24983157420E+02  0.51100000000E-03 0. -1.
        -11    1    3    3    0    0 -0.11883023963E+02  0.17346367808E+00  0.10647160659E+02  0.15956139211E+02  0.51100000000E-03 0.  1.
         12    1    3    3    0    0  0.10568875923E+02 -0.12405959995E+02 -0.26982256297E+02  0.31522232417E+02  0.00000000000E+00 0. -1.
</event>
<event>
 7    1  0.3508738E-013  0.7246161E+02  0.7816164E-02  0.1226708E+00
        -11   -1    0    0    0    0  0.00000000000E+00  0.00000000000E+00  0.45593999997E+02  0.45594000000E+02  0.51100000000E-03 0.  1.
         11   -1    0    0    0    0 -0.00000000000E+00 -0.00000000000E+00 -0.45593999997E+02  0.45594000000E+02  0.51100000000E-03 0. -1.
    9900012    2    1    2    0    0 -0.13160577872E+02 -0.27866005376E+01 -0.13027339619E+02  0.72461614069E+02  0.70000057025E+02 0.  0.
        -12    1    1    2    0    0  0.13160577872E+02  0.27866005376E+01  0.13027339619E+02  0.18726385931E+02  0.00000000000E+00 0.  1.
         11    1    3    3    0    0  0.16143591765E+02  0.37337989169E+01 -0.17261261931E+02  0.23927138841E+02  0.51100000000E-03 0. -1.
        -11    1    3    3    0    0 -0.62467427325E+01  0.91730010499E+01 -0.11933213422E+02  0.16296236555E+02  0.51100000000E-03 0.  1.
        -12    1    3    3    0    0 -0.23057426905E+02 -0.15693400505E+02  0.16167135734E+02  0.32238238673E+02  0.00000000000E+00 0.  1.
</event>
<event>
 7    1  0.3508738E-013  0.7246160E+02  0.7816164E-02  0.1226708E+00
        -11   -1    0    0    0    0  0.00000000000E+00  0.00000000000E+00  0.45593999997E+02  0.45594000000E+02  0.51100000000E-03 0.  1.
         11   -1    0    0    0    0 -0.00000000000E+00 -0.00000000000E+00 -0.45593999997E+02  0.45594000000E+02  0.51100000000E-03 0. -1.
    9900012    2    1    2    0    0  0.71775910740E+01 -0.56425722913E+01 -0.16349970087E+02  0.72461602655E+02  0.70000042156E+02 0.  0.
        -12    1    1    2    0    0 -0.71775910740E+01  0.56425722913E+01  0.16349970087E+02  0.18726397345E+02  0.00000000000E+00 0.  1.
         11    1    3    3    0    0 -0.37504457549E+01 -0.66311043737E+01 -0.20405475695E+02  0.21781203529E+02  0.51100000000E-03 0. -1.
        -11    1    3    3    0    0  0.42873017420E+01  0.19573036322E+02 -0.13586642364E+02  0.24209121382E+02  0.51100000000E-03 0.  1.
        -12    1    3    3    0    0  0.66407350869E+01 -0.18584504239E+02  0.17642147973E+02  0.26471277744E+02  0.00000000000E+00 0.  1.
</event>
<event>
 7    1  0.3508738E-013  0.7246160E+02  0.7816164E-02  0.1226708E+00
        -11   -1    0    0    0    0  0.00000000000E+00  0.00000000000E+00  0.45593999997E+02  0.45594000000E+02  0.51100000000E-03 0. -1.
         11   -1    0    0    0    0 -0.00000000000E+00 -0.00000000000E+00 -0.45593999997E+02  0.45594000000E+02  0.51100000000E-03 0.  1.
    9900012    2    1    2    0    0  0.11210412445E+01 -0.12241583238E+02  0.14126747457E+02  0.72461599188E+02  0.70000037640E+02 0.  0.
        -12    1    1    2    0    0 -0.11210412445E+01  0.12241583238E+02 -0.14126747457E+02  0.18726400812E+02  0.00000000000E+00 0.  1.
         11    1    3    3    0    0  0.27306805505E+01  0.67477382627E+01 -0.59592600996E+01  0.94075166291E+01  0.51100000000E-03 0. -1.
        -11    1    3    3    0    0 -0.12835402595E+02 -0.25081335796E+02 -0.10374520644E+02  0.30024184317E+02  0.51100000000E-03 0.  1.
         12    1    3    3    0    0  0.11225763289E+02  0.60920142954E+01  0.30460528201E+02  0.33029898242E+02  0.00000000000E+00 0. -1.
</event>
<event>
 7    1  0.3508738E-013  0.7246158E+02  0.7816164E-02  0.1226708E+00
        -11   -1    0    0    0    0  0.00000000000E+00  0.00000000000E+00  0.45593999997E+02  0.45594000000E+02  0.51100000000E-03 0.  1.
         11   -1    0    0    0    0 -0.00000000000E+00 -0.00000000000E+00 -0.45593999997E+02  0.45594000000E+02  0.51100000000E-03 0. -1.
    9900012    2    1    2    0    0  0.16350885310E+02 -0.88721966318E+01  0.21474573866E+01  0.72461577578E+02  0.70000009489E+02 0.  0.
        -12    1    1    2    0    0 -0.16350885310E+02  0.88721966318E+01 -0.21474573866E+01  0.18726422422E+02  0.00000000000E+00 0.  1.
         11    1    3    3    0    0  0.57460527705E+01  0.98961097757E+01 -0.15897414671E+02  0.19587697788E+02  0.51100000000E-03 0. -1.
        -11    1    3    3    0    0  0.94159788636E+01  0.11442991645E+02  0.17095500454E+02  0.22624297818E+02  0.51100000000E-03 0.  1.
         12    1    3    3    0    0  0.11888536758E+01 -0.30211298052E+02  0.94937160350E+00  0.30249581972E+02  0.00000000000E+00 0. -1.
</event>
<event>
 7    1  0.3508738E-013  0.7246162E+02  0.7816164E-02  0.1226708E+00
        -11   -1    0    0    0    0  0.00000000000E+00  0.00000000000E+00  0.45593999997E+02  0.45594000000E+02  0.51100000000E-03 0.  1.
         11   -1    0    0    0    0 -0.00000000000E+00 -0.00000000000E+00 -0.45593999997E+02  0.45594000000E+02  0.51100000000E-03 0. -1.
    9900012    2    1    2    0    0 -0.75853238819E+01 -0.16888615302E+02  0.28133457696E+01  0.72461618085E+02  0.70000062256E+02 0.  0.
        -12    1    1    2    0    0  0.75853238819E+01  0.16888615302E+02 -0.28133457696E+01  0.18726381915E+02  0.00000000000E+00 0.  1.
         11    1    3    3    0    0  0.61549606617E+01 -0.21595394203E+01  0.42804810867E+01  0.78019016816E+01  0.51100000000E-03 0.  1.
        -11    1    3    3    0    0 -0.25738596456E+02 -0.22474293045E+02  0.19461202862E+02  0.39323118041E+02  0.51100000000E-03 0. -1.
         12    1    3    3    0    0  0.11998311912E+02  0.77452171634E+01 -0.20928338179E+02  0.25336598362E+02  0.00000000000E+00 0. -1.
</event>
<event>
 7    1  0.3508738E-013  0.7246153E+02  0.7816164E-02  0.1226708E+00
        -11   -1    0    0    0    0  0.00000000000E+00  0.00000000000E+00  0.45593999997E+02  0.45594000000E+02  0.51100000000E-03 0. -1.
         11   -1    0    0    0    0 -0.00000000000E+00 -0.00000000000E+00 -0.45593999997E+02  0.45594000000E+02  0.51100000000E-03 0.  1.
    9900012    2    1    2    0    0 -0.85619667812E+01  0.56491582589E+01  0.15667177562E+02  0.72461528978E+02  0.69999946178E+02 0.  0.
        -12    1    1    2    0    0  0.85619667812E+01 -0.56491582589E+01 -0.15667177562E+02  0.18726471022E+02  0.00000000000E+00 0.  1.
         11    1    3    3    0    0 -0.14789560338E+02 -0.20002263477E+02  0.10083873445E+02  0.26842245493E+02  0.51100000000E-03 0. -1.
        -11    1    3    3    0    0 -0.12605887276E+02  0.36173614383E+01 -0.59775523435E+01  0.14412662144E+02  0.51100000000E-03 0.  1.
        -12    1    3    3    0    0  0.18833480832E+02  0.22034060298E+02  0.11560856460E+02  0.31206621341E+02  0.00000000000E+00 0.  1.
</event>
<event>
 7    1  0.3508738E-013  0.7246164E+02  0.7816164E-02  0.1226708E+00
        -11   -1    0    0    0    0  0.00000000000E+00  0.00000000000E+00  0.45593999997E+02  0.45594000000E+02  0.51100000000E-03 0.  1.
         11   -1    0    0    0    0 -0.00000000000E+00 -0.00000000000E+00 -0.45593999997E+02  0.45594000000E+02  0.51100000000E-03 0. -1.
    9900012    2    1    2    0    0 -0.29450830080E+01  0.11803714514E+02 -0.14236411231E+02  0.72461639035E+02  0.70000089548E+02 0.  0.
        -12    1    1    2    0    0  0.29450830080E+01 -0.11803714514E+02  0.14236411231E+02  0.18726360965E+02  0.00000000000E+00 0.  1.
         11    1    3    3    0    0 -0.50926446243E+01 -0.92709720547E+01 -0.15547998291E+01  0.10691274708E+02  0.51100000000E-03 0. -1.
        -11    1    3    3    0    0  0.14692397593E+02 -0.69147116806E+01  0.13752310768E+02  0.21279234863E+02  0.51100000000E-03 0.  1.
         12    1    3    3    0    0 -0.12544835977E+02  0.27989398249E+02 -0.26433922169E+02  0.40491129464E+02  0.00000000000E+00 0. -1.
</event>
<event>
 7    1  0.3508738E-013  0.7246148E+02  0.7816164E-02  0.1226708E+00
        -11   -1    0    0    0    0  0.00000000000E+00  0.00000000000E+00  0.45593999997E+02  0.45594000000E+02  0.51100000000E-03 0.  1.
         11   -1    0    0    0    0 -0.00000000000E+00 -0.00000000000E+00 -0.45593999997E+02  0.45594000000E+02  0.51100000000E-03 0. -1.
    9900012    2    1    2    0    0 -0.90162335672E+01  0.13173074662E+02 -0.97908251232E+01  0.72461478156E+02  0.69999879972E+02 0.  0.
        -12    1    1    2    0    0  0.90162335672E+01 -0.13173074662E+02  0.97908251232E+01  0.18726521844E+02  0.00000000000E+00 0.  1.
         11    1    3    3    0    0  0.18887527806E+01 -0.24728476133E+01 -0.38176658766E+01  0.49251330328E+01  0.51100000000E-03 0. -1.
        -11    1    3    3    0    0  0.21502534770E+02  0.20278727303E+02 -0.15589982166E+02  0.33416063903E+02  0.51100000000E-03 0.  1.
         12    1    3    3    0    0 -0.32407521118E+02 -0.46328050275E+01  0.96168229193E+01  0.34120281220E+02  0.00000000000E+00 0. -1.
</event>
<event>
 7    1  0.3508738E-013  0.7246148E+02  0.7816164E-02  0.1226708E+00
        -11   -1    0    0    0    0  0.00000000000E+00  0.00000000000E+00  0.45593999997E+02  0.45594000000E+02  0.51100000000E-03 0. -1.
         11   -1    0    0    0    0 -0.00000000000E+00 -0.00000000000E+00 -0.45593999997E+02  0.45594000000E+02  0.51100000000E-03 0.  1.
    9900012    2    1    2    0    0 -0.17933362425E+02 -0.30172320917E+01  0.44691735516E+01  0.72461476308E+02  0.69999877565E+02 0.  0.
        -12    1    1    2    0    0  0.17933362425E+02  0.30172320917E+01 -0.44691735516E+01  0.18726523692E+02  0.00000000000E+00 0.  1.
         11    1    3    3    0    0 -0.31935569033E+01  0.89424562539E+01  0.56838507434E+01  0.11066728924E+02  0.51100000000E-03 0. -1.
        -11    1    3    3    0    0  0.14679450644E+02  0.15025686434E+02 -0.39722592529E+01  0.21378408918E+02  0.51100000000E-03 0.  1.
         12    1    3    3    0    0 -0.29419256166E+02 -0.26985374780E+02  0.27575820610E+01  0.40016338465E+02  0.00000000000E+00 0. -1.
</event>
<event>
 7    1  0.3508738E-013  0.7246159E+02  0.7816164E-02  0.1226708E+00
        -11   -1    0    0    0    0  0.00000000000E+00  0.00000000000E+00  0.45593999997E+02  0.45594000000E+02  0.51100000000E-03 0.  1.
         11   -1    0    0    0    0 -0.00000000000E+00 -0.00000000000E+00 -0.45593999997E+02  0.45594000000E+02  0.51100000000E-03 0. -1.
    9900012    2    1    2    0    0 -0.15194995505E+02  0.10908400639E+02  0.89303068506E+00  0.72461585589E+02  0.70000019924E+02 0.  0.
        -12    1    1    2    0    0  0.15194995505E+02 -0.10908400639E+02 -0.89303068506E+00  0.18726414411E+02  0.00000000000E+00 0.  1.
         11    1    3    3    0    0  0.25238539532E+01  0.12410041826E+02  0.61125677726E+00  0.12678825340E+02  0.51100000000E-03 0. -1.
        -11    1    3    3    0    0 -0.40210475575E+01  0.10023908412E+02 -0.25902469716E+02  0.28063953766E+02  0.51100000000E-03 0.  1.
        -12    1    3    3    0    0 -0.13697801901E+02 -0.11525549599E+02  0.26184243624E+02  0.31718806482E+02  0.00000000000E+00 0.  1.
</event>
<event>
 7    1  0.3508738E-013  0.7246161E+02  0.7816164E-02  0.1226708E+00
        -11   -1    0    0    0    0  0.00000000000E+00  0.00000000000E+00  0.45593999997E+02  0.45594000000E+02  0.51100000000E-03 0. -1.
         11   -1    0    0    0    0 -0.00000000000E+00 -0.00000000000E+00 -0.45593999997E+02  0.45594000000E+02  0.51100000000E-03 0.  1.
    9900012    2    1    2    0    0  0.12152295569E+02 -0.10530073152E+02  0.95977669697E+01  0.72461605286E+02  0.70000045583E+02 0.  0.
        -12    1    1    2    0    0 -0.12152295569E+02  0.10530073152E+02 -0.95977669697E+01  0.18726394714E+02  0.00000000000E+00 0.  1.
         11    1    3    3    0    0  0.95576640040E+01 -0.21608127984E+01 -0.29691897880E+01  0.10238854497E+02  0.51100000000E-03 0. -1.
        -11    1    3    3    0    0 -0.19313558982E+02 -0.11894595071E+02 -0.14728997993E+02  0.27045116650E+02  0.51100000000E-03 0.  1.
         12    1    3    3    0    0  0.21908190547E+02  0.35253347175E+01  0.27295954750E+02  0.35177634139E+02  0.00000000000E+00 0. -1.
</event>
<event>
 7    1  0.3508738E-013  0.7246156E+02  0.7816164E-02  0.1226708E+00
        -11   -1    0    0    0    0  0.00000000000E+00  0.00000000000E+00  0.45593999997E+02  0.45594000000E+02  0.51100000000E-03 0.  1.
         11   -1    0    0    0    0 -0.00000000000E+00 -0.00000000000E+00 -0.45593999997E+02  0.45594000000E+02  0.51100000000E-03 0. -1.
    9900012    2    1    2    0    0  0.63580409584E+01  0.17380957868E+02 -0.28560868189E+01  0.72461558449E+02  0.69999984570E+02 0.  0.
        -12    1    1    2    0    0 -0.63580409584E+01 -0.17380957868E+02  0.28560868189E+01  0.18726441551E+02  0.00000000000E+00 0.  1.
         11    1    3    3    0    0 -0.95275071441E+01 -0.20626375792E+01  0.40471154192E+01  0.10554951901E+02  0.51100000000E-03 0. -1.
        -11    1    3    3    0    0 -0.23202905381E+01 -0.17321351951E+02  0.66523097859E+01  0.18699363821E+02  0.51100000000E-03 0.  1.
         12    1    3    3    0    0  0.18205838641E+02  0.36764947398E+02 -0.13555512024E+02  0.43207242726E+02  0.00000000000E+00 0. -1.
</event>
<event>
 7    1  0.3508738E-013  0.7246159E+02  0.7816164E-02  0.1226708E+00
        -11   -1    0    0    0    0  0.00000000000E+00  0.00000000000E+00  0.45593999997E+02  0.45594000000E+02  0.51100000000E-03 0.  1.
         11   -1    0    0    0    0 -0.00000000000E+00 -0.00000000000E+00 -0.45593999997E+02  0.45594000000E+02  0.51100000000E-03 0. -1.
    9900012    2    1    2    0    0  0.86593666113E+01 -0.16601417582E+02 -0.29468796381E+00  0.72461587187E+02  0.70000022006E+02 0.  0.
        -12    1    1    2    0    0 -0.86593666113E+01  0.16601417582E+02  0.29468796381E+00  0.18726412813E+02  0.00000000000E+00 0.  1.
         11    1    3    3    0    0  0.92992410897E+01 -0.60807139652E+01 -0.26402577300E+01  0.11420242043E+02  0.51100000000E-03 0. -1.
        -11    1    3    3    0    0  0.26073472574E+02 -0.13646461585E+02  0.12922187147E+02  0.32140858837E+02  0.51100000000E-03 0.  1.
         12    1    3    3    0    0 -0.26713347052E+02  0.31257579683E+01 -0.10576617380E+02  0.28900486308E+02  0.00000000000E+00 0. -1.
</event>
<event>
 7    1  0.3508738E-013  0.7246156E+02  0.7816164E-02  0.1226708E+00
        -11   -1    0    0    0    0  0.00000000000E+00  0.00000000000E+00  0.45593999997E+02  0.45594000000E+02  0.51100000000E-03 0.  1.
         11   -1    0    0    0    0 -0.00000000000E+00 -0.00000000000E+00 -0.45593999997E+02  0.45594000000E+02  0.51100000000E-03 0. -1.
    9900012    2    1    2    0    0 -0.99547108109E+01  0.78593207499E+01 -0.13777307941E+02  0.72461564032E+02  0.69999991842E+02 0.  0.
        -12    1    1    2    0    0  0.99547108109E+01 -0.78593207499E+01  0.13777307941E+02  0.18726435968E+02  0.00000000000E+00 0.  1.
         11    1    3    3    0    0 -0.17508631524E+02  0.22798505688E+02 -0.10503900330E+02  0.30604835596E+02  0.51100000000E-03 0. -1.
        -11    1    3    3    0    0 -0.71985193620E+01  0.73183729678E+01  0.78570784671E+01  0.12927139908E+02  0.51100000000E-03 0.  1.
         12    1    3    3    0    0  0.14752440075E+02 -0.22257557905E+02 -0.11130486078E+02  0.28929588528E+02  0.00000000000E+00 0. -1.
</event>
<event>
 7    1  0.3508738E-013  0.7246149E+02  0.7816164E-02  0.1226708E+00
        -11   -1    0    0    0    0  0.00000000000E+00  0.00000000000E+00  0.45593999997E+02  0.45594000000E+02  0.51100000000E-03 0.  1.
         11   -1    0    0    0    0 -0.00000000000E+00 -0.00000000000E+00 -0.45593999997E+02  0.45594000000E+02  0.51100000000E-03 0. -1.
    9900012    2    1    2    0    0  0.15164827954E+02 -0.91789227903E+01  0.60380084190E+01  0.72461490017E+02  0.69999895424E+02 0.  0.
        -12    1    1    2    0    0 -0.15164827954E+02  0.91789227903E+01 -0.60380084190E+01  0.18726509983E+02  0.00000000000E+00 0.  1.
         11    1    3    3    0    0  0.38909785888E+01 -0.14995714481E+02 -0.12589118505E+02  0.19962391444E+02  0.51100000000E-03 0. -1.
        -11    1    3    3    0    0 -0.18156809788E+02  0.67892374097E+01  0.10014768704E+02  0.21818778122E+02  0.51100000000E-03 0.  1.
         12    1    3    3    0    0  0.29430659153E+02 -0.97244571943E+00  0.86123582200E+01  0.30680320451E+02  0.00000000000E+00 0. -1.
</event>
<event>
 7    1  0.3508738E-013  0.7246174E+02  0.7816164E-02  0.1226708E+00
        -11   -1    0    0    0    0  0.00000000000E+00  0.00000000000E+00  0.45593999997E+02  0.45594000000E+02  0.51100000000E-03 0.  1.
         11   -1    0    0    0    0 -0.00000000000E+00 -0.00000000000E+00 -0.45593999997E+02  0.45594000000E+02  0.51100000000E-03 0. -1.
    9900012    2    1    2    0    0 -0.13687722974E+02 -0.12057918942E+02 -0.42338625033E+01  0.72461741400E+02  0.70000222897E+02 0.  0.
        -12    1    1    2    0    0  0.13687722974E+02  0.12057918942E+02  0.42338625033E+01  0.18726258600E+02  0.00000000000E+00 0.  1.
         11    1    3    3    0    0  0.18922122763E+01 -0.81609062776E+01 -0.22618649725E+01  0.86773781746E+01  0.51100000000E-03 0. -1.
        -11    1    3    3    0    0  0.21259866315E+02 -0.12029700216E+02 -0.77287538135E+01  0.25620875059E+02  0.51100000000E-03 0.  1.
         12    1    3    3    0    0 -0.36839801565E+02  0.81326875518E+01  0.57567562827E+01  0.38163488167E+02  0.00000000000E+00 0. -1.
</event>
<event>
 7    1  0.3508738E-013  0.7246157E+02  0.7816164E-02  0.1226708E+00
        -11   -1    0    0    0    0  0.00000000000E+00  0.00000000000E+00  0.45593999997E+02  0.45594000000E+02  0.51100000000E-03 0. -1.
         11   -1    0    0    0    0 -0.00000000000E+00 -0.00000000000E+00 -0.45593999997E+02  0.45594000000E+02  0.51100000000E-03 0.  1.
    9900012    2    1    2    0    0  0.22240480249E+01  0.18567109676E+02 -0.99755423015E+00  0.72461573064E+02  0.70000003608E+02 0.  0.
        -12    1    1    2    0    0 -0.22240480249E+01 -0.18567109676E+02  0.99755423015E+00  0.18726426936E+02  0.00000000000E+00 0.  1.
         11    1    3    3    0    0 -0.13968692362E+01  0.73537236632E+01  0.11949867368E+02  0.14100632105E+02  0.51100000000E-03 0. -1.
        -11    1    3    3    0    0  0.14204018287E+02  0.21692309196E+02  0.12570033764E+02  0.28815207146E+02  0.51100000000E-03 0.  1.
        -12    1    3    3    0    0 -0.10583101026E+02 -0.10478923183E+02 -0.25517455363E+02  0.29545733814E+02  0.00000000000E+00 0.  1.
</event>
<event>
 7    1  0.3508738E-013  0.7246157E+02  0.7816164E-02  0.1226708E+00
        -11   -1    0    0    0    0  0.00000000000E+00  0.00000000000E+00  0.45593999997E+02  0.45594000000E+02  0.51100000000E-03 0.  1.
         11   -1    0    0    0    0 -0.00000000000E+00 -0.00000000000E+00 -0.45593999997E+02  0.45594000000E+02  0.51100000000E-03 0. -1.
    9900012    2    1    2    0    0  0.12087182241E+02 -0.11588091483E+02 -0.83842213955E+01  0.72461574630E+02  0.70000005648E+02 0.  0.
        -12    1    1    2    0    0 -0.12087182241E+02  0.11588091483E+02  0.83842213955E+01  0.18726425370E+02  0.00000000000E+00 0.  1.
         11    1    3    3    0    0  0.20605694158E+02 -0.18930746920E+02 -0.10332451236E+02  0.29828297965E+02  0.51100000000E-03 0. -1.
        -11    1    3    3    0    0 -0.11613368336E+02 -0.15445865921E+02 -0.14805732402E+01  0.19381362066E+02  0.51100000000E-03 0.  1.
        -12    1    3    3    0    0  0.30948564191E+01  0.22788521359E+02  0.34288030802E+01  0.23251914599E+02  0.00000000000E+00 0.  1.
</event>
<event>
 7    1  0.3508738E-013  0.7246160E+02  0.7816164E-02  0.1226708E+00
        -11   -1    0    0    0    0  0.00000000000E+00  0.00000000000E+00  0.45593999997E+02  0.45594000000E+02  0.51100000000E-03 0.  1.
         11   -1    0    0    0    0 -0.00000000000E+00 -0.00000000000E+00 -0.45593999997E+02  0.45594000000E+02  0.51100000000E-03 0. -1.
    9900012    2    1    2    0    0  0.45335110950E+01  0.10686393913E+02 -0.14694433617E+02  0.72461598396E+02  0.70000036608E+02 0.  0.
        -12    1    1    2    0    0 -0.45335110950E+01 -0.10686393913E+02  0.14694433617E+02  0.18726401604E+02  0.00000000000E+00 0.  1.
         11    1    3    3    0    0 -0.13433904871E+02  0.79798113156E+01 -0.30520354580E+02  0.34287595901E+02  0.51100000000E-03 0. -1.
        -11    1    3    3    0    0  0.23011151394E+01 -0.89519181535E+01 -0.42444501647E+01  0.10170905907E+02  0.51100000000E-03 0.  1.
        -12    1    3    3    0    0  0.15666300826E+02  0.11658500750E+02  0.20070371127E+02  0.28003096588E+02  0.00000000000E+00 0.  1.
</event>
<event>
 7    1  0.5179892E-013  0.7246150E+02  0.7816164E-02  0.1226708E+00
        -11   -1    0    0    0    0  0.00000000000E+00  0.00000000000E+00  0.45593999997E+02  0.45594000000E+02  0.51100000000E-03 0.  1.
         11   -1    0    0    0    0 -0.00000000000E+00 -0.00000000000E+00 -0.45593999997E+02  0.45594000000E+02  0.51100000000E-03 0. -1.
    9900012    2    1    2    0    0 -0.79796963405E+01  0.79175670951E+01 -0.14977266199E+02  0.72461496717E+02  0.69999904152E+02 0.  0.
        -12    1    1    2    0    0  0.79796963405E+01 -0.79175670951E+01  0.14977266199E+02  0.18726503283E+02  0.00000000000E+00 0.  1.
         11    1    3    3    0    0  0.76073260437E+01  0.22291463437E+02 -0.18967718999E+02  0.30241612324E+02  0.51100000000E-03 0. -1.
        -11    1    3    3    0    0 -0.20723293345E+02 -0.73621829566E+01 -0.11229270149E+02  0.24693179894E+02  0.51100000000E-03 0.  1.
        -12    1    3    3    0    0  0.51362709607E+01 -0.70117133848E+01  0.15219722948E+02  0.17526704499E+02  0.00000000000E+00 0.  1.
</event>
<event>
 7    1  0.3508738E-013  0.7246157E+02  0.7816164E-02  0.1226708E+00
        -11   -1    0    0    0    0  0.00000000000E+00  0.00000000000E+00  0.45593999997E+02  0.45594000000E+02  0.51100000000E-03 0.  1.
         11   -1    0    0    0    0 -0.00000000000E+00 -0.00000000000E+00 -0.45593999997E+02  0.45594000000E+02  0.51100000000E-03 0. -1.
    9900012    2    1    2    0    0  0.18629456010E+02  0.19031923900E+01 -0.24048543262E-01  0.72461565454E+02  0.69999993694E+02 0.  0.
        -12    1    1    2    0    0 -0.18629456010E+02 -0.19031923900E+01  0.24048543262E-01  0.18726434546E+02  0.00000000000E+00 0.  1.
         11    1    3    3    0    0  0.22310719486E+02  0.36376413203E+01 -0.20584477283E+02  0.30573212844E+02  0.51100000000E-03 0. -1.
        -11    1    3    3    0    0 -0.95778636049E+01  0.14935180039E+02  0.15333406530E+02  0.23450126441E+02  0.51100000000E-03 0.  1.
         12    1    3    3    0    0  0.58966001282E+01 -0.16669628969E+02  0.52270222093E+01  0.18438226168E+02  0.00000000000E+00 0. -1.
</event>
<event>
 7    1  0.3508738E-013  0.7246152E+02  0.7816164E-02  0.1226708E+00
        -11   -1    0    0    0    0  0.00000000000E+00  0.00000000000E+00  0.45593999997E+02  0.45594000000E+02  0.51100000000E-03 0.  1.
         11   -1    0    0    0    0 -0.00000000000E+00 -0.00000000000E+00 -0.45593999997E+02  0.45594000000E+02  0.51100000000E-03 0. -1.
    9900012    2    1    2    0    0  0.13588216413E+02  0.76224670686E+01 -0.10389392515E+02  0.72461518581E+02  0.69999932634E+02 0.  0.
        -12    1    1    2    0    0 -0.13588216413E+02 -0.76224670686E+01  0.10389392515E+02  0.18726481419E+02  0.00000000000E+00 0.  1.
         11    1    3    3    0    0  0.25061043124E+02  0.15440804655E+02 -0.67318882715E+00  0.29443632832E+02  0.51100000000E-03 0. -1.
        -11    1    3    3    0    0  0.48200855190E+01  0.84967833925E+01  0.90288811256E+01  0.13302227147E+02  0.51100000000E-03 0.  1.
        -12    1    3    3    0    0 -0.16292912231E+02 -0.16315120979E+02 -0.18745084814E+02  0.29715658603E+02  0.00000000000E+00 0.  1.
</event>
<event>
 7    1  0.3508738E-013  0.7246164E+02  0.7816164E-02  0.1226708E+00
        -11   -1    0    0    0    0  0.00000000000E+00  0.00000000000E+00  0.45593999997E+02  0.45594000000E+02  0.51100000000E-03 0. -1.
         11   -1    0    0    0    0 -0.00000000000E+00 -0.00000000000E+00 -0.45593999997E+02  0.45594000000E+02  0.51100000000E-03 0.  1.
    9900012    2    1    2    0    0  0.14930242780E+02  0.10677263327E+02  0.37095007387E+01  0.72461641642E+02  0.70000092944E+02 0.  0.
        -12    1    1    2    0    0 -0.14930242780E+02 -0.10677263327E+02 -0.37095007387E+01  0.18726358358E+02  0.00000000000E+00 0.  1.
         11    1    3    3    0    0 -0.64950645447E+01  0.75430536818E+01  0.40312006753E+01  0.10739371557E+02  0.51100000000E-03 0. -1.
        -11    1    3    3    0    0 -0.71753519826E+01 -0.88492860503E+01 -0.21388448907E+02  0.24233474505E+02  0.51100000000E-03 0.  1.
         12    1    3    3    0    0  0.28600659307E+02  0.11983495695E+02  0.21066748971E+02  0.37488795580E+02  0.00000000000E+00 0. -1.
</event>
<event>
 7    1  0.3508738E-013  0.7246162E+02  0.7816164E-02  0.1226708E+00
        -11   -1    0    0    0    0  0.00000000000E+00  0.00000000000E+00  0.45593999997E+02  0.45594000000E+02  0.51100000000E-03 0.  1.
         11   -1    0    0    0    0 -0.00000000000E+00 -0.00000000000E+00 -0.45593999997E+02  0.45594000000E+02  0.51100000000E-03 0. -1.
    9900012    2    1    2    0    0 -0.19093748783E+01  0.18478614016E+02  0.23606297759E+01  0.72461615904E+02  0.70000059415E+02 0.  0.
        -12    1    1    2    0    0  0.19093748783E+01 -0.18478614016E+02 -0.23606297759E+01  0.18726384096E+02  0.00000000000E+00 0.  1.
         11    1    3    3    0    0  0.77401628742E+01 -0.15106372067E+02 -0.17355564940E+02  0.24276083560E+02  0.51100000000E-03 0. -1.
        -11    1    3    3    0    0 -0.96080371840E+01  0.81582634477E+01 -0.41926898404E+01  0.13283459240E+02  0.51100000000E-03 0.  1.
        -12    1    3    3    0    0 -0.41500568402E-01  0.25426722635E+02  0.23908884556E+02  0.34902073105E+02  0.00000000000E+00 0.  1.
</event>
<event>
 7    1  0.3508738E-013  0.7246154E+02  0.7816164E-02  0.1226708E+00
        -11   -1    0    0    0    0  0.00000000000E+00  0.00000000000E+00  0.45593999997E+02  0.45594000000E+02  0.51100000000E-03 0. -1.
         11   -1    0    0    0    0 -0.00000000000E+00 -0.00000000000E+00 -0.45593999997E+02  0.45594000000E+02  0.51100000000E-03 0.  1.
    9900012    2    1    2    0    0  0.97756530461E+01 -0.28302928723E+01  0.15719617040E+02  0.72461539841E+02  0.69999960329E+02 0.  0.
        -12    1    1    2    0    0 -0.97756530461E+01  0.28302928723E+01 -0.15719617040E+02  0.18726460159E+02  0.00000000000E+00 0.  1.
         11    1    3    3    0    0  0.14962736904E+02  0.21644199801E+02  0.16427550900E+02  0.31019660049E+02  0.51100000000E-03 0. -1.
        -11    1    3    3    0    0  0.50377489762E+01 -0.10171004907E+02  0.14347657033E+02  0.18294357550E+02  0.51100000000E-03 0.  1.
        -12    1    3    3    0    0 -0.10224832834E+02 -0.14303487766E+02 -0.15055590894E+02  0.23147522242E+02  0.00000000000E+00 0.  1.
</event>
<event>
 7    1  0.3508738E-013  0.7246154E+02  0.7816164E-02  0.1226708E+00
        -11   -1    0    0    0    0  0.00000000000E+00  0.00000000000E+00  0.45593999997E+02  0.45594000000E+02  0.51100000000E-03 0. -1.
         11   -1    0    0    0    0 -0.00000000000E+00 -0.00000000000E+00 -0.45593999997E+02  0.45594000000E+02  0.51100000000E-03 0.  1.
    9900012    2    1    2    0    0 -0.16434716895E+02 -0.64631816773E+01  0.62295909204E+01  0.72461536376E+02  0.69999955815E+02 0.  0.
        -12    1    1    2    0    0  0.16434716895E+02  0.64631816773E+01 -0.62295909204E+01  0.18726463624E+02  0.00000000000E+00 0.  1.
         11    1    3    3    0    0 -0.13174648166E+02 -0.17113597659E+02 -0.11142295648E+02  0.24302208371E+02  0.51100000000E-03 0. -1.
        -11    1    3    3    0    0 -0.80058906599E+00  0.11398943845E+02 -0.13211714405E+02  0.17467863676E+02  0.51100000000E-03 0.  1.
         12    1    3    3    0    0 -0.24594796631E+01 -0.74852786369E+00  0.30583600973E+02  0.30691464329E+02  0.00000000000E+00 0. -1.
</event>
<event>
 7    1  0.3508738E-013  0.7246159E+02  0.7816164E-02  0.1226708E+00
        -11   -1    0    0    0    0  0.00000000000E+00  0.00000000000E+00  0.45593999997E+02  0.45594000000E+02  0.51100000000E-03 0.  1.
         11   -1    0    0    0    0 -0.00000000000E+00 -0.00000000000E+00 -0.45593999997E+02  0.45594000000E+02  0.51100000000E-03 0. -1.
    9900012    2    1    2    0    0  0.53268307222E+00  0.13850110918E+02 -0.12592416073E+02  0.72461594412E+02  0.70000031417E+02 0.  0.
        -12    1    1    2    0    0 -0.53268307222E+00 -0.13850110918E+02  0.12592416073E+02  0.18726405588E+02  0.00000000000E+00 0.  1.
         11    1    3    3    0    0  0.43535648082E+01  0.86217780816E+01 -0.33321437153E+01  0.10217228872E+02  0.51100000000E-03 0. -1.
        -11    1    3    3    0    0 -0.22372224293E+02  0.17217364161E+02 -0.22842471602E+02  0.36314357458E+02  0.51100000000E-03 0.  1.
         12    1    3    3    0    0  0.18551342557E+02 -0.11989031324E+02  0.13582199244E+02  0.25930008081E+02  0.00000000000E+00 0. -1.
</event>
<event>
 7    1  0.3508738E-013  0.7246163E+02  0.7816164E-02  0.1226708E+00
        -11   -1    0    0    0    0  0.00000000000E+00  0.00000000000E+00  0.45593999997E+02  0.45594000000E+02  0.51100000000E-03 0.  1.
         11   -1    0    0    0    0 -0.00000000000E+00 -0.00000000000E+00 -0.45593999997E+02  0.45594000000E+02  0.51100000000E-03 0. -1.
    9900012    2    1    2    0    0 -0.19504082527E+01 -0.11373126152E+02 -0.14748723831E+02  0.72461629677E+02  0.70000077357E+02 0.  0.
        -12    1    1    2    0    0  0.19504082527E+01  0.11373126152E+02  0.14748723831E+02  0.18726370323E+02  0.00000000000E+00 0.  1.
         11    1    3    3    0    0 -0.33041134293E+01 -0.62954330446E+01 -0.31033647863E+01  0.77576102010E+01  0.51100000000E-03 0. -1.
        -11    1    3    3    0    0 -0.28273391019E+02  0.15829873688E+01  0.68684235349E+01  0.29138732485E+02  0.51100000000E-03 0.  1.
         12    1    3    3    0    0  0.29627096195E+02 -0.66606804761E+01 -0.18513782580E+02  0.35565286991E+02  0.00000000000E+00 0. -1.
</event>
<event>
 7    1  0.3508738E-013  0.7246150E+02  0.7816164E-02  0.1226708E+00
        -11   -1    0    0    0    0  0.00000000000E+00  0.00000000000E+00  0.45593999997E+02  0.45594000000E+02  0.51100000000E-03 0.  1.
         11   -1    0    0    0    0 -0.00000000000E+00 -0.00000000000E+00 -0.45593999997E+02  0.45594000000E+02  0.51100000000E-03 0. -1.
    9900012    2    1    2    0    0 -0.11080289309E+02 -0.11721681695E+02  0.95137291484E+01  0.72461503392E+02  0.69999912847E+02 0.  0.
        -12    1    1    2    0    0  0.11080289309E+02  0.11721681695E+02 -0.95137291484E+01  0.18726496608E+02  0.00000000000E+00 0.  1.
         11    1    3    3    0    0  0.17987876666E+02 -0.30028857069E+01 -0.66431466976E+01  0.19409081066E+02  0.51100000000E-03 0. -1.
        -11    1    3    3    0    0  0.90905858217E+01  0.23161461749E+01  0.83739850866E+01  0.12574852292E+02  0.51100000000E-03 0.  1.
        -12    1    3    3    0    0 -0.38158751797E+02 -0.11034942163E+02  0.77828907594E+01  0.40477570033E+02  0.00000000000E+00 0.  1.
</event>
<event>
 7    1  0.3508738E-013  0.7246157E+02  0.7816164E-02  0.1226708E+00
        -11   -1    0    0    0    0  0.00000000000E+00  0.00000000000E+00  0.45593999997E+02  0.45594000000E+02  0.51100000000E-03 0. -1.
         11   -1    0    0    0    0 -0.00000000000E+00 -0.00000000000E+00 -0.45593999997E+02  0.45594000000E+02  0.51100000000E-03 0.  1.
    9900012    2    1    2    0    0  0.61461545947E+01  0.86092829542E+00  0.17668126724E+02  0.72461571729E+02  0.70000001870E+02 0.  0.
        -12    1    1    2    0    0 -0.61461545947E+01 -0.86092829542E+00 -0.17668126724E+02  0.18726428271E+02  0.00000000000E+00 0.  1.
         11    1    3    3    0    0  0.70641305548E+01 -0.48995808880E+01 -0.10837398240E+02  0.13833185976E+02  0.51100000000E-03 0. -1.
        -11    1    3    3    0    0  0.90738493248E+01 -0.20066890269E+02  0.19757482829E+02  0.29586702328E+02  0.51100000000E-03 0.  1.
         12    1    3    3    0    0 -0.99918252849E+01  0.25827399452E+02  0.87480421356E+01  0.29041683426E+02  0.00000000000E+00 0. -1.
</event>
<event>
 7    1  0.3509407E-013  0.7246160E+02  0.7816164E-02  0.1226708E+00
        -11   -1    0    0    0    0  0.00000000000E+00  0.00000000000E+00  0.45593999997E+02  0.45594000000E+02  0.51100000000E-03 0. -1.
         11   -1    0    0    0    0 -0.00000000000E+00 -0.00000000000E+00 -0.45593999997E+02  0.45594000000E+02  0.51100000000E-03 0.  1.
    9900012    2    1    2    0    0  0.64207134850E+01  0.92208430770E+00  0.17567078723E+02  0.72461600026E+02  0.70000038731E+02 0.  0.
        -12    1    1    2    0    0 -0.64207134850E+01 -0.92208430770E+00 -0.17567078723E+02  0.18726399974E+02  0.00000000000E+00 0.  1.
         11    1    3    3    0    0 -0.13996210552E+02 -0.14182845223E+02  0.23721267117E+02  0.30979759882E+02  0.51100000000E-03 0. -1.
        -11    1    3    3    0    0 -0.55845116144E+01 -0.54884435452E+01 -0.17359718889E+01  0.80201858570E+01  0.51100000000E-03 0.  1.
        -12    1    3    3    0    0  0.26001435651E+02  0.20593373076E+02 -0.44182165055E+01  0.33461654287E+02  0.00000000000E+00 0.  1.
</event>
<event>
 7    1  0.3508738E-013  0.7246158E+02  0.7816164E-02  0.1226708E+00
        -11   -1    0    0    0    0  0.00000000000E+00  0.00000000000E+00  0.45593999997E+02  0.45594000000E+02  0.51100000000E-03 0.  1.
         11   -1    0    0    0    0 -0.00000000000E+00 -0.00000000000E+00 -0.45593999997E+02  0.45594000000E+02  0.51100000000E-03 0. -1.
    9900012    2    1    2    0    0 -0.15003314598E+02 -0.10089404101E+02 -0.48768180316E+01  0.72461578074E+02  0.70000010134E+02 0.  0.
        -12    1    1    2    0    0  0.15003314598E+02  0.10089404101E+02  0.48768180316E+01  0.18726421926E+02  0.00000000000E+00 0.  1.
         11    1    3    3    0    0 -0.18666409169E+02 -0.24533861366E+01 -0.10400333292E+01  0.18855651789E+02  0.51100000000E-03 0. -1.
        -11    1    3    3    0    0  0.15749997444E+02 -0.15205517242E+02  0.17441322723E+02  0.27990532554E+02  0.51100000000E-03 0.  1.
         12    1    3    3    0    0 -0.12086902873E+02  0.75694992779E+01 -0.21278107425E+02  0.25615393731E+02  0.00000000000E+00 0. -1.
</event>
<event>
 7    1  0.3508738E-013  0.7246157E+02  0.7816164E-02  0.1226708E+00
        -11   -1    0    0    0    0  0.00000000000E+00  0.00000000000E+00  0.45593999997E+02  0.45594000000E+02  0.51100000000E-03 0.  1.
         11   -1    0    0    0    0 -0.00000000000E+00 -0.00000000000E+00 -0.45593999997E+02  0.45594000000E+02  0.51100000000E-03 0. -1.
    9900012    2    1    2    0    0  0.17851597144E+00  0.14200974686E+02 -0.12205728671E+02  0.72461565145E+02  0.69999993292E+02 0.  0.
        -12    1    1    2    0    0 -0.17851597144E+00 -0.14200974686E+02  0.12205728671E+02  0.18726434855E+02  0.00000000000E+00 0.  1.
         11    1    3    3    0    0  0.39064776429E+01 -0.78225610688E+01 -0.11244035152E+02  0.14243642652E+02  0.51100000000E-03 0. -1.
        -11    1    3    3    0    0  0.59823776292E+01  0.44565227100E+01  0.24606355353E+02  0.25712295907E+02  0.51100000000E-03 0.  1.
         12    1    3    3    0    0 -0.97103393007E+01  0.17567013045E+02 -0.25568048872E+02  0.32505626587E+02  0.00000000000E+00 0. -1.
</event>
<event>
 7    1  0.3508738E-013  0.7246159E+02  0.7816164E-02  0.1226708E+00
        -11   -1    0    0    0    0  0.00000000000E+00  0.00000000000E+00  0.45593999997E+02  0.45594000000E+02  0.51100000000E-03 0.  1.
         11   -1    0    0    0    0 -0.00000000000E+00 -0.00000000000E+00 -0.45593999997E+02  0.45594000000E+02  0.51100000000E-03 0. -1.
    9900012    2    1    2    0    0  0.16221831004E+02  0.93446667379E+01 -0.45593664175E+00  0.72461588817E+02  0.70000024129E+02 0.  0.
        -12    1    1    2    0    0 -0.16221831004E+02 -0.93446667379E+01  0.45593664175E+00  0.18726411183E+02  0.00000000000E+00 0.  1.
         11    1    3    3    0    0 -0.39029709685E+01  0.59499592780E+01 -0.21334108211E+01  0.74287710817E+01  0.51100000000E-03 0. -1.
        -11    1    3    3    0    0  0.69085349813E+01  0.32321079875E+02 -0.14062163684E+01  0.33081074720E+02  0.51100000000E-03 0.  1.
        -12    1    3    3    0    0  0.13216266992E+02 -0.28926372416E+02  0.30836905478E+01  0.31951743015E+02  0.00000000000E+00 0.  1.
</event>
<event>
 7    1  0.3508738E-013  0.7246157E+02  0.7816164E-02  0.1226708E+00
        -11   -1    0    0    0    0  0.00000000000E+00  0.00000000000E+00  0.45593999997E+02  0.45594000000E+02  0.51100000000E-03 0. -1.
         11   -1    0    0    0    0 -0.00000000000E+00 -0.00000000000E+00 -0.45593999997E+02  0.45594000000E+02  0.51100000000E-03 0.  1.
    9900012    2    1    2    0    0  0.75349608004E+01 -0.10942607899E+02  0.13197075999E+02  0.72461571701E+02  0.70000001833E+02 0.  0.
        -12    1    1    2    0    0 -0.75349608004E+01  0.10942607899E+02 -0.13197075999E+02  0.18726428299E+02  0.00000000000E+00 0.  1.
         11    1    3    3    0    0  0.14287818371E+02  0.40205419401E+01 -0.21078168122E+01  0.14991644449E+02  0.51100000000E-03 0. -1.
        -11    1    3    3    0    0 -0.36772628000E+01 -0.27052825999E+02 -0.10146219198E+02  0.29125992180E+02  0.51100000000E-03 0.  1.
         12    1    3    3    0    0 -0.30755947710E+01  0.12089676160E+02  0.25451112009E+02  0.28343935072E+02  0.00000000000E+00 0. -1.
</event>
<event>
 7    1  0.3508738E-013  0.7246164E+02  0.7816164E-02  0.1226708E+00
        -11   -1    0    0    0    0  0.00000000000E+00  0.00000000000E+00  0.45593999997E+02  0.45594000000E+02  0.51100000000E-03 0.  1.
         11   -1    0    0    0    0 -0.00000000000E+00 -0.00000000000E+00 -0.45593999997E+02  0.45594000000E+02  0.51100000000E-03 0. -1.
    9900012    2    1    2    0    0  0.51439094758E+01  0.17409555034E+02 -0.45961194781E+01  0.72461635552E+02  0.70000085010E+02 0.  0.
        -12    1    1    2    0    0 -0.51439094758E+01 -0.17409555034E+02  0.45961194781E+01  0.18726364448E+02  0.00000000000E+00 0.  1.
         11    1    3    3    0    0  0.65519285284E+01 -0.46195908070E+01  0.28754190634E+01  0.85168316713E+01  0.51100000000E-03 0. -1.
        -11    1    3    3    0    0 -0.15648135480E+02 -0.16275463033E+02 -0.12962204668E+01  0.22614929332E+02  0.51100000000E-03 0.  1.
         12    1    3    3    0    0  0.14240116428E+02  0.38304608874E+02 -0.61753180747E+01  0.41329874549E+02  0.00000000000E+00 0. -1.
</event>
<event>
 7    1  0.3508738E-013  0.7246158E+02  0.7816164E-02  0.1226708E+00
        -11   -1    0    0    0    0  0.00000000000E+00  0.00000000000E+00  0.45593999997E+02  0.45594000000E+02  0.51100000000E-03 0.  1.
         11   -1    0    0    0    0 -0.00000000000E+00 -0.00000000000E+00 -0.45593999997E+02  0.45594000000E+02  0.51100000000E-03 0. -1.
    9900012    2    1    2    0    0 -0.88243234752E+01 -0.16271379086E+02 -0.28376421700E+01  0.72461583492E+02  0.70000017193E+02 0.  0.
        -12    1    1    2    0    0  0.88243234752E+01  0.16271379086E+02  0.28376421700E+01  0.18726416508E+02  0.00000000000E+00 0.  1.
         11    1    3    3    0    0  0.10625711067E+02 -0.32931441182E+01 -0.88124336089E+01  0.14191882195E+02  0.51100000000E-03 0. -1.
        -11    1    3    3    0    0  0.79984355020E+01 -0.22828933269E+02  0.14096583142E+02  0.27997300249E+02  0.51100000000E-03 0.  1.
         12    1    3    3    0    0 -0.27448470044E+02  0.98506983015E+01 -0.81217917033E+01  0.30272401049E+02  0.00000000000E+00 0. -1.
</event>
<event>
 7    1  0.3508738E-013  0.7246165E+02  0.7816164E-02  0.1226708E+00
        -11   -1    0    0    0    0  0.00000000000E+00  0.00000000000E+00  0.45593999997E+02  0.45594000000E+02  0.51100000000E-03 0. -1.
         11   -1    0    0    0    0 -0.00000000000E+00 -0.00000000000E+00 -0.45593999997E+02  0.45594000000E+02  0.51100000000E-03 0.  1.
    9900012    2    1    2    0    0  0.42194062816E+01 -0.15877727927E+02 -0.89872518975E+01  0.72461646106E+02  0.70000098759E+02 0.  0.
        -12    1    1    2    0    0 -0.42194062816E+01  0.15877727927E+02  0.89872518975E+01  0.18726353894E+02  0.00000000000E+00 0.  1.
         11    1    3    3    0    0  0.34607379424E+01 -0.11556668812E+01 -0.74932549691E+01  0.83343352068E+01  0.51100000000E-03 0. -1.
        -11    1    3    3    0    0  0.23359591532E+02 -0.95616607869E+01 -0.21767491335E+02  0.33330459835E+02  0.51100000000E-03 0.  1.
         12    1    3    3    0    0 -0.22600923193E+02 -0.51604002587E+01  0.20273494406E+02  0.30796851064E+02  0.00000000000E+00 0. -1.
</event>
<event>
 7    1  0.3508738E-013  0.7246159E+02  0.7816164E-02  0.1226708E+00
        -11   -1    0    0    0    0  0.00000000000E+00  0.00000000000E+00  0.45593999997E+02  0.45594000000E+02  0.51100000000E-03 0.  1.
         11   -1    0    0    0    0 -0.00000000000E+00 -0.00000000000E+00 -0.45593999997E+02  0.45594000000E+02  0.51100000000E-03 0. -1.
    9900012    2    1    2    0    0  0.37330472322E+01  0.57419247230E+01 -0.17429090184E+02  0.72461587481E+02  0.70000022389E+02 0.  0.
        -12    1    1    2    0    0 -0.37330472322E+01 -0.57419247230E+01  0.17429090184E+02  0.18726412519E+02  0.00000000000E+00 0.  1.
         11    1    3    3    0    0  0.12298227354E+02  0.26633560781E+01  0.66839469728E+01  0.14248333553E+02  0.51100000000E-03 0. -1.
        -11    1    3    3    0    0  0.20073055003E+02 -0.62651386610E+01 -0.25826097943E+01  0.21186065543E+02  0.51100000000E-03 0.  1.
         12    1    3    3    0    0 -0.28638235125E+02  0.93437073060E+01 -0.21530427363E+02  0.37027188385E+02  0.00000000000E+00 0. -1.
</event>
<event>
 7    1  0.3508738E-013  0.7246156E+02  0.7816164E-02  0.1226708E+00
        -11   -1    0    0    0    0  0.00000000000E+00  0.00000000000E+00  0.45593999997E+02  0.45594000000E+02  0.51100000000E-03 0.  1.
         11   -1    0    0    0    0 -0.00000000000E+00 -0.00000000000E+00 -0.45593999997E+02  0.45594000000E+02  0.51100000000E-03 0. -1.
    9900012    2    1    2    0    0 -0.17886537715E+02  0.76098434054E+00  0.54929122024E+01  0.72461563792E+02  0.69999991530E+02 0.  0.
        -12    1    1    2    0    0  0.17886537715E+02 -0.76098434054E+00 -0.54929122024E+01  0.18726436208E+02  0.00000000000E+00 0.  1.
         11    1    3    3    0    0  0.22484147104E+02 -0.60926637496E+01 -0.10423362507E+02  0.25520656511E+02  0.51100000000E-03 0. -1.
        -11    1    3    3    0    0 -0.18807359978E+02 -0.34695678084E+01  0.18774383910E+01  0.19216645527E+02  0.51100000000E-03 0.  1.
        -12    1    3    3    0    0 -0.21563324840E+02  0.10323215899E+02  0.14038836318E+02  0.27724261754E+02  0.00000000000E+00 0.  1.
</event>
<event>
 7    1  0.3508738E-013  0.7246160E+02  0.7816164E-02  0.1226708E+00
        -11   -1    0    0    0    0  0.00000000000E+00  0.00000000000E+00  0.45593999997E+02  0.45594000000E+02  0.51100000000E-03 0.  1.
         11   -1    0    0    0    0 -0.00000000000E+00 -0.00000000000E+00 -0.45593999997E+02  0.45594000000E+02  0.51100000000E-03 0. -1.
    9900012    2    1    2    0    0  0.11546304630E+02 -0.34988020308E+01 -0.14321985937E+02  0.72461600254E+02  0.70000039028E+02 0.  0.
        -12    1    1    2    0    0 -0.11546304630E+02  0.34988020308E+01  0.14321985937E+02  0.18726399746E+02  0.00000000000E+00 0.  1.
         11    1    3    3    0    0 -0.12597124981E+01  0.50812060587E+01  0.15958391166E+02  0.16795111773E+02  0.51100000000E-03 0.  1.
        -11    1    3    3    0    0 -0.11553140247E+02  0.95251597340E+01 -0.39486589899E+01  0.15485335825E+02  0.51100000000E-03 0. -1.
         12    1    3    3    0    0  0.24359157375E+02 -0.18105167824E+02 -0.26331718114E+02  0.40181152656E+02  0.00000000000E+00 0. -1.
</event>
<event>
 7    1  0.3508738E-013  0.7246156E+02  0.7816164E-02  0.1226708E+00
        -11   -1    0    0    0    0  0.00000000000E+00  0.00000000000E+00  0.45593999997E+02  0.45594000000E+02  0.51100000000E-03 0.  1.
         11   -1    0    0    0    0 -0.00000000000E+00 -0.00000000000E+00 -0.45593999997E+02  0.45594000000E+02  0.51100000000E-03 0. -1.
    9900012    2    1    2    0    0 -0.15187980325E+02  0.81853835753E+01 -0.72804141955E+01  0.72461556625E+02  0.69999982193E+02 0.  0.
        -12    1    1    2    0    0  0.15187980325E+02 -0.81853835753E+01  0.72804141955E+01  0.18726443375E+02  0.00000000000E+00 0.  1.
         11    1    3    3    0    0 -0.11323435536E+02  0.17545729036E+02  0.33467078350E+01  0.21148835744E+02  0.51100000000E-03 0. -1.
        -11    1    3    3    0    0 -0.20569383082E+02  0.44564880481E+01  0.82122212657E+01  0.22592042504E+02  0.51100000000E-03 0.  1.
         12    1    3    3    0    0  0.16704838293E+02 -0.13816833509E+02 -0.18839343296E+02  0.28720678377E+02  0.00000000000E+00 0. -1.
</event>
<event>
 7    1  0.3508738E-013  0.7246160E+02  0.7816164E-02  0.1226708E+00
        -11   -1    0    0    0    0  0.00000000000E+00  0.00000000000E+00  0.45593999997E+02  0.45594000000E+02  0.51100000000E-03 0.  1.
         11   -1    0    0    0    0 -0.00000000000E+00 -0.00000000000E+00 -0.45593999997E+02  0.45594000000E+02  0.51100000000E-03 0. -1.
    9900012    2    1    2    0    0  0.10343121294E+02  0.21342236238E+01 -0.15464246217E+02  0.72461602064E+02  0.70000041386E+02 0.  0.
        -12    1    1    2    0    0 -0.10343121294E+02 -0.21342236238E+01  0.15464246217E+02  0.18726397936E+02  0.00000000000E+00 0.  1.
         11    1    3    3    0    0 -0.92202565406E+01  0.23171261960E+02 -0.17998669571E+02  0.30755042157E+02  0.51100000000E-03 0. -1.
        -11    1    3    3    0    0 -0.49293468191E+01  0.39666106684E+01  0.22161950703E+01  0.67040272306E+01  0.51100000000E-03 0.  1.
        -12    1    3    3    0    0  0.24492724654E+02 -0.25003649005E+02  0.31822828296E+00  0.35002532677E+02  0.00000000000E+00 0.  1.
</event>
<event>
 7    1  0.3508738E-013  0.7246157E+02  0.7816164E-02  0.1226708E+00
        -11   -1    0    0    0    0  0.00000000000E+00  0.00000000000E+00  0.45593999997E+02  0.45594000000E+02  0.51100000000E-03 0.  1.
         11   -1    0    0    0    0 -0.00000000000E+00 -0.00000000000E+00 -0.45593999997E+02  0.45594000000E+02  0.51100000000E-03 0. -1.
    9900012    2    1    2    0    0 -0.60682495318E+01 -0.17184677972E+00 -0.17715129986E+02  0.72461574444E+02  0.70000005406E+02 0.  0.
        -12    1    1    2    0    0  0.60682495318E+01  0.17184677972E+00  0.17715129986E+02  0.18726425556E+02  0.00000000000E+00 0.  1.
         11    1    3    3    0    0 -0.16580926141E+02 -0.10064956729E+02 -0.53567175551E+01  0.20122745560E+02  0.51100000000E-03 0. -1.
        -11    1    3    3    0    0 -0.17972081722E+02  0.74279810972E+01 -0.13584223595E+02  0.23721335450E+02  0.51100000000E-03 0.  1.
         12    1    3    3    0    0  0.28484758331E+02  0.24651288526E+01  0.12258111649E+01  0.28617493434E+02  0.00000000000E+00 0. -1.
</event>
<event>
 7    1  0.3508738E-013  0.7246163E+02  0.7816164E-02  0.1226708E+00
        -11   -1    0    0    0    0  0.00000000000E+00  0.00000000000E+00  0.45593999997E+02  0.45594000000E+02  0.51100000000E-03 0.  1.
         11   -1    0    0    0    0 -0.00000000000E+00 -0.00000000000E+00 -0.45593999997E+02  0.45594000000E+02  0.51100000000E-03 0. -1.
    9900012    2    1    2    0    0 -0.14509591470E+02  0.60487829805E+01 -0.10176496853E+02  0.72461625328E+02  0.70000071691E+02 0.  0.
        -12    1    1    2    0    0  0.14509591470E+02 -0.60487829805E+01  0.10176496853E+02  0.18726374672E+02  0.00000000000E+00 0.  1.
         11    1    3    3    0    0  0.12586283986E+02 -0.13656421167E+02 -0.20167294179E+02  0.27415910316E+02  0.51100000000E-03 0. -1.
        -11    1    3    3    0    0  0.51471504040E+01 -0.13780741382E+01  0.38720925557E+00  0.53424878924E+01  0.51100000000E-03 0.  1.
         12    1    3    3    0    0 -0.32243025860E+02  0.21083278285E+02  0.96035880710E+01  0.39703227120E+02  0.00000000000E+00 0. -1.
</event>
<event>
 7    1  0.3508738E-013  0.7246151E+02  0.7816164E-02  0.1226708E+00
        -11   -1    0    0    0    0  0.00000000000E+00  0.00000000000E+00  0.45593999997E+02  0.45594000000E+02  0.51100000000E-03 0.  1.
         11   -1    0    0    0    0 -0.00000000000E+00 -0.00000000000E+00 -0.45593999997E+02  0.45594000000E+02  0.51100000000E-03 0. -1.
    9900012    2    1    2    0    0  0.64731155797E+01  0.12615956137E+02 -0.12231841586E+02  0.72461507452E+02  0.69999918136E+02 0.  0.
        -12    1    1    2    0    0 -0.64731155797E+01 -0.12615956137E+02  0.12231841586E+02  0.18726492548E+02  0.00000000000E+00 0.  1.
         11    1    3    3    0    0  0.19673111428E+02  0.32670686922E+02 -0.13926780061E+02  0.40600003699E+02  0.51100000000E-03 0. -1.
        -11    1    3    3    0    0  0.40374001592E+01 -0.38166513244E+01  0.55678192550E+01  0.78656238720E+01  0.51100000000E-03 0.  1.
        -12    1    3    3    0    0 -0.17237396008E+02 -0.16238079461E+02 -0.38728807804E+01  0.23995879881E+02  0.00000000000E+00 0.  1.
</event>
<event>
 7    1  0.4415139E-013  0.7246159E+02  0.7816164E-02  0.1226708E+00
        -11   -1    0    0    0    0  0.00000000000E+00  0.00000000000E+00  0.45593999997E+02  0.45594000000E+02  0.51100000000E-03 0. -1.
         11   -1    0    0    0    0 -0.00000000000E+00 -0.00000000000E+00 -0.45593999997E+02  0.45594000000E+02  0.51100000000E-03 0.  1.
    9900012    2    1    2    0    0 -0.32943744308E+01 -0.13170791369E+02  0.12897904464E+02  0.72461585828E+02  0.70000020235E+02 0.  0.
        -12    1    1    2    0    0  0.32943744308E+01  0.13170791369E+02 -0.12897904464E+02  0.18726414172E+02  0.00000000000E+00 0.  1.
         11    1    3    3    0    0  0.47654862073E+01  0.25376911235E+01  0.31328504353E+02  0.31790327464E+02  0.51100000000E-03 0. -1.
        -11    1    3    3    0    0 -0.59888347008E+01  0.93541926789E+01 -0.55617113823E+01  0.12421742853E+02  0.51100000000E-03 0.  1.
        -12    1    3    3    0    0 -0.20710259372E+01 -0.25062675171E+02 -0.12868888507E+02  0.28249515510E+02  0.00000000000E+00 0.  1.
</event>
<event>
 7    1  0.3508738E-013  0.7246154E+02  0.7816164E-02  0.1226708E+00
        -11   -1    0    0    0    0  0.00000000000E+00  0.00000000000E+00  0.45593999997E+02  0.45594000000E+02  0.51100000000E-03 0.  1.
         11   -1    0    0    0    0 -0.00000000000E+00 -0.00000000000E+00 -0.45593999997E+02  0.45594000000E+02  0.51100000000E-03 0. -1.
    9900012    2    1    2    0    0 -0.16117796096E+02  0.46121720420E+01 -0.83441442891E+01  0.72461542090E+02  0.69999963258E+02 0.  0.
        -12    1    1    2    0    0  0.16117796096E+02 -0.46121720420E+01  0.83441442891E+01  0.18726457910E+02  0.00000000000E+00 0.  1.
         11    1    3    3    0    0  0.90983666233E+01  0.68154455128E+01 -0.23085933028E+01  0.11600007588E+02  0.51100000000E-03 0. -1.
        -11    1    3    3    0    0 -0.31791655041E+02  0.19590086231E+02 -0.12489278001E+00  0.37342956594E+02  0.51100000000E-03 0.  1.
        -12    1    3    3    0    0  0.65754923212E+01 -0.21793359701E+02 -0.59106582064E+01  0.23518577907E+02  0.00000000000E+00 0.  1.
</event>
<event>
 7    1  0.3508738E-013  0.7246155E+02  0.7816164E-02  0.1226708E+00
        -11   -1    0    0    0    0  0.00000000000E+00  0.00000000000E+00  0.45593999997E+02  0.45594000000E+02  0.51100000000E-03 0.  1.
         11   -1    0    0    0    0 -0.00000000000E+00 -0.00000000000E+00 -0.45593999997E+02  0.45594000000E+02  0.51100000000E-03 0. -1.
    9900012    2    1    2    0    0 -0.12837015716E+02 -0.46774608077E+01 -0.12806727538E+02  0.72461551262E+02  0.69999975207E+02 0.  0.
        -12    1    1    2    0    0  0.12837015716E+02  0.46774608077E+01  0.12806727538E+02  0.18726448738E+02  0.00000000000E+00 0.  1.
         11    1    3    3    0    0  0.20167562905E+01  0.13082457785E+01  0.47180043798E+01  0.52951278116E+01  0.51100000000E-03 0. -1.
        -11    1    3    3    0    0 -0.47382824844E+01 -0.14565015574E+02  0.21245059010E+02  0.26190523710E+02  0.51100000000E-03 0.  1.
         12    1    3    3    0    0 -0.10115489522E+02  0.85793089878E+01 -0.38769790928E+02  0.40975899741E+02  0.00000000000E+00 0. -1.
</event>
<event>
 7    1  0.3508738E-013  0.7246159E+02  0.7816164E-02  0.1226708E+00
        -11   -1    0    0    0    0  0.00000000000E+00  0.00000000000E+00  0.45593999997E+02  0.45594000000E+02  0.51100000000E-03 0.  1.
         11   -1    0    0    0    0 -0.00000000000E+00 -0.00000000000E+00 -0.45593999997E+02  0.45594000000E+02  0.51100000000E-03 0. -1.
    9900012    2    1    2    0    0 -0.10752595927E+02  0.76323949732E+01 -0.13296861116E+02  0.72461593838E+02  0.70000030670E+02 0.  0.
        -12    1    1    2    0    0  0.10752595927E+02 -0.76323949732E+01  0.13296861116E+02  0.18726406162E+02  0.00000000000E+00 0.  1.
         11    1    3    3    0    0 -0.50963132311E+01 -0.53167684876E+01 -0.36757010585E+01  0.82311125756E+01  0.51100000000E-03 0. -1.
        -11    1    3    3    0    0  0.62137587154E+01 -0.52490864504E+01  0.23360064866E+02  0.24735729961E+02  0.51100000000E-03 0.  1.
        -12    1    3    3    0    0 -0.11870041411E+02  0.18198249911E+02 -0.32981224923E+02  0.39494751301E+02  0.00000000000E+00 0.  1.
</event>
<event>
 7    1  0.3508738E-013  0.7246186E+02  0.7816164E-02  0.1226707E+00
        -11   -1    0    0    0    0  0.00000000000E+00  0.00000000000E+00  0.45593999997E+02  0.45594000000E+02  0.51100000000E-03 0.  1.
         11   -1    0    0    0    0 -0.00000000000E+00 -0.00000000000E+00 -0.45593999997E+02  0.45594000000E+02  0.51100000000E-03 0. -1.
    9900012    2    1    2    0    0 -0.16178605391E+02 -0.77533253561E+01 -0.53672150935E+01  0.72461859865E+02  0.70000377219E+02 0.  0.
        -12    1    1    2    0    0  0.16178605391E+02  0.77533253561E+01  0.53672150935E+01  0.18726140135E+02  0.00000000000E+00 0.  1.
         11    1    3    3    0    0 -0.63364089832E+01  0.32099940167E+01 -0.63320689187E+00  0.71312755955E+01  0.51100000000E-03 0. -1.
        -11    1    3    3    0    0 -0.31497423874E+02 -0.21088908974E+02  0.72448382410E+01  0.38591676224E+02  0.51100000000E-03 0.  1.
        -12    1    3    3    0    0  0.21655227466E+02  0.10125589601E+02 -0.11978846443E+02  0.26738908046E+02  0.00000000000E+00 0.  1.
</event>
<event>
 7    1  0.3508738E-013  0.7246160E+02  0.7816164E-02  0.1226708E+00
        -11   -1    0    0    0    0  0.00000000000E+00  0.00000000000E+00  0.45593999997E+02  0.45594000000E+02  0.51100000000E-03 0.  1.
         11   -1    0    0    0    0 -0.00000000000E+00 -0.00000000000E+00 -0.45593999997E+02  0.45594000000E+02  0.51100000000E-03 0. -1.
    9900012    2    1    2    0    0  0.65391340636E+01 -0.12193940207E+02 -0.12618469044E+02  0.72461595831E+02  0.70000033267E+02 0.  0.
        -12    1    1    2    0    0 -0.65391340636E+01  0.12193940207E+02  0.12618469044E+02  0.18726404169E+02  0.00000000000E+00 0.  1.
         11    1    3    3    0    0  0.10043983186E+02  0.13970689083E+02 -0.31408741382E+01  0.17490764486E+02  0.51100000000E-03 0. -1.
        -11    1    3    3    0    0  0.10344249257E+02  0.35178465612E+01 -0.18062600291E+02  0.21110098689E+02  0.51100000000E-03 0.  1.
        -12    1    3    3    0    0 -0.13849098380E+02 -0.29682475851E+02  0.85850053844E+01  0.33860732656E+02  0.00000000000E+00 0.  1.
</event>
<event>
 7    1  0.3508738E-013  0.7246161E+02  0.7816164E-02  0.1226708E+00
        -11   -1    0    0    0    0  0.00000000000E+00  0.00000000000E+00  0.45593999997E+02  0.45594000000E+02  0.51100000000E-03 0.  1.
         11   -1    0    0    0    0 -0.00000000000E+00 -0.00000000000E+00 -0.45593999997E+02  0.45594000000E+02  0.51100000000E-03 0. -1.
    9900012    2    1    2    0    0 -0.10449087965E+02 -0.14060529627E+02 -0.66178278102E+01  0.72461612799E+02  0.70000055370E+02 0.  0.
        -12    1    1    2    0    0  0.10449087965E+02  0.14060529627E+02  0.66178278102E+01  0.18726387201E+02  0.00000000000E+00 0.  1.
         11    1    3    3    0    0 -0.46725753316E+01  0.19380418737E+02 -0.54121062974E+00  0.19943081504E+02  0.51100000000E-03 0. -1.
        -11    1    3    3    0    0  0.76158802083E+01  0.57696618491E+01  0.31661371128E+01  0.10065537923E+02  0.51100000000E-03 0.  1.
        -12    1    3    3    0    0 -0.13392392841E+02 -0.39210610213E+02 -0.92427542933E+01  0.42452993372E+02  0.00000000000E+00 0.  1.
</event>
<event>
 7    1  0.3508738E-013  0.7246154E+02  0.7816164E-02  0.1226708E+00
        -11   -1    0    0    0    0  0.00000000000E+00  0.00000000000E+00  0.45593999997E+02  0.45594000000E+02  0.51100000000E-03 0. -1.
         11   -1    0    0    0    0 -0.00000000000E+00 -0.00000000000E+00 -0.45593999997E+02  0.45594000000E+02  0.51100000000E-03 0.  1.
    9900012    2    1    2    0    0 -0.63271592851E+01  0.32254888398E+01  0.17327541062E+02  0.72461537383E+02  0.69999957127E+02 0.  0.
        -12    1    1    2    0    0  0.63271592851E+01 -0.32254888398E+01 -0.17327541062E+02  0.18726462617E+02  0.00000000000E+00 0.  1.
         11    1    3    3    0    0  0.21376042699E+01  0.28088898977E+01  0.50417184770E+01  0.61545219094E+01  0.51100000000E-03 0. -1.
        -11    1    3    3    0    0  0.13138434843E+02 -0.86321746395E+01  0.32025876425E+02  0.35676177909E+02  0.51100000000E-03 0.  1.
         12    1    3    3    0    0 -0.21603198398E+02  0.90487735815E+01 -0.19740053839E+02  0.30630837565E+02  0.00000000000E+00 0. -1.
</event>
<event>
 7    1  0.3508738E-013  0.7246134E+02  0.7816164E-02  0.1226709E+00
        -11   -1    0    0    0    0  0.00000000000E+00  0.00000000000E+00  0.45593999997E+02  0.45594000000E+02  0.51100000000E-03 0. -1.
         11   -1    0    0    0    0 -0.00000000000E+00 -0.00000000000E+00 -0.45593999997E+02  0.45594000000E+02  0.51100000000E-03 0.  1.
    9900012    2    1    2    0    0 -0.10235874165E+02  0.96733672011E+00  0.15651805052E+02  0.72461338215E+02  0.69999697672E+02 0.  0.
        -12    1    1    2    0    0  0.10235874165E+02 -0.96733672011E+00 -0.15651805052E+02  0.18726661785E+02  0.00000000000E+00 0.  1.
         11    1    3    3    0    0 -0.11858279450E+02 -0.91829160508E+00  0.11151244120E+02  0.16303751000E+02  0.51100000000E-03 0. -1.
        -11    1    3    3    0    0 -0.17352436444E+02  0.22168881001E+02  0.10870019445E+01  0.28173532062E+02  0.51100000000E-03 0.  1.
         12    1    3    3    0    0  0.18974841729E+02 -0.20283252676E+02  0.34135589872E+01  0.27984055152E+02  0.00000000000E+00 0. -1.
</event>
<event>
 7    1  0.3508738E-013  0.7246158E+02  0.7816164E-02  0.1226708E+00
        -11   -1    0    0    0    0  0.00000000000E+00  0.00000000000E+00  0.45593999997E+02  0.45594000000E+02  0.51100000000E-03 0. -1.
         11   -1    0    0    0    0 -0.00000000000E+00 -0.00000000000E+00 -0.45593999997E+02  0.45594000000E+02  0.51100000000E-03 0.  1.
    9900012    2    1    2    0    0 -0.55828908703E+01  0.17459383558E+01  0.17789378410E+02  0.72461576010E+02  0.70000007446E+02 0.  0.
        -12    1    1    2    0    0  0.55828908703E+01 -0.17459383558E+01 -0.17789378410E+02  0.18726423990E+02  0.00000000000E+00 0.  1.
         11    1    3    3    0    0  0.43239377422E+00 -0.80992765047E+00 -0.13486666145E+01  0.16315174143E+01  0.51100000000E-03 0. -1.
        -11    1    3    3    0    0  0.11513715279E+02  0.27606271379E+02 -0.68703836597E+01  0.30689966290E+02  0.51100000000E-03 0.  1.
         12    1    3    3    0    0 -0.17528999923E+02 -0.25050405373E+02  0.26008428685E+02  0.40140092306E+02  0.00000000000E+00 0. -1.
</event>
<event>
 7    1  0.3835206E-013  0.7246162E+02  0.7816164E-02  0.1226708E+00
        -11   -1    0    0    0    0  0.00000000000E+00  0.00000000000E+00  0.45593999997E+02  0.45594000000E+02  0.51100000000E-03 0. -1.
         11   -1    0    0    0    0 -0.00000000000E+00 -0.00000000000E+00 -0.45593999997E+02  0.45594000000E+02  0.51100000000E-03 0.  1.
    9900012    2    1    2    0    0  0.14859270925E+02 -0.10945481238E+02  0.31742606818E+01  0.72461616931E+02  0.70000060753E+02 0.  0.
        -12    1    1    2    0    0 -0.14859270925E+02  0.10945481238E+02 -0.31742606818E+01  0.18726383069E+02  0.00000000000E+00 0.  1.
         11    1    3    3    0    0  0.83404080184E+01 -0.29890002688E+02 -0.11514098677E+02  0.33099080580E+02  0.51100000000E-03 0. -1.
        -11    1    3    3    0    0  0.15509376333E+01 -0.41385279029E+01  0.15114178103E+02  0.15747101344E+02  0.51100000000E-03 0.  1.
        -12    1    3    3    0    0  0.49679252735E+01  0.23083049354E+02 -0.42581874500E+00  0.23615435007E+02  0.00000000000E+00 0.  1.
</event>
<event>
 7    1  0.3508738E-013  0.7246154E+02  0.7816164E-02  0.1226708E+00
        -11   -1    0    0    0    0  0.00000000000E+00  0.00000000000E+00  0.45593999997E+02  0.45594000000E+02  0.51100000000E-03 0. -1.
         11   -1    0    0    0    0 -0.00000000000E+00 -0.00000000000E+00 -0.45593999997E+02  0.45594000000E+02  0.51100000000E-03 0.  1.
    9900012    2    1    2    0    0 -0.18141503913E+02 -0.24147931640E+01  0.39667214157E+01  0.72461540937E+02  0.69999961757E+02 0.  0.
        -12    1    1    2    0    0  0.18141503913E+02  0.24147931640E+01 -0.39667214157E+01  0.18726459063E+02  0.00000000000E+00 0.  1.
         11    1    3    3    0    0 -0.63986917711E+01  0.15629854906E+02 -0.15769354543E+01  0.16962380330E+02  0.51100000000E-03 0. -1.
        -11    1    3    3    0    0  0.33455050185E+01  0.14116716212E+02  0.12676089009E+02  0.19265443500E+02  0.51100000000E-03 0.  1.
        -12    1    3    3    0    0 -0.15088317160E+02 -0.32161364282E+02 -0.71324321388E+01  0.36233717107E+02  0.00000000000E+00 0.  1.
</event>
<event>
 7    1  0.3508738E-013  0.7246156E+02  0.7816164E-02  0.1226708E+00
        -11   -1    0    0    0    0  0.00000000000E+00  0.00000000000E+00  0.45593999997E+02  0.45594000000E+02  0.51100000000E-03 0.  1.
         11   -1    0    0    0    0 -0.00000000000E+00 -0.00000000000E+00 -0.45593999997E+02  0.45594000000E+02  0.51100000000E-03 0. -1.
    9900012    2    1    2    0    0 -0.85515300179E+01  0.86271880310E+01 -0.14252103758E+02  0.72461561457E+02  0.69999988488E+02 0.  0.
        -12    1    1    2    0    0  0.85515300179E+01 -0.86271880310E+01  0.14252103758E+02  0.18726438543E+02  0.00000000000E+00 0.  1.
         11    1    3    3    0    0  0.12624052276E+02 -0.31049780668E+01 -0.10667008029E+02  0.16816439730E+02  0.51100000000E-03 0. -1.
        -11    1    3    3    0    0  0.16458001700E+02  0.24706453994E+01  0.66928033938E+00  0.16655865186E+02  0.51100000000E-03 0.  1.
         12    1    3    3    0    0 -0.37633583994E+02  0.92615206984E+01 -0.42543760685E+01  0.38989256541E+02  0.00000000000E+00 0. -1.
</event>
<event>
 7    1  0.3508738E-013  0.7246172E+02  0.7816164E-02  0.1226708E+00
        -11   -1    0    0    0    0  0.00000000000E+00  0.00000000000E+00  0.45593999997E+02  0.45594000000E+02  0.51100000000E-03 0.  1.
         11   -1    0    0    0    0 -0.00000000000E+00 -0.00000000000E+00 -0.45593999997E+02  0.45594000000E+02  0.51100000000E-03 0. -1.
    9900012    2    1    2    0    0  0.14936168829E+01  0.42495374466E+00 -0.18661786296E+02  0.72461715135E+02  0.70000188682E+02 0.  0.
        -12    1    1    2    0    0 -0.14936168829E+01 -0.42495374466E+00  0.18661786296E+02  0.18726284865E+02  0.00000000000E+00 0.  1.
         11    1    3    3    0    0  0.60580724554E+01 -0.28131400915E+02 -0.11641071345E+02  0.31041754164E+02  0.51100000000E-03 0. -1.
        -11    1    3    3    0    0 -0.42507297624E+01  0.83457858309E+00  0.85777076210E+01  0.96094897480E+01  0.51100000000E-03 0.  1.
        -12    1    3    3    0    0 -0.31372581012E+00  0.27721776076E+02 -0.15598422572E+02  0.31810471223E+02  0.00000000000E+00 0.  1.
</event>
<event>
 7    1  0.3508738E-013  0.7246172E+02  0.7816164E-02  0.1226708E+00
        -11   -1    0    0    0    0  0.00000000000E+00  0.00000000000E+00  0.45593999997E+02  0.45594000000E+02  0.51100000000E-03 0. -1.
         11   -1    0    0    0    0 -0.00000000000E+00 -0.00000000000E+00 -0.45593999997E+02  0.45594000000E+02  0.51100000000E-03 0.  1.
    9900012    2    1    2    0    0  0.14927707059E+02 -0.77855600733E+01  0.81989094964E+01  0.72461721656E+02  0.70000197176E+02 0.  0.
        -12    1    1    2    0    0 -0.14927707059E+02  0.77855600733E+01 -0.81989094964E+01  0.18726278344E+02  0.00000000000E+00 0.  1.
         11    1    3    3    0    0 -0.29085369939E+01  0.15445687159E+02  0.16673466094E+02  0.22913605371E+02  0.51100000000E-03 0. -1.
        -11    1    3    3    0    0 -0.44534799527E+01  0.87417307507E+01 -0.24216889625E+01  0.10105242100E+02  0.51100000000E-03 0.  1.
         12    1    3    3    0    0  0.22289724006E+02 -0.31972977983E+02 -0.60528676348E+01  0.39442874185E+02  0.00000000000E+00 0. -1.
</event>
<event>
 7    1  0.3508738E-013  0.7246153E+02  0.7816164E-02  0.1226708E+00
        -11   -1    0    0    0    0  0.00000000000E+00  0.00000000000E+00  0.45593999997E+02  0.45594000000E+02  0.51100000000E-03 0.  1.
         11   -1    0    0    0    0 -0.00000000000E+00 -0.00000000000E+00 -0.45593999997E+02  0.45594000000E+02  0.51100000000E-03 0. -1.
    9900012    2    1    2    0    0 -0.15032937046E+02 -0.88495776357E+01 -0.68100276702E+01  0.72461529499E+02  0.69999946857E+02 0.  0.
        -12    1    1    2    0    0  0.15032937046E+02  0.88495776357E+01  0.68100276702E+01  0.18726470501E+02  0.00000000000E+00 0.  1.
         11    1    3    3    0    0 -0.17327286898E+02  0.13892855820E+01 -0.99492334868E+01  0.20028785109E+02  0.51100000000E-03 0. -1.
        -11    1    3    3    0    0  0.24152032058E+02 -0.13112381910E+02 -0.67064069802E+01  0.28288356380E+02  0.51100000000E-03 0.  1.
         12    1    3    3    0    0 -0.21857682205E+02  0.28735186921E+01  0.98456127968E+01  0.24144388010E+02  0.00000000000E+00 0. -1.
</event>
<event>
 7    1  0.3508738E-013  0.7246152E+02  0.7816164E-02  0.1226708E+00
        -11   -1    0    0    0    0  0.00000000000E+00  0.00000000000E+00  0.45593999997E+02  0.45594000000E+02  0.51100000000E-03 0. -1.
         11   -1    0    0    0    0 -0.00000000000E+00 -0.00000000000E+00 -0.45593999997E+02  0.45594000000E+02  0.51100000000E-03 0.  1.
    9900012    2    1    2    0    0  0.27521812347E+01  0.30991491304E+01  0.18262034301E+02  0.72461518118E+02  0.69999932030E+02 0.  0.
        -12    1    1    2    0    0 -0.27521812347E+01 -0.30991491304E+01 -0.18262034301E+02  0.18726481882E+02  0.00000000000E+00 0.  1.
         11    1    3    3    0    0 -0.14964131901E+02 -0.24400741646E+02  0.11617682278E+02  0.30891616633E+02  0.51100000000E-03 0. -1.
        -11    1    3    3    0    0 -0.21435601676E+01 -0.91715924299E+00 -0.45715202530E+01  0.51317471638E+01  0.51100000000E-03 0.  1.
        -12    1    3    3    0    0  0.19859873303E+02  0.28417050019E+02  0.11215872276E+02  0.36438154321E+02  0.00000000000E+00 0.  1.
</event>
<event>
 7    1  0.3508738E-013  0.7246157E+02  0.7816164E-02  0.1226708E+00
        -11   -1    0    0    0    0  0.00000000000E+00  0.00000000000E+00  0.45593999997E+02  0.45594000000E+02  0.51100000000E-03 0.  1.
         11   -1    0    0    0    0 -0.00000000000E+00 -0.00000000000E+00 -0.45593999997E+02  0.45594000000E+02  0.51100000000E-03 0. -1.
    9900012    2    1    2    0    0 -0.10258051092E+02 -0.74536907388E+01 -0.13780199053E+02  0.72461574720E+02  0.70000005765E+02 0.  0.
        -12    1    1    2    0    0  0.10258051092E+02  0.74536907388E+01  0.13780199053E+02  0.18726425280E+02  0.00000000000E+00 0.  1.
         11    1    3    3    0    0 -0.25629280182E+02  0.16673147683E+01 -0.61608214102E+01  0.26412036307E+02  0.51100000000E-03 0. -1.
        -11    1    3    3    0    0 -0.60666719055E+01  0.56426641954E+01 -0.16568321989E+02  0.18524401773E+02  0.51100000000E-03 0.  1.
        -12    1    3    3    0    0  0.21437900995E+02 -0.14763669702E+02  0.89489443466E+01  0.27525136641E+02  0.00000000000E+00 0.  1.
</event>
<event>
 7    1  0.3508738E-013  0.7246156E+02  0.7816164E-02  0.1226708E+00
        -11   -1    0    0    0    0  0.00000000000E+00  0.00000000000E+00  0.45593999997E+02  0.45594000000E+02  0.51100000000E-03 0.  1.
         11   -1    0    0    0    0 -0.00000000000E+00 -0.00000000000E+00 -0.45593999997E+02  0.45594000000E+02  0.51100000000E-03 0. -1.
    9900012    2    1    2    0    0  0.10064673867E+02  0.10781020754E+02 -0.11539125179E+02  0.72461562046E+02  0.69999989255E+02 0.  0.
        -12    1    1    2    0    0 -0.10064673867E+02 -0.10781020754E+02  0.11539125179E+02  0.18726437954E+02  0.00000000000E+00 0.  1.
         11    1    3    3    0    0 -0.13747547692E+01 -0.66321013673E+00 -0.24904524428E+02  0.24951255191E+02  0.51100000000E-03 0. -1.
        -11    1    3    3    0    0  0.14365586653E+01  0.21130794692E-01 -0.15142766017E+02  0.15210769547E+02  0.51100000000E-03 0.  1.
        -12    1    3    3    0    0  0.10002869971E+02  0.11423100096E+02  0.28508165266E+02  0.32299537308E+02  0.00000000000E+00 0.  1.
</event>
<event>
 7    1  0.3508738E-013  0.7246157E+02  0.7816164E-02  0.1226708E+00
        -11   -1    0    0    0    0  0.00000000000E+00  0.00000000000E+00  0.45593999997E+02  0.45594000000E+02  0.51100000000E-03 0. -1.
         11   -1    0    0    0    0 -0.00000000000E+00 -0.00000000000E+00 -0.45593999997E+02  0.45594000000E+02  0.51100000000E-03 0.  1.
    9900012    2    1    2    0    0  0.57445694154E+01  0.17221096592E+02 -0.45948963162E+01  0.72461566336E+02  0.69999994844E+02 0.  0.
        -12    1    1    2    0    0 -0.57445694154E+01 -0.17221096592E+02  0.45948963162E+01  0.18726433664E+02  0.00000000000E+00 0.  1.
         11    1    3    3    0    0  0.37048755080E+00  0.13400466411E+01  0.19164272826E+01  0.23676316893E+01  0.51100000000E-03 0. -1.
        -11    1    3    3    0    0  0.84794055330E+01 -0.23063339721E+02 -0.16710823280E+02  0.29716486539E+02  0.51100000000E-03 0.  1.
         12    1    3    3    0    0 -0.31053236684E+01  0.38944389672E+02  0.10199499681E+02  0.40377448108E+02  0.00000000000E+00 0. -1.
</event>
<event>
 7    1  0.3508738E-013  0.7246157E+02  0.7816164E-02  0.1226708E+00
        -11   -1    0    0    0    0  0.00000000000E+00  0.00000000000E+00  0.45593999997E+02  0.45594000000E+02  0.51100000000E-03 0.  1.
         11   -1    0    0    0    0 -0.00000000000E+00 -0.00000000000E+00 -0.45593999997E+02  0.45594000000E+02  0.51100000000E-03 0. -1.
    9900012    2    1    2    0    0  0.10675902741E+02 -0.71609685046E+01 -0.13617079498E+02  0.72461568858E+02  0.69999998129E+02 0.  0.
        -12    1    1    2    0    0 -0.10675902741E+02  0.71609685046E+01  0.13617079498E+02  0.18726431142E+02  0.00000000000E+00 0.  1.
         11    1    3    3    0    0 -0.28440979183E+01 -0.71583134715E+01 -0.55577385761E+01  0.94983579143E+01  0.51100000000E-03 0.  1.
        -11    1    3    3    0    0 -0.54641755697E+01 -0.76553535956E+01 -0.30896085031E+02  0.32295970705E+02  0.51100000000E-03 0. -1.
        -12    1    3    3    0    0  0.18984176229E+02  0.76526985625E+01  0.22836744108E+02  0.30667240238E+02  0.00000000000E+00 0.  1.
</event>
<event>
 7    1  0.3508738E-013  0.7246152E+02  0.7816164E-02  0.1226708E+00
        -11   -1    0    0    0    0  0.00000000000E+00  0.00000000000E+00  0.45593999997E+02  0.45594000000E+02  0.51100000000E-03 0. -1.
         11   -1    0    0    0    0 -0.00000000000E+00 -0.00000000000E+00 -0.45593999997E+02  0.45594000000E+02  0.51100000000E-03 0.  1.
    9900012    2    1    2    0    0 -0.68854882872E+01 -0.16778708615E+02 -0.46632640765E+01  0.72461520257E+02  0.69999934816E+02 0.  0.
        -12    1    1    2    0    0  0.68854882872E+01  0.16778708615E+02  0.46632640765E+01  0.18726479743E+02  0.00000000000E+00 0.  1.
         11    1    3    3    0    0 -0.26666659150E+02 -0.21404318637E+02  0.16159054159E+02  0.37820240587E+02  0.51100000000E-03 0. -1.
        -11    1    3    3    0    0  0.48543936393E+01 -0.28727663773E+01  0.23207161458E+01  0.60994793183E+01  0.51100000000E-03 0.  1.
        -12    1    3    3    0    0  0.14926777223E+02  0.74983763994E+01 -0.23143034381E+02  0.28541800351E+02  0.00000000000E+00 0.  1.
</event>
<event>
 7    1  0.3508738E-013  0.7246168E+02  0.7816164E-02  0.1226708E+00
        -11   -1    0    0    0    0  0.00000000000E+00  0.00000000000E+00  0.45593999997E+02  0.45594000000E+02  0.51100000000E-03 0. -1.
         11   -1    0    0    0    0 -0.00000000000E+00 -0.00000000000E+00 -0.45593999997E+02  0.45594000000E+02  0.51100000000E-03 0.  1.
    9900012    2    1    2    0    0 -0.11322936995E+02  0.10025779599E+02  0.11043097917E+02  0.72461677073E+02  0.70000139098E+02 0.  0.
        -12    1    1    2    0    0  0.11322936995E+02 -0.10025779599E+02 -0.11043097917E+02  0.18726322927E+02  0.00000000000E+00 0.  1.
         11    1    3    3    0    0 -0.39141382159E+01  0.11977585112E+02  0.21716678971E+02  0.25107711343E+02  0.51100000000E-03 0. -1.
        -11    1    3    3    0    0  0.94187580142E+01  0.65693435712E+01  0.12829443085E+02  0.17218126716E+02  0.51100000000E-03 0.  1.
        -12    1    3    3    0    0 -0.16827556794E+02 -0.85211490842E+01 -0.23503024139E+02  0.30135839013E+02  0.00000000000E+00 0.  1.
</event>
<event>
 7    1  0.3508738E-013  0.7246153E+02  0.7816164E-02  0.1226708E+00
        -11   -1    0    0    0    0  0.00000000000E+00  0.00000000000E+00  0.45593999997E+02  0.45594000000E+02  0.51100000000E-03 0.  1.
         11   -1    0    0    0    0 -0.00000000000E+00 -0.00000000000E+00 -0.45593999997E+02  0.45594000000E+02  0.51100000000E-03 0. -1.
    9900012    2    1    2    0    0  0.14833799772E+02 -0.67538906524E+01  0.92208522480E+01  0.72461527540E+02  0.69999944304E+02 0.  0.
        -12    1    1    2    0    0 -0.14833799772E+02  0.67538906524E+01 -0.92208522480E+01  0.18726472460E+02  0.00000000000E+00 0.  1.
         11    1    3    3    0    0 -0.62365282775E+01 -0.10403089238E+02 -0.52511367730E+00  0.12140605227E+02  0.51100000000E-03 0. -1.
        -11    1    3    3    0    0  0.23962535027E+02 -0.22667612001E+02  0.39734608484E+01  0.33223667921E+02  0.51100000000E-03 0.  1.
         12    1    3    3    0    0 -0.28922069777E+01  0.26316810587E+02  0.57725050768E+01  0.27097254391E+02  0.00000000000E+00 0. -1.
</event>
<event>
 7    1  0.3508738E-013  0.7246160E+02  0.7816164E-02  0.1226708E+00
        -11   -1    0    0    0    0  0.00000000000E+00  0.00000000000E+00  0.45593999997E+02  0.45594000000E+02  0.51100000000E-03 0.  1.
         11   -1    0    0    0    0 -0.00000000000E+00 -0.00000000000E+00 -0.45593999997E+02  0.45594000000E+02  0.51100000000E-03 0. -1.
    9900012    2    1    2    0    0 -0.10694233071E+01  0.15703744090E+02 -0.10145291889E+02  0.72461596390E+02  0.70000033994E+02 0.  0.
        -12    1    1    2    0    0  0.10694233071E+01 -0.15703744090E+02  0.10145291889E+02  0.18726403610E+02  0.00000000000E+00 0.  1.
         11    1    3    3    0    0 -0.13865149832E+02  0.21650314636E+02 -0.13136546642E+02  0.28871220300E+02  0.51100000000E-03 0. -1.
        -11    1    3    3    0    0  0.26425317754E+02  0.29982861875E+01  0.53214604440E+01  0.27122040484E+02  0.51100000000E-03 0.  1.
         12    1    3    3    0    0 -0.13629591229E+02 -0.89448567337E+01 -0.23302056914E+01  0.16468335606E+02  0.00000000000E+00 0. -1.
</event>
<event>
 7    1  0.3508738E-013  0.7246158E+02  0.7816164E-02  0.1226708E+00
        -11   -1    0    0    0    0  0.00000000000E+00  0.00000000000E+00  0.45593999997E+02  0.45594000000E+02  0.51100000000E-03 0. -1.
         11   -1    0    0    0    0 -0.00000000000E+00 -0.00000000000E+00 -0.45593999997E+02  0.45594000000E+02  0.51100000000E-03 0.  1.
    9900012    2    1    2    0    0  0.12033466535E+02  0.54907259672E+01  0.13256177765E+02  0.72461584501E+02  0.70000018507E+02 0.  0.
        -12    1    1    2    0    0 -0.12033466535E+02 -0.54907259672E+01 -0.13256177765E+02  0.18726415499E+02  0.00000000000E+00 0.  1.
         11    1    3    3    0    0  0.25893599404E+02  0.36876176920E+01 -0.15062699533E+02  0.30182145911E+02  0.51100000000E-03 0. -1.
        -11    1    3    3    0    0 -0.72326144950E+01  0.14606520086E+02  0.10628239234E+02  0.19458175941E+02  0.51100000000E-03 0.  1.
        -12    1    3    3    0    0 -0.66275183737E+01 -0.12803411811E+02  0.17690638064E+02  0.22821262649E+02  0.00000000000E+00 0.  1.
</event>
<event>
 7    1  0.3508738E-013  0.7246156E+02  0.7816164E-02  0.1226708E+00
        -11   -1    0    0    0    0  0.00000000000E+00  0.00000000000E+00  0.45593999997E+02  0.45594000000E+02  0.51100000000E-03 0.  1.
         11   -1    0    0    0    0 -0.00000000000E+00 -0.00000000000E+00 -0.45593999997E+02  0.45594000000E+02  0.51100000000E-03 0. -1.
    9900012    2    1    2    0    0 -0.12200154467E+02 -0.12594352738E+02  0.65740437513E+01  0.72461560372E+02  0.69999987074E+02 0.  0.
        -12    1    1    2    0    0  0.12200154467E+02  0.12594352738E+02 -0.65740437513E+01  0.18726439628E+02  0.00000000000E+00 0.  1.
         11    1    3    3    0    0 -0.16589850709E+02 -0.13767966764E+02 -0.13865239964E+02  0.25632497632E+02  0.51100000000E-03 0. -1.
        -11    1    3    3    0    0  0.46228772233E+01 -0.16338073150E+02 -0.33316662833E+01  0.17303283750E+02  0.51100000000E-03 0.  1.
        -12    1    3    3    0    0 -0.23318098115E+00  0.17511687176E+02  0.23770949998E+02  0.29525778989E+02  0.00000000000E+00 0.  1.
</event>
<event>
 7    1  0.3508738E-013  0.7246159E+02  0.7816164E-02  0.1226708E+00
        -11   -1    0    0    0    0  0.00000000000E+00  0.00000000000E+00  0.45593999997E+02  0.45594000000E+02  0.51100000000E-03 0.  1.
         11   -1    0    0    0    0 -0.00000000000E+00 -0.00000000000E+00 -0.45593999997E+02  0.45594000000E+02  0.51100000000E-03 0. -1.
    9900012    2    1    2    0    0  0.48749091430E+01 -0.77231683546E+01  0.16348282261E+02  0.72461590801E+02  0.70000026714E+02 0.  0.
        -12    1    1    2    0    0 -0.48749091430E+01  0.77231683546E+01 -0.16348282261E+02  0.18726409199E+02  0.00000000000E+00 0.  1.
         11    1    3    3    0    0 -0.12994353532E+02  0.40853829462E+01  0.65990719794E+01  0.15135763238E+02  0.51100000000E-03 0. -1.
        -11    1    3    3    0    0 -0.10420929212E+02  0.14441645165E+02  0.45794150744E+01  0.18388255040E+02  0.51100000000E-03 0.  1.
         12    1    3    3    0    0  0.28290191887E+02 -0.26250196466E+02  0.51697952077E+01  0.38937572524E+02  0.00000000000E+00 0. -1.
</event>
<event>
 7    1  0.3508738E-013  0.7246159E+02  0.7816164E-02  0.1226708E+00
        -11   -1    0    0    0    0  0.00000000000E+00  0.00000000000E+00  0.45593999997E+02  0.45594000000E+02  0.51100000000E-03 0.  1.
         11   -1    0    0    0    0 -0.00000000000E+00 -0.00000000000E+00 -0.45593999997E+02  0.45594000000E+02  0.51100000000E-03 0. -1.
    9900012    2    1    2    0    0 -0.14207218901E+02  0.11594619048E+02  0.37944906093E+01  0.72461590340E+02  0.70000026113E+02 0.  0.
        -12    1    1    2    0    0  0.14207218901E+02 -0.11594619048E+02 -0.37944906093E+01  0.18726409660E+02  0.00000000000E+00 0.  1.
         11    1    3    3    0    0 -0.12809104217E+01 -0.63324916293E+01  0.47118283319E+01  0.79964059573E+01  0.51100000000E-03 0. -1.
        -11    1    3    3    0    0  0.95470937624E+01 -0.18979080080E+02  0.91864004894E-02  0.21245059771E+02  0.51100000000E-03 0.  1.
         12    1    3    3    0    0 -0.22473402241E+02  0.36906190758E+02 -0.92652412308E+00  0.43220124612E+02  0.00000000000E+00 0. -1.
</event>
<event>
 7    1  0.3508738E-013  0.7246159E+02  0.7816164E-02  0.1226708E+00
        -11   -1    0    0    0    0  0.00000000000E+00  0.00000000000E+00  0.45593999997E+02  0.45594000000E+02  0.51100000000E-03 0.  1.
         11   -1    0    0    0    0 -0.00000000000E+00 -0.00000000000E+00 -0.45593999997E+02  0.45594000000E+02  0.51100000000E-03 0. -1.
    9900012    2    1    2    0    0 -0.28913214480E+01  0.89359009120E+01 -0.16200877280E+02  0.72461588452E+02  0.70000023653E+02 0.  0.
        -12    1    1    2    0    0  0.28913214480E+01 -0.89359009120E+01  0.16200877280E+02  0.18726411548E+02  0.00000000000E+00 0.  1.
         11    1    3    3    0    0 -0.20077113745E+02  0.15886488876E+02 -0.63865207714E+01  0.26386713947E+02  0.51100000000E-03 0. -1.
        -11    1    3    3    0    0 -0.50108033472E+01  0.35536948580E+01 -0.18913913832E+02  0.19886503817E+02  0.51100000000E-03 0.  1.
        -12    1    3    3    0    0  0.22196595644E+02 -0.10504282822E+02  0.90995573234E+01  0.26188370687E+02  0.00000000000E+00 0.  1.
</event>
<event>
 7    1  0.3508738E-013  0.7246160E+02  0.7816164E-02  0.1226708E+00
        -11   -1    0    0    0    0  0.00000000000E+00  0.00000000000E+00  0.45593999997E+02  0.45594000000E+02  0.51100000000E-03 0.  1.
         11   -1    0    0    0    0 -0.00000000000E+00 -0.00000000000E+00 -0.45593999997E+02  0.45594000000E+02  0.51100000000E-03 0. -1.
    9900012    2    1    2    0    0 -0.16493562009E+02  0.61593442690E+01 -0.63798959370E+01  0.72461596669E+02  0.70000034357E+02 0.  0.
        -12    1    1    2    0    0  0.16493562009E+02 -0.61593442690E+01  0.63798959370E+01  0.18726403331E+02  0.00000000000E+00 0.  1.
         11    1    3    3    0    0 -0.18686389117E+02  0.12704240716E+01 -0.33789200782E+02  0.38632954913E+02  0.51100000000E-03 0. -1.
        -11    1    3    3    0    0 -0.57914301601E+01  0.81874579537E+00  0.99191680426E+00  0.59325295772E+01  0.51100000000E-03 0.  1.
        -12    1    3    3    0    0  0.79842572685E+01  0.40701744020E+01  0.26417388040E+02  0.27896112178E+02  0.00000000000E+00 0.  1.
</event>
<event>
 7    1  0.3508738E-013  0.7246158E+02  0.7816164E-02  0.1226708E+00
        -11   -1    0    0    0    0  0.00000000000E+00  0.00000000000E+00  0.45593999997E+02  0.45594000000E+02  0.51100000000E-03 0.  1.
         11   -1    0    0    0    0 -0.00000000000E+00 -0.00000000000E+00 -0.45593999997E+02  0.45594000000E+02  0.51100000000E-03 0. -1.
    9900012    2    1    2    0    0  0.58972776204E+01  0.12117386414E+02 -0.13002685779E+02  0.72461580847E+02  0.70000013747E+02 0.  0.
        -12    1    1    2    0    0 -0.58972776204E+01 -0.12117386414E+02  0.13002685779E+02  0.18726419153E+02  0.00000000000E+00 0.  1.
         11    1    3    3    0    0  0.43734140089E+00  0.16280698822E+02 -0.87671716345E+01  0.18496370464E+02  0.51100000000E-03 0. -1.
        -11    1    3    3    0    0  0.95282677193E+01  0.16768000393E+02 -0.19742859567E+02  0.27599533095E+02  0.51100000000E-03 0.  1.
        -12    1    3    3    0    0 -0.40683314997E+01 -0.20931312801E+02  0.15507345423E+02  0.26365677287E+02  0.00000000000E+00 0.  1.
</event>
<event>
 7    1  0.3508738E-013  0.7246157E+02  0.7816164E-02  0.1226708E+00
        -11   -1    0    0    0    0  0.00000000000E+00  0.00000000000E+00  0.45593999997E+02  0.45594000000E+02  0.51100000000E-03 0.  1.
         11   -1    0    0    0    0 -0.00000000000E+00 -0.00000000000E+00 -0.45593999997E+02  0.45594000000E+02  0.51100000000E-03 0. -1.
    9900012    2    1    2    0    0 -0.15581563750E+00 -0.18725706919E+02  0.52418268338E-01  0.72461571461E+02  0.70000001520E+02 0.  0.
        -12    1    1    2    0    0  0.15581563750E+00  0.18725706919E+02 -0.52418268338E-01  0.18726428539E+02  0.00000000000E+00 0.  1.
         11    1    3    3    0    0 -0.61838054296E+01 -0.86074846961E+01  0.98723087427E+01  0.14484154189E+02  0.51100000000E-03 0. -1.
        -11    1    3    3    0    0 -0.23758678675E+02 -0.45002026662E+01 -0.13077784476E+02  0.27491000045E+02  0.51100000000E-03 0.  1.
         12    1    3    3    0    0  0.29786668467E+02 -0.56180195568E+01  0.32578940012E+01  0.30486417228E+02  0.00000000000E+00 0. -1.
</event>
<event>
 7    1  0.3508738E-013  0.7246203E+02  0.7816164E-02  0.1226707E+00
        -11   -1    0    0    0    0  0.00000000000E+00  0.00000000000E+00  0.45593999997E+02  0.45594000000E+02  0.51100000000E-03 0.  1.
         11   -1    0    0    0    0 -0.00000000000E+00 -0.00000000000E+00 -0.45593999997E+02  0.45594000000E+02  0.51100000000E-03 0. -1.
    9900012    2    1    2    0    0  0.15226872465E+02 -0.67261151604E+00 -0.10878964322E+02  0.72462030972E+02  0.70000600116E+02 0.  0.
        -12    1    1    2    0    0 -0.15226872465E+02  0.67261151604E+00  0.10878964322E+02  0.18725969028E+02  0.00000000000E+00 0.  1.
         11    1    3    3    0    0  0.16201981723E+02 -0.14870453704E+02 -0.24977208615E+02  0.33279055810E+02  0.51100000000E-03 0. -1.
        -11    1    3    3    0    0 -0.87297981969E+01 -0.86303457050E+01  0.29731557857E+01  0.12630593776E+02  0.51100000000E-03 0.  1.
         12    1    3    3    0    0  0.77546889386E+01  0.22828187893E+02  0.11125088507E+02  0.26552381386E+02  0.00000000000E+00 0. -1.
</event>
<event>
 7    1  0.3508738E-013  0.7246150E+02  0.7816164E-02  0.1226708E+00
        -11   -1    0    0    0    0  0.00000000000E+00  0.00000000000E+00  0.45593999997E+02  0.45594000000E+02  0.51100000000E-03 0. -1.
         11   -1    0    0    0    0 -0.00000000000E+00 -0.00000000000E+00 -0.45593999997E+02  0.45594000000E+02  0.51100000000E-03 0.  1.
    9900012    2    1    2    0    0 -0.43687249847E+01 -0.17114319776E+02  0.62206093492E+01  0.72461503263E+02  0.69999912679E+02 0.  0.
        -12    1    1    2    0    0  0.43687249847E+01  0.17114319776E+02 -0.62206093492E+01  0.18726496737E+02  0.00000000000E+00 0.  1.
         11    1    3    3    0    0 -0.23506863820E+02 -0.93506806371E+01  0.66160369208E+01  0.26149183922E+02  0.51100000000E-03 0. -1.
        -11    1    3    3    0    0  0.41286394769E+01  0.65595502610E+01 -0.17682833933E+02  0.19306889437E+02  0.51100000000E-03 0.  1.
        -12    1    3    3    0    0  0.15009499358E+02 -0.14323189400E+02  0.17287406362E+02  0.27005429903E+02  0.00000000000E+00 0.  1.
</event>
<event>
 7    1  0.3508738E-013  0.7246156E+02  0.7816164E-02  0.1226708E+00
        -11   -1    0    0    0    0  0.00000000000E+00  0.00000000000E+00  0.45593999997E+02  0.45594000000E+02  0.51100000000E-03 0.  1.
         11   -1    0    0    0    0 -0.00000000000E+00 -0.00000000000E+00 -0.45593999997E+02  0.45594000000E+02  0.51100000000E-03 0. -1.
    9900012    2    1    2    0    0  0.50591301186E+01  0.10731296665E+02 -0.14488760035E+02  0.72461556317E+02  0.69999981792E+02 0.  0.
        -12    1    1    2    0    0 -0.50591301186E+01 -0.10731296665E+02  0.14488760035E+02  0.18726443683E+02  0.00000000000E+00 0.  1.
         11    1    3    3    0    0 -0.14651753351E+02  0.10915050444E+02  0.31419862746E+01  0.18538723809E+02  0.51100000000E-03 0. -1.
        -11    1    3    3    0    0 -0.11029944627E+02  0.10744940271E+02  0.24799774091E+01  0.15596913416E+02  0.51100000000E-03 0.  1.
         12    1    3    3    0    0  0.30740828097E+02 -0.10928694050E+02 -0.20110723719E+02  0.38325919092E+02  0.00000000000E+00 0. -1.
</event>
<event>
 7    1  0.3508738E-013  0.7246164E+02  0.7816164E-02  0.1226708E+00
        -11   -1    0    0    0    0  0.00000000000E+00  0.00000000000E+00  0.45593999997E+02  0.45594000000E+02  0.51100000000E-03 0.  1.
         11   -1    0    0    0    0 -0.00000000000E+00 -0.00000000000E+00 -0.45593999997E+02  0.45594000000E+02  0.51100000000E-03 0. -1.
    9900012    2    1    2    0    0  0.12603353558E+02  0.36361762222E+01 -0.13364509952E+02  0.72461643582E+02  0.70000095471E+02 0.  0.
        -12    1    1    2    0    0 -0.12603353558E+02 -0.36361762222E+01  0.13364509952E+02  0.18726356418E+02  0.00000000000E+00 0.  1.
         11    1    3    3    0    0  0.20827674813E+01  0.43084334556E-01  0.33796209978E+01  0.39700900482E+01  0.51100000000E-03 0. -1.
        -11    1    3    3    0    0 -0.14083925274E+02  0.68325298723E+01  0.19225004146E+02  0.24791958378E+02  0.51100000000E-03 0.  1.
         12    1    3    3    0    0  0.24604511351E+02 -0.32394379847E+01 -0.35969135095E+02  0.43699595156E+02  0.00000000000E+00 0. -1.
</event>
<event>
 7    1  0.3508738E-013  0.7246158E+02  0.7816164E-02  0.1226708E+00
        -11   -1    0    0    0    0  0.00000000000E+00  0.00000000000E+00  0.45593999997E+02  0.45594000000E+02  0.51100000000E-03 0. -1.
         11   -1    0    0    0    0 -0.00000000000E+00 -0.00000000000E+00 -0.45593999997E+02  0.45594000000E+02  0.51100000000E-03 0.  1.
    9900012    2    1    2    0    0  0.84354991976E+01 -0.34726043157E+01  0.16354276304E+02  0.72461575332E+02  0.70000006562E+02 0.  0.
        -12    1    1    2    0    0 -0.84354991976E+01  0.34726043157E+01 -0.16354276304E+02  0.18726424668E+02  0.00000000000E+00 0.  1.
         11    1    3    3    0    0  0.12571126392E+02 -0.10705093189E+00 -0.20776031879E+01  0.12742100060E+02  0.51100000000E-03 0. -1.
        -11    1    3    3    0    0 -0.61285162820E+01  0.16024596256E+02 -0.13822975880E+02  0.22032273133E+02  0.51100000000E-03 0.  1.
         12    1    3    3    0    0  0.19928890874E+01 -0.19390149640E+02  0.32254855371E+02  0.37687202138E+02  0.00000000000E+00 0. -1.
</event>
<event>
 7    1  0.3508738E-013  0.7246154E+02  0.7816164E-02  0.1226708E+00
        -11   -1    0    0    0    0  0.00000000000E+00  0.00000000000E+00  0.45593999997E+02  0.45594000000E+02  0.51100000000E-03 0.  1.
         11   -1    0    0    0    0 -0.00000000000E+00 -0.00000000000E+00 -0.45593999997E+02  0.45594000000E+02  0.51100000000E-03 0. -1.
    9900012    2    1    2    0    0  0.48825974096E+01  0.33598177177E+00 -0.18075607596E+02  0.72461541948E+02  0.69999963074E+02 0.  0.
        -12    1    1    2    0    0 -0.48825974096E+01 -0.33598177177E+00  0.18075607596E+02  0.18726458052E+02  0.00000000000E+00 0.  1.
         11    1    3    3    0    0 -0.53816149322E+01  0.23087052295E+02 -0.49764577857E+01  0.24222693808E+02  0.51100000000E-03 0. -1.
        -11    1    3    3    0    0  0.20342806140E+02  0.63125591247E+00 -0.97170407876E+01  0.22553250932E+02  0.51100000000E-03 0.  1.
        -12    1    3    3    0    0 -0.10078593798E+02 -0.23382326436E+02 -0.33821090226E+01  0.25685597208E+02  0.00000000000E+00 0.  1.
</event>
<event>
 7    1  0.3508738E-013  0.7246152E+02  0.7816164E-02  0.1226708E+00
        -11   -1    0    0    0    0  0.00000000000E+00  0.00000000000E+00  0.45593999997E+02  0.45594000000E+02  0.51100000000E-03 0.  1.
         11   -1    0    0    0    0 -0.00000000000E+00 -0.00000000000E+00 -0.45593999997E+02  0.45594000000E+02  0.51100000000E-03 0. -1.
    9900012    2    1    2    0    0  0.10833205921E+01  0.69540631826E+01 -0.17353629276E+02  0.72461520691E+02  0.69999935383E+02 0.  0.
        -12    1    1    2    0    0 -0.10833205921E+01 -0.69540631826E+01  0.17353629276E+02  0.18726479309E+02  0.00000000000E+00 0.  1.
         11    1    3    3    0    0  0.13689302719E+02  0.23136089922E+02 -0.17552610001E+02  0.32105603621E+02  0.51100000000E-03 0. -1.
        -11    1    3    3    0    0 -0.21713840974E+02 -0.27490512316E+01  0.66744547206E+01  0.22882231504E+02  0.51100000000E-03 0.  1.
        -12    1    3    3    0    0  0.91078588479E+01 -0.13432975508E+02 -0.64754739958E+01  0.17473685566E+02  0.00000000000E+00 0.  1.
</event>
<event>
 7    1  0.3508738E-013  0.7246129E+02  0.7816164E-02  0.1226709E+00
        -11   -1    0    0    0    0  0.00000000000E+00  0.00000000000E+00  0.45593999997E+02  0.45594000000E+02  0.51100000000E-03 0.  1.
         11   -1    0    0    0    0 -0.00000000000E+00 -0.00000000000E+00 -0.45593999997E+02  0.45594000000E+02  0.51100000000E-03 0. -1.
    9900012    2    1    2    0    0  0.15689267648E+02 -0.93626164765E+01  0.41082740039E+01  0.72461291215E+02  0.69999636447E+02 0.  0.
        -12    1    1    2    0    0 -0.15689267648E+02  0.93626164765E+01 -0.41082740039E+01  0.18726708785E+02  0.00000000000E+00 0.  1.
         11    1    3    3    0    0  0.35013800695E+02 -0.13130404695E+01 -0.16437150680E+01  0.35076945618E+02  0.51100000000E-03 0. -1.
        -11    1    3    3    0    0  0.33421390987E+01  0.71249583516E+01  0.63320807326E+01  0.10100998561E+02  0.51100000000E-03 0.  1.
        -12    1    3    3    0    0 -0.22666672146E+02 -0.15174534359E+02 -0.58009166066E+00  0.27283347036E+02  0.00000000000E+00 0.  1.
</event>
<event>
 7    1  0.3508738E-013  0.7246146E+02  0.7816164E-02  0.1226708E+00
        -11   -1    0    0    0    0  0.00000000000E+00  0.00000000000E+00  0.45593999997E+02  0.45594000000E+02  0.51100000000E-03 0.  1.
         11   -1    0    0    0    0 -0.00000000000E+00 -0.00000000000E+00 -0.45593999997E+02  0.45594000000E+02  0.51100000000E-03 0. -1.
    9900012    2    1    2    0    0  0.20721316491E+01 -0.17707394999E+02 -0.57304192047E+01  0.72461460771E+02  0.69999857326E+02 0.  0.
        -12    1    1    2    0    0 -0.20721316491E+01  0.17707394999E+02  0.57304192047E+01  0.18726539229E+02  0.00000000000E+00 0.  1.
         11    1    3    3    0    0  0.46786915526E+01  0.13488504368E+02  0.71909111141E+01  0.15985590626E+02  0.51100000000E-03 0.  1.
        -11    1    3    3    0    0 -0.68478678750E+01  0.98836340390E+01  0.26977456176E+01  0.12323041343E+02  0.51100000000E-03 0. -1.
         12    1    3    3    0    0  0.42413079714E+01 -0.41079533406E+02 -0.15619075936E+02  0.44152828803E+02  0.00000000000E+00 0. -1.
</event>
<event>
 7    1  0.3508738E-013  0.7246157E+02  0.7816164E-02  0.1226708E+00
        -11   -1    0    0    0    0  0.00000000000E+00  0.00000000000E+00  0.45593999997E+02  0.45594000000E+02  0.51100000000E-03 0. -1.
         11   -1    0    0    0    0 -0.00000000000E+00 -0.00000000000E+00 -0.45593999997E+02  0.45594000000E+02  0.51100000000E-03 0.  1.
    9900012    2    1    2    0    0 -0.15026773486E+02 -0.10667061859E+02  0.33300494246E+01  0.72461565228E+02  0.69999993400E+02 0.  0.
        -12    1    1    2    0    0  0.15026773486E+02  0.10667061859E+02 -0.33300494246E+01  0.18726434772E+02  0.00000000000E+00 0.  1.
         11    1    3    3    0    0  0.12682994782E+02 -0.17435684112E+02 -0.67205051812E+01  0.22583769111E+02  0.51100000000E-03 0. -1.
        -11    1    3    3    0    0  0.51907626308E+01  0.99794419861E+01 -0.64127242524E+01  0.12948216543E+02  0.51100000000E-03 0.  1.
         12    1    3    3    0    0 -0.32900530899E+02 -0.32108197339E+01  0.16463278858E+02  0.36929579574E+02  0.00000000000E+00 0. -1.
</event>
<event>
 7    1  0.3508738E-013  0.7246153E+02  0.7816164E-02  0.1226708E+00
        -11   -1    0    0    0    0  0.00000000000E+00  0.00000000000E+00  0.45593999997E+02  0.45594000000E+02  0.51100000000E-03 0.  1.
         11   -1    0    0    0    0 -0.00000000000E+00 -0.00000000000E+00 -0.45593999997E+02  0.45594000000E+02  0.51100000000E-03 0. -1.
    9900012    2    1    2    0    0  0.22311060700E+01 -0.94235799451E+01 -0.16028066608E+02  0.72461531767E+02  0.69999949811E+02 0.  0.
        -12    1    1    2    0    0 -0.22311060700E+01  0.94235799451E+01  0.16028066608E+02  0.18726468233E+02  0.00000000000E+00 0.  1.
         11    1    3    3    0    0 -0.36576869092E+01 -0.81257385987E+01 -0.17597565476E+02  0.19725126419E+02  0.51100000000E-03 0. -1.
        -11    1    3    3    0    0 -0.11035950116E+02 -0.20295021042E+02  0.11019685473E+02  0.25595185919E+02  0.51100000000E-03 0.  1.
        -12    1    3    3    0    0  0.16924743095E+02  0.18997179696E+02 -0.94501866055E+01  0.27141219429E+02  0.00000000000E+00 0.  1.
</event>
<event>
 7    1  0.3508738E-013  0.7246154E+02  0.7816164E-02  0.1226708E+00
        -11   -1    0    0    0    0  0.00000000000E+00  0.00000000000E+00  0.45593999997E+02  0.45594000000E+02  0.51100000000E-03 0.  1.
         11   -1    0    0    0    0 -0.00000000000E+00 -0.00000000000E+00 -0.45593999997E+02  0.45594000000E+02  0.51100000000E-03 0. -1.
    9900012    2    1    2    0    0  0.16611197312E+02  0.57900573962E+01  0.64205539178E+01  0.72461544025E+02  0.69999965779E+02 0.  0.
        -12    1    1    2    0    0 -0.16611197312E+02 -0.57900573962E+01 -0.64205539178E+01  0.18726455975E+02  0.00000000000E+00 0.  1.
         11    1    3    3    0    0 -0.39751124340E+01  0.23743948391E+02 -0.45818239368E+00  0.24078756932E+02  0.51100000000E-03 0. -1.
        -11    1    3    3    0    0  0.42117971344E+01  0.12216446205E+02  0.54535543710E+01  0.14025763741E+02  0.51100000000E-03 0.  1.
        -12    1    3    3    0    0  0.16374512611E+02 -0.30170337199E+02  0.14251819405E+01  0.34357023351E+02  0.00000000000E+00 0.  1.
</event>
<event>
 7    1  0.3508738E-013  0.7246160E+02  0.7816164E-02  0.1226708E+00
        -11   -1    0    0    0    0  0.00000000000E+00  0.00000000000E+00  0.45593999997E+02  0.45594000000E+02  0.51100000000E-03 0. -1.
         11   -1    0    0    0    0 -0.00000000000E+00 -0.00000000000E+00 -0.45593999997E+02  0.45594000000E+02  0.51100000000E-03 0.  1.
    9900012    2    1    2    0    0  0.20026865578E+01  0.61289162919E+01  0.17581342186E+02  0.72461602551E+02  0.70000042021E+02 0.  0.
        -12    1    1    2    0    0 -0.20026865578E+01 -0.61289162919E+01 -0.17581342186E+02  0.18726397449E+02  0.00000000000E+00 0.  1.
         11    1    3    3    0    0 -0.19789446259E+02 -0.13384360970E+02  0.31636531289E+01  0.24099211672E+02  0.51100000000E-03 0. -1.
        -11    1    3    3    0    0  0.33620395853E+01 -0.26069038468E+01 -0.98359247199E+01  0.10716560698E+02  0.51100000000E-03 0.  1.
        -12    1    3    3    0    0  0.18430093232E+02  0.22120181108E+02  0.24253613777E+02  0.37645830181E+02  0.00000000000E+00 0.  1.
</event>
<event>
 7    1  0.3508738E-013  0.7246157E+02  0.7816164E-02  0.1226708E+00
        -11   -1    0    0    0    0  0.00000000000E+00  0.00000000000E+00  0.45593999997E+02  0.45594000000E+02  0.51100000000E-03 0. -1.
         11   -1    0    0    0    0 -0.00000000000E+00 -0.00000000000E+00 -0.45593999997E+02  0.45594000000E+02  0.51100000000E-03 0.  1.
    9900012    2    1    2    0    0  0.12094502385E+02  0.12594664785E+02  0.67658545783E+01  0.72461565285E+02  0.69999993474E+02 0.  0.
        -12    1    1    2    0    0 -0.12094502385E+02 -0.12594664785E+02 -0.67658545783E+01  0.18726434715E+02  0.00000000000E+00 0.  1.
         11    1    3    3    0    0  0.10622562968E+02  0.47310360272E+01 -0.18725455262E+02  0.22042327938E+02  0.51100000000E-03 0. -1.
        -11    1    3    3    0    0 -0.11793674682E+02 -0.40624930366E+00 -0.74509615120E+01  0.13956096472E+02  0.51100000000E-03 0.  1.
         12    1    3    3    0    0  0.13265614099E+02  0.82698780612E+01  0.32942271353E+02  0.36463140874E+02  0.00000000000E+00 0. -1.
</event>
<event>
 7    1  0.3508738E-013  0.7246157E+02  0.7816164E-02  0.1226708E+00
        -11   -1    0    0    0    0  0.00000000000E+00  0.00000000000E+00  0.45593999997E+02  0.45594000000E+02  0.51100000000E-03 0.  1.
         11   -1    0    0    0    0 -0.00000000000E+00 -0.00000000000E+00 -0.45593999997E+02  0.45594000000E+02  0.51100000000E-03 0. -1.
    9900012    2    1    2    0    0  0.11940998316E+02 -0.12479535003E+01 -0.14371299107E+02  0.72461573038E+02  0.70000003575E+02 0.  0.
        -12    1    1    2    0    0 -0.11940998316E+02  0.12479535003E+01  0.14371299107E+02  0.18726426962E+02  0.00000000000E+00 0.  1.
         11    1    3    3    0    0 -0.90453980524E+01 -0.94006421957E+01  0.13639000237E+01  0.13116841203E+02  0.51100000000E-03 0. -1.
        -11    1    3    3    0    0 -0.54289635326E+01 -0.44774942619E+01  0.15200245463E+02  0.16750195889E+02  0.51100000000E-03 0.  1.
         12    1    3    3    0    0  0.26415359901E+02  0.12630182957E+02 -0.30935444594E+02  0.42594535946E+02  0.00000000000E+00 0. -1.
</event>
<event>
 7    1  0.3508738E-013  0.7246156E+02  0.7816164E-02  0.1226708E+00
        -11   -1    0    0    0    0  0.00000000000E+00  0.00000000000E+00  0.45593999997E+02  0.45594000000E+02  0.51100000000E-03 0.  1.
         11   -1    0    0    0    0 -0.00000000000E+00 -0.00000000000E+00 -0.45593999997E+02  0.45594000000E+02  0.51100000000E-03 0. -1.
    9900012    2    1    2    0    0 -0.15035858158E+01 -0.14871715841E+02 -0.11280551535E+02  0.72461560261E+02  0.69999986930E+02 0.  0.
        -12    1    1    2    0    0  0.15035858158E+01  0.14871715841E+02  0.11280551535E+02  0.18726439739E+02  0.00000000000E+00 0.  1.
         11    1    3    3    0    0 -0.18741582899E+02  0.61073331670E+01  0.63795635919E+01  0.20718235443E+02  0.51100000000E-03 0. -1.
        -11    1    3    3    0    0 -0.29371451332E+01  0.99261850416E-01  0.10674518236E+02  0.11071676218E+02  0.51100000000E-03 0.  1.
        -12    1    3    3    0    0  0.20175142216E+02 -0.21078310858E+02 -0.28334633363E+02  0.40671648601E+02  0.00000000000E+00 0.  1.
</event>
<event>
 7    1  0.3508738E-013  0.7246158E+02  0.7816164E-02  0.1226708E+00
        -11   -1    0    0    0    0  0.00000000000E+00  0.00000000000E+00  0.45593999997E+02  0.45594000000E+02  0.51100000000E-03 0.  1.
         11   -1    0    0    0    0 -0.00000000000E+00 -0.00000000000E+00 -0.45593999997E+02  0.45594000000E+02  0.51100000000E-03 0. -1.
    9900012    2    1    2    0    0  0.81782928784E+01  0.16618005199E+02 -0.27633475520E+01  0.72461583874E+02  0.70000017691E+02 0.  0.
        -12    1    1    2    0    0 -0.81782928784E+01 -0.16618005199E+02  0.27633475520E+01  0.18726416126E+02  0.00000000000E+00 0.  1.
         11    1    3    3    0    0 -0.75361323493E+00  0.12769094179E+01 -0.11800379736E+02  0.11893165800E+02  0.51100000000E-03 0. -1.
        -11    1    3    3    0    0 -0.24812937641E+01 -0.19400031588E+02  0.13448224399E+02  0.23735475224E+02  0.51100000000E-03 0.  1.
         12    1    3    3    0    0  0.11413199877E+02  0.34741127369E+02 -0.44111922157E+01  0.36832942851E+02  0.00000000000E+00 0. -1.
</event>
<event>
 7    1  0.3508738E-013  0.7246157E+02  0.7816164E-02  0.1226708E+00
        -11   -1    0    0    0    0  0.00000000000E+00  0.00000000000E+00  0.45593999997E+02  0.45594000000E+02  0.51100000000E-03 0.  1.
         11   -1    0    0    0    0 -0.00000000000E+00 -0.00000000000E+00 -0.45593999997E+02  0.45594000000E+02  0.51100000000E-03 0. -1.
    9900012    2    1    2    0    0 -0.16195880135E+02 -0.80127343753E+01  0.49161566024E+01  0.72461573719E+02  0.70000004461E+02 0.  0.
        -12    1    1    2    0    0  0.16195880135E+02  0.80127343753E+01 -0.49161566024E+01  0.18726426281E+02  0.00000000000E+00 0.  1.
         11    1    3    3    0    0 -0.83700613785E+01 -0.12324466313E+02  0.18525593994E+02  0.23772842288E+02  0.51100000000E-03 0. -1.
        -11    1    3    3    0    0  0.95582195995E+01 -0.47114739638E+01  0.12258158501E+02  0.16242536715E+02  0.51100000000E-03 0.  1.
        -12    1    3    3    0    0 -0.17384038356E+02  0.90232059011E+01 -0.25867595893E+02  0.32446194716E+02  0.00000000000E+00 0.  1.
</event>
<event>
 7    1  0.3508738E-013  0.7246159E+02  0.7816164E-02  0.1226708E+00
        -11   -1    0    0    0    0  0.00000000000E+00  0.00000000000E+00  0.45593999997E+02  0.45594000000E+02  0.51100000000E-03 0.  1.
         11   -1    0    0    0    0 -0.00000000000E+00 -0.00000000000E+00 -0.45593999997E+02  0.45594000000E+02  0.51100000000E-03 0. -1.
    9900012    2    1    2    0    0 -0.57359407231E+01 -0.17171210385E+02  0.47882283410E+01  0.72461585161E+02  0.70000019367E+02 0.  0.
        -12    1    1    2    0    0  0.57359407231E+01  0.17171210385E+02 -0.47882283410E+01  0.18726414839E+02  0.00000000000E+00 0.  1.
         11    1    3    3    0    0 -0.18945501787E+02 -0.10690860716E+02 -0.75401164751E+01  0.23023464064E+02  0.51100000000E-03 0. -1.
        -11    1    3    3    0    0 -0.69155763868E+01  0.81998132936E+00  0.24045080321E+02  0.25033246974E+02  0.51100000000E-03 0.  1.
         12    1    3    3    0    0  0.20125137450E+02 -0.73003309986E+01 -0.11716735505E+02  0.24404874124E+02  0.00000000000E+00 0. -1.
</event>
<event>
 7    1  0.3508738E-013  0.7246160E+02  0.7816164E-02  0.1226708E+00
        -11   -1    0    0    0    0  0.00000000000E+00  0.00000000000E+00  0.45593999997E+02  0.45594000000E+02  0.51100000000E-03 0. -1.
         11   -1    0    0    0    0 -0.00000000000E+00 -0.00000000000E+00 -0.45593999997E+02  0.45594000000E+02  0.51100000000E-03 0.  1.
    9900012    2    1    2    0    0 -0.18913246601E+01  0.10081580033E+02  0.15667251438E+02  0.72461597981E+02  0.70000036067E+02 0.  0.
        -12    1    1    2    0    0  0.18913246601E+01 -0.10081580033E+02 -0.15667251438E+02  0.18726402019E+02  0.00000000000E+00 0.  1.
         11    1    3    3    0    0 -0.86431305320E+01  0.10615997565E+02 -0.16670856081E+02  0.21571290004E+02  0.51100000000E-03 0. -1.
        -11    1    3    3    0    0  0.36830641491E+01  0.12981398917E+02 -0.22028655176E+01  0.13672391749E+02  0.51100000000E-03 0.  1.
         12    1    3    3    0    0  0.30687417227E+01 -0.13515816448E+02  0.34540973037E+02  0.37217916229E+02  0.00000000000E+00 0. -1.
</event>
<event>
 7    1  0.3508738E-013  0.7246154E+02  0.7816164E-02  0.1226708E+00
        -11   -1    0    0    0    0  0.00000000000E+00  0.00000000000E+00  0.45593999997E+02  0.45594000000E+02  0.51100000000E-03 0. -1.
         11   -1    0    0    0    0 -0.00000000000E+00 -0.00000000000E+00 -0.45593999997E+02  0.45594000000E+02  0.51100000000E-03 0.  1.
    9900012    2    1    2    0    0 -0.18622483300E+02  0.19896743550E+00  0.19605257160E+01  0.72461544559E+02  0.69999966475E+02 0.  0.
        -12    1    1    2    0    0  0.18622483300E+02 -0.19896743550E+00 -0.19605257160E+01  0.18726455441E+02  0.00000000000E+00 0.  1.
         11    1    3    3    0    0 -0.12626350787E+02 -0.28479611209E+02 -0.17867143015E+00  0.31153569820E+02  0.51100000000E-03 0. -1.
        -11    1    3    3    0    0  0.47532713349E+01 -0.38640917208E+01  0.34127414197E+01  0.70122462499E+01  0.51100000000E-03 0.  1.
        -12    1    3    3    0    0 -0.10749403848E+02  0.32542670365E+02 -0.12735442736E+01  0.34295728489E+02  0.00000000000E+00 0.  1.
</event>
<event>
 7    1  0.3508738E-013  0.7246146E+02  0.7816164E-02  0.1226708E+00
        -11   -1    0    0    0    0  0.00000000000E+00  0.00000000000E+00  0.45593999997E+02  0.45594000000E+02  0.51100000000E-03 0. -1.
         11   -1    0    0    0    0 -0.00000000000E+00 -0.00000000000E+00 -0.45593999997E+02  0.45594000000E+02  0.51100000000E-03 0.  1.
    9900012    2    1    2    0    0 -0.15047506579E+02 -0.10517481750E+01  0.11097283215E+02  0.72461459390E+02  0.69999855526E+02 0.  0.
        -12    1    1    2    0    0  0.15047506579E+02  0.10517481750E+01 -0.11097283215E+02  0.18726540610E+02  0.00000000000E+00 0.  1.
         11    1    3    3    0    0  0.11505929394E+02 -0.73061934251E+01 -0.66405805607E+01  0.15161272507E+02  0.51100000000E-03 0. -1.
        -11    1    3    3    0    0  0.10842809513E+02 -0.84571472049E+01  0.81555614206E+01  0.15987590166E+02  0.51100000000E-03 0.  1.
         12    1    3    3    0    0 -0.37396245486E+02  0.14711592455E+02  0.95823023548E+01  0.41312596716E+02  0.00000000000E+00 0. -1.
</event>
<event>
 7    1  0.3508738E-013  0.7246159E+02  0.7816164E-02  0.1226708E+00
        -11   -1    0    0    0    0  0.00000000000E+00  0.00000000000E+00  0.45593999997E+02  0.45594000000E+02  0.51100000000E-03 0.  1.
         11   -1    0    0    0    0 -0.00000000000E+00 -0.00000000000E+00 -0.45593999997E+02  0.45594000000E+02  0.51100000000E-03 0. -1.
    9900012    2    1    2    0    0 -0.33042449482E+01  0.15007216832E+02 -0.10702522857E+02  0.72461585842E+02  0.70000020253E+02 0.  0.
        -12    1    1    2    0    0  0.33042449482E+01 -0.15007216832E+02  0.10702522857E+02  0.18726414158E+02  0.00000000000E+00 0.  1.
         11    1    3    3    0    0  0.16176457854E+01  0.17645316324E+02 -0.39705503836E+01  0.18158723431E+02  0.51100000000E-03 0.  1.
        -11    1    3    3    0    0 -0.16164379834E+02  0.21094840268E+02  0.19408382663E+01  0.26646694256E+02  0.51100000000E-03 0. -1.
         12    1    3    3    0    0  0.11242489100E+02 -0.23732939760E+02 -0.86728107401E+01  0.27656168154E+02  0.00000000000E+00 0. -1.
</event>
<event>
 7    1  0.3508738E-013  0.7246165E+02  0.7816164E-02  0.1226708E+00
        -11   -1    0    0    0    0  0.00000000000E+00  0.00000000000E+00  0.45593999997E+02  0.45594000000E+02  0.51100000000E-03 0. -1.
         11   -1    0    0    0    0 -0.00000000000E+00 -0.00000000000E+00 -0.45593999997E+02  0.45594000000E+02  0.51100000000E-03 0.  1.
    9900012    2    1    2    0    0  0.30633070759E+01 -0.30923448157E+01  0.18213451246E+02  0.72461648166E+02  0.70000101443E+02 0.  0.
        -12    1    1    2    0    0 -0.30633070759E+01  0.30923448157E+01 -0.18213451246E+02  0.18726351834E+02  0.00000000000E+00 0.  1.
         11    1    3    3    0    0  0.11152204457E+02 -0.47691715907E+01  0.55446449716E+01  0.13336406938E+02  0.51100000000E-03 0.  1.
        -11    1    3    3    0    0  0.68818667347E+01 -0.16480879219E+02  0.26403704980E+02  0.31876874165E+02  0.51100000000E-03 0. -1.
        -12    1    3    3    0    0 -0.14970764115E+02  0.18157705994E+02 -0.13734898705E+02  0.27248367063E+02  0.00000000000E+00 0.  1.
</event>
<event>
 7    1  0.3508738E-013  0.7246158E+02  0.7816164E-02  0.1226708E+00
        -11   -1    0    0    0    0  0.00000000000E+00  0.00000000000E+00  0.45593999997E+02  0.45594000000E+02  0.51100000000E-03 0.  1.
         11   -1    0    0    0    0 -0.00000000000E+00 -0.00000000000E+00 -0.45593999997E+02  0.45594000000E+02  0.51100000000E-03 0. -1.
    9900012    2    1    2    0    0  0.25521450099E+01  0.11174483507E+02 -0.14808659305E+02  0.72461577058E+02  0.70000008811E+02 0.  0.
        -12    1    1    2    0    0 -0.25521450099E+01 -0.11174483507E+02  0.14808659305E+02  0.18726422942E+02  0.00000000000E+00 0.  1.
         11    1    3    3    0    0  0.18267449014E+02 -0.10019168803E+02 -0.26662953955E+02  0.33837797666E+02  0.51100000000E-03 0. -1.
        -11    1    3    3    0    0  0.21327454080E+01  0.18226565482E+02  0.84940163094E+01  0.20221389803E+02  0.51100000000E-03 0.  1.
        -12    1    3    3    0    0 -0.17848049412E+02  0.29670868281E+01  0.33602783411E+01  0.18402389589E+02  0.00000000000E+00 0.  1.
</event>
<event>
 7    1  0.3508738E-013  0.7246165E+02  0.7816164E-02  0.1226708E+00
        -11   -1    0    0    0    0  0.00000000000E+00  0.00000000000E+00  0.45593999997E+02  0.45594000000E+02  0.51100000000E-03 0.  1.
         11   -1    0    0    0    0 -0.00000000000E+00 -0.00000000000E+00 -0.45593999997E+02  0.45594000000E+02  0.51100000000E-03 0. -1.
    9900012    2    1    2    0    0 -0.17367784349E+02 -0.69439194997E+01 -0.90461047672E+00  0.72461647677E+02  0.70000100805E+02 0.  0.
        -12    1    1    2    0    0  0.17367784349E+02  0.69439194997E+01  0.90461047672E+00  0.18726352323E+02  0.00000000000E+00 0.  1.
         11    1    3    3    0    0 -0.11814511053E+02 -0.46508318838E+01 -0.15632599125E+02  0.20139291554E+02  0.51100000000E-03 0. -1.
        -11    1    3    3    0    0  0.25032278103E+01 -0.25341268749E+02  0.45391044834E+01  0.25865991592E+02  0.51100000000E-03 0.  1.
        -12    1    3    3    0    0 -0.80565011067E+01  0.23048181133E+02  0.10188884165E+02  0.26456364530E+02  0.00000000000E+00 0.  1.
</event>
<event>
 7    1  0.3508738E-013  0.7246158E+02  0.7816164E-02  0.1226708E+00
        -11   -1    0    0    0    0  0.00000000000E+00  0.00000000000E+00  0.45593999997E+02  0.45594000000E+02  0.51100000000E-03 0.  1.
         11   -1    0    0    0    0 -0.00000000000E+00 -0.00000000000E+00 -0.45593999997E+02  0.45594000000E+02  0.51100000000E-03 0. -1.
    9900012    2    1    2    0    0 -0.84866981928E+01 -0.10386676288E+02 -0.13067958088E+02  0.72461584990E+02  0.70000019144E+02 0.  0.
        -12    1    1    2    0    0  0.84866981928E+01  0.10386676288E+02  0.13067958088E+02  0.18726415010E+02  0.00000000000E+00 0.  1.
         11    1    3    3    0    0  0.20217077834E+02 -0.90105771809E+01 -0.18509067657E+02  0.28853185666E+02  0.51100000000E-03 0. -1.
        -11    1    3    3    0    0 -0.16412708562E+02 -0.63749893807E+01 -0.12282653945E+02  0.21468141050E+02  0.51100000000E-03 0.  1.
        -12    1    3    3    0    0 -0.12291067464E+02  0.49988902735E+01  0.17723763513E+02  0.22140258274E+02  0.00000000000E+00 0.  1.
</event>
<event>
 7    1  0.3508738E-013  0.7246142E+02  0.7816164E-02  0.1226708E+00
        -11   -1    0    0    0    0  0.00000000000E+00  0.00000000000E+00  0.45593999997E+02  0.45594000000E+02  0.51100000000E-03 0.  1.
         11   -1    0    0    0    0 -0.00000000000E+00 -0.00000000000E+00 -0.45593999997E+02  0.45594000000E+02  0.51100000000E-03 0. -1.
    9900012    2    1    2    0    0  0.70201584513E+01 -0.17096150180E+02 -0.30205485172E+01  0.72461422923E+02  0.69999808021E+02 0.  0.
        -12    1    1    2    0    0 -0.70201584513E+01  0.17096150180E+02  0.30205485172E+01  0.18726577077E+02  0.00000000000E+00 0.  1.
         11    1    3    3    0    0 -0.92356208119E+01 -0.50075588677E+01  0.18287806654E+02  0.21090666420E+02  0.51100000000E-03 0.  1.
        -11    1    3    3    0    0  0.13379024628E+01  0.83768062545E+01  0.86681277383E+01  0.12128367770E+02  0.51100000000E-03 0. -1.
         12    1    3    3    0    0  0.14917876800E+02 -0.20465397567E+02 -0.29976482909E+02  0.39242388732E+02  0.00000000000E+00 0. -1.
</event>
<event>
 7    1  0.3508738E-013  0.7246174E+02  0.7816164E-02  0.1226708E+00
        -11   -1    0    0    0    0  0.00000000000E+00  0.00000000000E+00  0.45593999997E+02  0.45594000000E+02  0.51100000000E-03 0.  1.
         11   -1    0    0    0    0 -0.00000000000E+00 -0.00000000000E+00 -0.45593999997E+02  0.45594000000E+02  0.51100000000E-03 0. -1.
    9900012    2    1    2    0    0 -0.20408539821E+01 -0.21776566429E+01 -0.18486904641E+02  0.72461737249E+02  0.70000217489E+02 0.  0.
        -12    1    1    2    0    0  0.20408539821E+01  0.21776566429E+01  0.18486904641E+02  0.18726262751E+02  0.00000000000E+00 0.  1.
         11    1    3    3    0    0 -0.10227542708E+02  0.98991471554E+01 -0.38964393506E+02  0.41482763961E+02  0.51100000000E-03 0. -1.
        -11    1    3    3    0    0 -0.53012383453E+01 -0.33643456899E+00  0.55864672733E+01  0.77087569082E+01  0.51100000000E-03 0.  1.
        -12    1    3    3    0    0  0.13487927071E+02 -0.11740369229E+02  0.14891021592E+02  0.23270216380E+02  0.00000000000E+00 0.  1.
</event>
<event>
 7    1  0.3508738E-013  0.7246157E+02  0.7816164E-02  0.1226708E+00
        -11   -1    0    0    0    0  0.00000000000E+00  0.00000000000E+00  0.45593999997E+02  0.45594000000E+02  0.51100000000E-03 0.  1.
         11   -1    0    0    0    0 -0.00000000000E+00 -0.00000000000E+00 -0.45593999997E+02  0.45594000000E+02  0.51100000000E-03 0. -1.
    9900012    2    1    2    0    0  0.41338251727E+01  0.15920063242E+02 -0.89522105237E+01  0.72461574889E+02  0.70000005985E+02 0.  0.
        -12    1    1    2    0    0 -0.41338251727E+01 -0.15920063242E+02  0.89522105237E+01  0.18726425111E+02  0.00000000000E+00 0.  1.
         11    1    3    3    0    0  0.28797654173E+02 -0.49121760428E+01 -0.10330294421E+02  0.30986276679E+02  0.51100000000E-03 0. -1.
        -11    1    3    3    0    0  0.27331653068E+01  0.54139805219E+01  0.72940069591E+01  0.94859852133E+01  0.51100000000E-03 0.  1.
        -12    1    3    3    0    0 -0.27396994307E+02  0.15418258763E+02 -0.59159230613E+01  0.31989312997E+02  0.00000000000E+00 0.  1.
</event>
<event>
 7    1  0.3508738E-013  0.7246152E+02  0.7816164E-02  0.1226708E+00
        -11   -1    0    0    0    0  0.00000000000E+00  0.00000000000E+00  0.45593999997E+02  0.45594000000E+02  0.51100000000E-03 0.  1.
         11   -1    0    0    0    0 -0.00000000000E+00 -0.00000000000E+00 -0.45593999997E+02  0.45594000000E+02  0.51100000000E-03 0. -1.
    9900012    2    1    2    0    0 -0.16209066305E+02 -0.40051045298E+00 -0.93694527065E+01  0.72461524541E+02  0.69999940397E+02 0.  0.
        -12    1    1    2    0    0  0.16209066305E+02  0.40051045298E+00  0.93694527065E+01  0.18726475459E+02  0.00000000000E+00 0.  1.
         11    1    3    3    0    0 -0.26720776620E+02 -0.15779874778E+02 -0.28391299531E+02  0.42060316695E+02  0.51100000000E-03 0. -1.
        -11    1    3    3    0    0  0.61629719606E+01 -0.10836799339E+01  0.27032277717E+01  0.68164526136E+01  0.51100000000E-03 0.  1.
        -12    1    3    3    0    0  0.43487383538E+01  0.16463044259E+02  0.16318619053E+02  0.23584755232E+02  0.00000000000E+00 0.  1.
</event>
<event>
 7    1  0.3508738E-013  0.7246158E+02  0.7816164E-02  0.1226708E+00
        -11   -1    0    0    0    0  0.00000000000E+00  0.00000000000E+00  0.45593999997E+02  0.45594000000E+02  0.51100000000E-03 0.  1.
         11   -1    0    0    0    0 -0.00000000000E+00 -0.00000000000E+00 -0.45593999997E+02  0.45594000000E+02  0.51100000000E-03 0. -1.
    9900012    2    1    2    0    0 -0.25849763627E+01 -0.97452205919E+01 -0.15780604759E+02  0.72461577123E+02  0.70000008896E+02 0.  0.
        -12    1    1    2    0    0  0.25849763627E+01  0.97452205919E+01  0.15780604759E+02  0.18726422877E+02  0.00000000000E+00 0.  1.
         11    1    3    3    0    0 -0.19631332852E+02  0.15154529353E+02 -0.10726563595E+02  0.27020513619E+02  0.51100000000E-03 0. -1.
        -11    1    3    3    0    0  0.51328413030E+01  0.32239521196E+01 -0.12597891219E+02  0.13980228558E+02  0.51100000000E-03 0.  1.
        -12    1    3    3    0    0  0.11913515186E+02 -0.28123702064E+02  0.75438500537E+01  0.31460834946E+02  0.00000000000E+00 0.  1.
</event>
<event>
 7    1  0.3508738E-013  0.7246159E+02  0.7816164E-02  0.1226708E+00
        -11   -1    0    0    0    0  0.00000000000E+00  0.00000000000E+00  0.45593999997E+02  0.45594000000E+02  0.51100000000E-03 0. -1.
         11   -1    0    0    0    0 -0.00000000000E+00 -0.00000000000E+00 -0.45593999997E+02  0.45594000000E+02  0.51100000000E-03 0.  1.
    9900012    2    1    2    0    0  0.17805911893E+02 -0.37347503086E+01 -0.44361729617E+01  0.72461588471E+02  0.70000023678E+02 0.  0.
        -12    1    1    2    0    0 -0.17805911893E+02  0.37347503086E+01  0.44361729617E+01  0.18726411529E+02  0.00000000000E+00 0.  1.
         11    1    3    3    0    0 -0.42170488620E+01 -0.28816628168E+00  0.53456024431E+01  0.68148372432E+01  0.51100000000E-03 0. -1.
        -11    1    3    3    0    0 -0.17937356180E+02 -0.45354525896E+01  0.10014627825E+02  0.21038342322E+02  0.51100000000E-03 0.  1.
        -12    1    3    3    0    0  0.39960316935E+02  0.10888685627E+01 -0.19796403230E+02  0.44608408906E+02  0.00000000000E+00 0.  1.
</event>
<event>
 7    1  0.3508738E-013  0.7246159E+02  0.7816164E-02  0.1226708E+00
        -11   -1    0    0    0    0  0.00000000000E+00  0.00000000000E+00  0.45593999997E+02  0.45594000000E+02  0.51100000000E-03 0. -1.
         11   -1    0    0    0    0 -0.00000000000E+00 -0.00000000000E+00 -0.45593999997E+02  0.45594000000E+02  0.51100000000E-03 0.  1.
    9900012    2    1    2    0    0  0.26426717801E+01  0.18495253706E+02  0.12728817555E+01  0.72461592129E+02  0.70000028444E+02 0.  0.
        -12    1    1    2    0    0 -0.26426717801E+01 -0.18495253706E+02 -0.12728817555E+01  0.18726407871E+02  0.00000000000E+00 0.  1.
         11    1    3    3    0    0  0.37024918100E+01  0.39488309951E+01  0.54751320047E+01  0.76992715604E+01  0.51100000000E-03 0. -1.
        -11    1    3    3    0    0 -0.22786589929E+02 -0.27530104464E+01  0.18029979707E+02  0.29187119001E+02  0.51100000000E-03 0.  1.
        -12    1    3    3    0    0  0.21726769899E+02  0.17299433157E+02 -0.22232229956E+02  0.35575201568E+02  0.00000000000E+00 0.  1.
</event>
<event>
 7    1  0.3508738E-013  0.7246154E+02  0.7816164E-02  0.1226708E+00
        -11   -1    0    0    0    0  0.00000000000E+00  0.00000000000E+00  0.45593999997E+02  0.45594000000E+02  0.51100000000E-03 0. -1.
         11   -1    0    0    0    0 -0.00000000000E+00 -0.00000000000E+00 -0.45593999997E+02  0.45594000000E+02  0.51100000000E-03 0.  1.
    9900012    2    1    2    0    0  0.13338819500E+02 -0.81566121711E+01  0.10306597461E+02  0.72461538001E+02  0.69999957932E+02 0.  0.
        -12    1    1    2    0    0 -0.13338819500E+02  0.81566121711E+01 -0.10306597461E+02  0.18726461999E+02  0.00000000000E+00 0.  1.
         11    1    3    3    0    0  0.76817797415E+01  0.78832229643E+01  0.28280015792E+02  0.30346568797E+02  0.51100000000E-03 0. -1.
        -11    1    3    3    0    0  0.84295505016E+01  0.93136374197E+01 -0.65855776699E+01  0.14183476201E+02  0.51100000000E-03 0.  1.
        -12    1    3    3    0    0 -0.27725107429E+01 -0.25353472555E+02 -0.11387840661E+02  0.27931493002E+02  0.00000000000E+00 0.  1.
</event>
<event>
 7    1  0.3508738E-013  0.7246157E+02  0.7816164E-02  0.1226708E+00
        -11   -1    0    0    0    0  0.00000000000E+00  0.00000000000E+00  0.45593999997E+02  0.45594000000E+02  0.51100000000E-03 0.  1.
         11   -1    0    0    0    0 -0.00000000000E+00 -0.00000000000E+00 -0.45593999997E+02  0.45594000000E+02  0.51100000000E-03 0. -1.
    9900012    2    1    2    0    0  0.10585840104E+02  0.21681906211E+01 -0.15294378928E+02  0.72461572469E+02  0.70000002833E+02 0.  0.
        -12    1    1    2    0    0 -0.10585840104E+02 -0.21681906211E+01  0.15294378928E+02  0.18726427531E+02  0.00000000000E+00 0.  1.
         11    1    3    3    0    0 -0.17357676884E+02  0.47756377459E+00 -0.10304155805E+02  0.20191400176E+02  0.51100000000E-03 0. -1.
        -11    1    3    3    0    0 -0.34935244020E+00  0.17056914543E+02  0.62482303463E+01  0.18168675339E+02  0.51100000000E-03 0.  1.
         12    1    3    3    0    0  0.28292869429E+02 -0.15366287696E+02 -0.11238453470E+02  0.34101496954E+02  0.00000000000E+00 0. -1.
</event>
<event>
 7    1  0.3508738E-013  0.7246155E+02  0.7816164E-02  0.1226708E+00
        -11   -1    0    0    0    0  0.00000000000E+00  0.00000000000E+00  0.45593999997E+02  0.45594000000E+02  0.51100000000E-03 0.  1.
         11   -1    0    0    0    0 -0.00000000000E+00 -0.00000000000E+00 -0.45593999997E+02  0.45594000000E+02  0.51100000000E-03 0. -1.
    9900012    2    1    2    0    0  0.12568445534E+01  0.26727999682E+00 -0.18682316262E+02  0.72461547112E+02  0.69999969801E+02 0.  0.
        -12    1    1    2    0    0 -0.12568445534E+01 -0.26727999682E+00  0.18682316262E+02  0.18726452888E+02  0.00000000000E+00 0.  1.
         11    1    3    3    0    0  0.22986082773E+02  0.34733026516E+01  0.25143856077E+00  0.23248377452E+02  0.51100000000E-03 0. -1.
        -11    1    3    3    0    0 -0.68261523372E+01 -0.17054616055E+02  0.37436997015E+01  0.18747575103E+02  0.51100000000E-03 0.  1.
         12    1    3    3    0    0 -0.14903085882E+02  0.13848593401E+02 -0.22677454525E+02  0.30465594557E+02  0.00000000000E+00 0. -1.
</event>
<event>
 7    1  0.3508738E-013  0.7246157E+02  0.7816164E-02  0.1226708E+00
        -11   -1    0    0    0    0  0.00000000000E+00  0.00000000000E+00  0.45593999997E+02  0.45594000000E+02  0.51100000000E-03 0.  1.
         11   -1    0    0    0    0 -0.00000000000E+00 -0.00000000000E+00 -0.45593999997E+02  0.45594000000E+02  0.51100000000E-03 0. -1.
    9900012    2    1    2    0    0  0.56051764178E+01  0.56226178043E+01 -0.16960169627E+02  0.72461569817E+02  0.69999999378E+02 0.  0.
        -12    1    1    2    0    0 -0.56051764178E+01 -0.56226178043E+01  0.16960169627E+02  0.18726430183E+02  0.00000000000E+00 0.  1.
         11    1    3    3    0    0  0.15373294059E+02  0.23200981095E+02 -0.18941837673E+02  0.33666257717E+02  0.51100000000E-03 0. -1.
        -11    1    3    3    0    0 -0.35311468654E+01  0.39913308131E+01  0.12804876058E+02  0.13869555544E+02  0.51100000000E-03 0.  1.
         12    1    3    3    0    0 -0.62369707758E+01 -0.21569694104E+02 -0.10823208012E+02  0.24925756556E+02  0.00000000000E+00 0. -1.
</event>
<event>
 7    1  0.3508738E-013  0.7246148E+02  0.7816164E-02  0.1226708E+00
        -11   -1    0    0    0    0  0.00000000000E+00  0.00000000000E+00  0.45593999997E+02  0.45594000000E+02  0.51100000000E-03 0.  1.
         11   -1    0    0    0    0 -0.00000000000E+00 -0.00000000000E+00 -0.45593999997E+02  0.45594000000E+02  0.51100000000E-03 0. -1.
    9900012    2    1    2    0    0 -0.44160486804E+01  0.15154956943E+02  0.10075134789E+02  0.72461480117E+02  0.69999882527E+02 0.  0.
        -12    1    1    2    0    0  0.44160486804E+01 -0.15154956943E+02 -0.10075134789E+02  0.18726519883E+02  0.00000000000E+00 0.  1.
         11    1    3    3    0    0 -0.76192404277E+01  0.88391786543E+01  0.18501715750E+02  0.21874583195E+02  0.51100000000E-03 0. -1.
        -11    1    3    3    0    0 -0.21021326137E+01 -0.99128096054E+01  0.17099822586E+02  0.19876787681E+02  0.51100000000E-03 0.  1.
         12    1    3    3    0    0  0.53053243611E+01  0.16228587894E+02 -0.25526403546E+02  0.30710109242E+02  0.00000000000E+00 0. -1.
</event>
<event>
 7    1  0.3508738E-013  0.7246152E+02  0.7816164E-02  0.1226708E+00
        -11   -1    0    0    0    0  0.00000000000E+00  0.00000000000E+00  0.45593999997E+02  0.45594000000E+02  0.51100000000E-03 0.  1.
         11   -1    0    0    0    0 -0.00000000000E+00 -0.00000000000E+00 -0.45593999997E+02  0.45594000000E+02  0.51100000000E-03 0. -1.
    9900012    2    1    2    0    0  0.17116474354E+02 -0.24581192453E+01 -0.71878374116E+01  0.72461520054E+02  0.69999934552E+02 0.  0.
        -12    1    1    2    0    0 -0.17116474354E+02  0.24581192453E+01  0.71878374116E+01  0.18726479946E+02  0.00000000000E+00 0.  1.
         11    1    3    3    0    0  0.13428262332E+01  0.54580754355E+01 -0.23740263557E+02  0.24396595741E+02  0.51100000000E-03 0. -1.
        -11    1    3    3    0    0 -0.11318428098E+02  0.21354773873E+01  0.15287074292E+02  0.19140577812E+02  0.51100000000E-03 0.  1.
         12    1    3    3    0    0  0.27092076218E+02 -0.10051672068E+02  0.12653518531E+01  0.28924346501E+02  0.00000000000E+00 0. -1.
</event>
<event>
 7    1  0.3508738E-013  0.7246159E+02  0.7816164E-02  0.1226708E+00
        -11   -1    0    0    0    0  0.00000000000E+00  0.00000000000E+00  0.45593999997E+02  0.45594000000E+02  0.51100000000E-03 0. -1.
         11   -1    0    0    0    0 -0.00000000000E+00 -0.00000000000E+00 -0.45593999997E+02  0.45594000000E+02  0.51100000000E-03 0.  1.
    9900012    2    1    2    0    0  0.57212999729E+01 -0.14165255586E+02  0.10830079902E+02  0.72461591645E+02  0.70000027813E+02 0.  0.
        -12    1    1    2    0    0 -0.57212999729E+01  0.14165255586E+02 -0.10830079902E+02  0.18726408355E+02  0.00000000000E+00 0.  1.
         11    1    3    3    0    0  0.88911857036E+01  0.16025487906E+01  0.48001065540E+01  0.10230462797E+02  0.51100000000E-03 0. -1.
        -11    1    3    3    0    0  0.19390760495E+02  0.50317000778E+01 -0.15003825768E+02  0.25028671283E+02  0.51100000000E-03 0.  1.
         12    1    3    3    0    0 -0.22560646225E+02 -0.20799504455E+02  0.21033799116E+02  0.37202457566E+02  0.00000000000E+00 0. -1.
</event>
<event>
 7    1  0.3508738E-013  0.7246149E+02  0.7816164E-02  0.1226708E+00
        -11   -1    0    0    0    0  0.00000000000E+00  0.00000000000E+00  0.45593999997E+02  0.45594000000E+02  0.51100000000E-03 0. -1.
         11   -1    0    0    0    0 -0.00000000000E+00 -0.00000000000E+00 -0.45593999997E+02  0.45594000000E+02  0.51100000000E-03 0.  1.
    9900012    2    1    2    0    0 -0.18495433682E+02  0.29142089806E+01  0.32963113297E+00  0.72461485702E+02  0.69999889803E+02 0.  0.
        -12    1    1    2    0    0  0.18495433682E+02 -0.29142089806E+01 -0.32963113297E+00  0.18726514298E+02  0.00000000000E+00 0.  1.
         11    1    3    3    0    0  0.19065026783E+02 -0.86229653588E+01 -0.69946825084E+01  0.22062555643E+02  0.51100000000E-03 0. -1.
        -11    1    3    3    0    0 -0.53330098049E+01  0.15252414309E+02  0.78277492732E+01  0.17954130299E+02  0.51100000000E-03 0.  1.
        -12    1    3    3    0    0 -0.32227450660E+02 -0.37152399700E+01 -0.50343563190E+00  0.32444799761E+02  0.00000000000E+00 0.  1.
</event>
<event>
 7    1  0.3508738E-013  0.7246155E+02  0.7816164E-02  0.1226708E+00
        -11   -1    0    0    0    0  0.00000000000E+00  0.00000000000E+00  0.45593999997E+02  0.45594000000E+02  0.51100000000E-03 0.  1.
         11   -1    0    0    0    0 -0.00000000000E+00 -0.00000000000E+00 -0.45593999997E+02  0.45594000000E+02  0.51100000000E-03 0. -1.
    9900012    2    1    2    0    0  0.18497780627E+02 -0.14899792243E+01 -0.25083667995E+01  0.72461552654E+02  0.69999977020E+02 0.  0.
        -12    1    1    2    0    0 -0.18497780627E+02  0.14899792243E+01  0.25083667995E+01  0.18726447346E+02  0.00000000000E+00 0.  1.
         11    1    3    3    0    0  0.63079889179E+01  0.82814981662E+01 -0.10683864361E+02  0.14917067206E+02  0.51100000000E-03 0. -1.
        -11    1    3    3    0    0 -0.16339337888E+02 -0.20564255339E+02  0.14238131058E+01  0.26303798286E+02  0.51100000000E-03 0.  1.
         12    1    3    3    0    0  0.28529129597E+02  0.10792777948E+02  0.67516844559E+01  0.31240687162E+02  0.00000000000E+00 0. -1.
</event>
<event>
 7    1  0.3508738E-013  0.7246154E+02  0.7816164E-02  0.1226708E+00
        -11   -1    0    0    0    0  0.00000000000E+00  0.00000000000E+00  0.45593999997E+02  0.45594000000E+02  0.51100000000E-03 0.  1.
         11   -1    0    0    0    0 -0.00000000000E+00 -0.00000000000E+00 -0.45593999997E+02  0.45594000000E+02  0.51100000000E-03 0. -1.
    9900012    2    1    2    0    0 -0.15402465466E+02 -0.50235693097E+01 -0.93919117704E+01  0.72461542841E+02  0.69999964237E+02 0.  0.
        -12    1    1    2    0    0  0.15402465466E+02  0.50235693097E+01  0.93919117704E+01  0.18726457159E+02  0.00000000000E+00 0.  1.
         11    1    3    3    0    0  0.47199401132E+01  0.58530075483E+01  0.39955216204E+01  0.85146770528E+01  0.51100000000E-03 0. -1.
        -11    1    3    3    0    0 -0.38022499811E+01  0.14071852186E+02  0.16304936435E+02  0.21870644281E+02  0.51100000000E-03 0.  1.
         12    1    3    3    0    0 -0.16320155598E+02 -0.24948429044E+02 -0.29692369825E+02  0.42076221507E+02  0.00000000000E+00 0. -1.
</event>
<event>
 7    1  0.3508738E-013  0.7246156E+02  0.7816164E-02  0.1226708E+00
        -11   -1    0    0    0    0  0.00000000000E+00  0.00000000000E+00  0.45593999997E+02  0.45594000000E+02  0.51100000000E-03 0. -1.
         11   -1    0    0    0    0 -0.00000000000E+00 -0.00000000000E+00 -0.45593999997E+02  0.45594000000E+02  0.51100000000E-03 0.  1.
    9900012    2    1    2    0    0  0.53637978395E+01 -0.14755748260E+02  0.10206727437E+02  0.72461555625E+02  0.69999980890E+02 0.  0.
        -12    1    1    2    0    0 -0.53637978395E+01  0.14755748260E+02 -0.10206727437E+02  0.18726444375E+02  0.00000000000E+00 0.  1.
         11    1    3    3    0    0 -0.20919569073E+01  0.45590188114E+01  0.12745736827E+02  0.13697253147E+02  0.51100000000E-03 0. -1.
        -11    1    3    3    0    0 -0.22832065096E+02 -0.84139318576E-01 -0.10307253260E+01  0.22855473544E+02  0.51100000000E-03 0.  1.
         12    1    3    3    0    0  0.30287819843E+02 -0.19230627752E+02 -0.15082840643E+01  0.35908828934E+02  0.00000000000E+00 0. -1.
</event>
<event>
 7    1  0.3508738E-013  0.7246163E+02  0.7816164E-02  0.1226708E+00
        -11   -1    0    0    0    0  0.00000000000E+00  0.00000000000E+00  0.45593999997E+02  0.45594000000E+02  0.51100000000E-03 0. -1.
         11   -1    0    0    0    0 -0.00000000000E+00 -0.00000000000E+00 -0.45593999997E+02  0.45594000000E+02  0.51100000000E-03 0.  1.
    9900012    2    1    2    0    0  0.81439836651E+01  0.15140155176E+02 -0.74248278258E+01  0.72461632575E+02  0.70000081133E+02 0.  0.
        -12    1    1    2    0    0 -0.81439836651E+01 -0.15140155176E+02  0.74248278258E+01  0.18726367425E+02  0.00000000000E+00 0.  1.
         11    1    3    3    0    0  0.87058111783E+01  0.54572145645E+01  0.66701308800E+01  0.12250019808E+02  0.51100000000E-03 0. -1.
        -11    1    3    3    0    0 -0.16601809533E+01  0.29207019017E+02  0.83698910937E+01  0.30427968021E+02  0.51100000000E-03 0.  1.
         12    1    3    3    0    0  0.10983534400E+01 -0.19524078406E+02 -0.22464849800E+02  0.29783644747E+02  0.00000000000E+00 0. -1.
</event>
<event>
 7    1  0.3508738E-013  0.7246157E+02  0.7816164E-02  0.1226708E+00
        -11   -1    0    0    0    0  0.00000000000E+00  0.00000000000E+00  0.45593999997E+02  0.45594000000E+02  0.51100000000E-03 0.  1.
         11   -1    0    0    0    0 -0.00000000000E+00 -0.00000000000E+00 -0.45593999997E+02  0.45594000000E+02  0.51100000000E-03 0. -1.
    9900012    2    1    2    0    0  0.12891165375E+02  0.11545357067E+02 -0.71555528254E+01  0.72461565455E+02  0.69999993695E+02 0.  0.
        -12    1    1    2    0    0 -0.12891165375E+02 -0.11545357067E+02  0.71555528254E+01  0.18726434545E+02  0.00000000000E+00 0.  1.
         11    1    3    3    0    0 -0.96924117047E+01  0.12216699853E+02 -0.87117668798E+01  0.17862963986E+02  0.51100000000E-03 0. -1.
        -11    1    3    3    0    0 -0.73775037653E+01  0.12870407097E+02  0.13060387427E+02  0.19764833939E+02  0.51100000000E-03 0.  1.
         12    1    3    3    0    0  0.29961080845E+02 -0.13541749882E+02 -0.11504173373E+02  0.34833767529E+02  0.00000000000E+00 0. -1.
</event>
<event>
 7    1  0.3508738E-013  0.7246145E+02  0.7816164E-02  0.1226708E+00
        -11   -1    0    0    0    0  0.00000000000E+00  0.00000000000E+00  0.45593999997E+02  0.45594000000E+02  0.51100000000E-03 0.  1.
         11   -1    0    0    0    0 -0.00000000000E+00 -0.00000000000E+00 -0.45593999997E+02  0.45594000000E+02  0.51100000000E-03 0. -1.
    9900012    2    1    2    0    0  0.26032974841E+01  0.18539757729E+02 -0.42881882958E+00  0.72461450397E+02  0.69999843811E+02 0.  0.
        -12    1    1    2    0    0 -0.26032974841E+01 -0.18539757729E+02  0.42881882958E+00  0.18726549603E+02  0.00000000000E+00 0.  1.
         11    1    3    3    0    0  0.62595079904E+01  0.13671971631E+02 -0.10305665699E+02  0.18229399176E+02  0.51100000000E-03 0.  1.
        -11    1    3    3    0    0 -0.14845218723E+02  0.18829943159E+02  0.22062924478E+02  0.32584043873E+02  0.51100000000E-03 0. -1.
         12    1    3    3    0    0  0.11189008217E+02 -0.13962157061E+02 -0.12186077609E+02  0.21648007348E+02  0.00000000000E+00 0. -1.
</event>
<event>
 7    1  0.3508738E-013  0.7246113E+02  0.7816164E-02  0.1226709E+00
        -11   -1    0    0    0    0  0.00000000000E+00  0.00000000000E+00  0.45593999997E+02  0.45594000000E+02  0.51100000000E-03 0. -1.
         11   -1    0    0    0    0 -0.00000000000E+00 -0.00000000000E+00 -0.45593999997E+02  0.45594000000E+02  0.51100000000E-03 0.  1.
    9900012    2    1    2    0    0  0.10681155644E+02  0.12189143031E+02  0.93826152298E+01  0.72461127269E+02  0.69999422875E+02 0.  0.
        -12    1    1    2    0    0 -0.10681155644E+02 -0.12189143031E+02 -0.93826152298E+01  0.18726872731E+02  0.00000000000E+00 0.  1.
         11    1    3    3    0    0 -0.10597494812E+02  0.76680979132E+01 -0.11875168674E+02  0.17667095211E+02  0.51100000000E-03 0. -1.
        -11    1    3    3    0    0  0.81324011910E+01  0.62875047538E+01 -0.13859261652E+02  0.17255370148E+02  0.51100000000E-03 0.  1.
         12    1    3    3    0    0  0.13146249265E+02 -0.17664596356E+01  0.35117045556E+02  0.37538661910E+02  0.00000000000E+00 0. -1.
</event>
<event>
 7    1  0.3508738E-013  0.7246158E+02  0.7816164E-02  0.1226708E+00
        -11   -1    0    0    0    0  0.00000000000E+00  0.00000000000E+00  0.45593999997E+02  0.45594000000E+02  0.51100000000E-03 0. -1.
         11   -1    0    0    0    0 -0.00000000000E+00 -0.00000000000E+00 -0.45593999997E+02  0.45594000000E+02  0.51100000000E-03 0.  1.
    9900012    2    1    2    0    0  0.53108358071E+00 -0.13034296660E+02 -0.13435175437E+02  0.72461578072E+02  0.70000010132E+02 0.  0.
        -12    1    1    2    0    0 -0.53108358071E+00  0.13034296660E+02  0.13435175437E+02  0.18726421928E+02  0.00000000000E+00 0.  1.
         11    1    3    3    0    0 -0.18692253155E+01 -0.11706870120E+00 -0.17836445191E+02  0.17934505449E+02  0.51100000000E-03 0. -1.
        -11    1    3    3    0    0 -0.15176753585E+02  0.35156869463E+01 -0.16472646247E+02  0.22672493880E+02  0.51100000000E-03 0.  1.
         12    1    3    3    0    0  0.17577062481E+02 -0.16432914905E+02  0.20873916001E+02  0.31854578744E+02  0.00000000000E+00 0. -1.
</event>
<event>
 7    1  0.3508738E-013  0.7246156E+02  0.7816164E-02  0.1226708E+00
        -11   -1    0    0    0    0  0.00000000000E+00  0.00000000000E+00  0.45593999997E+02  0.45594000000E+02  0.51100000000E-03 0.  1.
         11   -1    0    0    0    0 -0.00000000000E+00 -0.00000000000E+00 -0.45593999997E+02  0.45594000000E+02  0.51100000000E-03 0. -1.
    9900012    2    1    2    0    0  0.15701875141E+02  0.10199693432E+02  0.31137597882E+00  0.72461559226E+02  0.69999985582E+02 0.  0.
        -12    1    1    2    0    0 -0.15701875141E+02 -0.10199693432E+02 -0.31137597882E+00  0.18726440774E+02  0.00000000000E+00 0.  1.
         11    1    3    3    0    0 -0.13150587211E+02  0.17464255885E+02  0.42397023939E+01  0.22269109867E+02  0.51100000000E-03 0. -1.
        -11    1    3    3    0    0  0.29975603823E+02  0.76525368820E+01  0.69350392038E+01  0.31704777468E+02  0.51100000000E-03 0.  1.
        -12    1    3    3    0    0 -0.11231414707E+01 -0.14917099336E+02 -0.10863365619E+02  0.18487671890E+02  0.00000000000E+00 0.  1.
</event>
<event>
 7    1  0.3508738E-013  0.7246152E+02  0.7816164E-02  0.1226708E+00
        -11   -1    0    0    0    0  0.00000000000E+00  0.00000000000E+00  0.45593999997E+02  0.45594000000E+02  0.51100000000E-03 0.  1.
         11   -1    0    0    0    0 -0.00000000000E+00 -0.00000000000E+00 -0.45593999997E+02  0.45594000000E+02  0.51100000000E-03 0. -1.
    9900012    2    1    2    0    0 -0.12334775438E+02 -0.79526373337E+01 -0.11631415508E+02  0.72461522691E+02  0.69999937988E+02 0.  0.
        -12    1    1    2    0    0  0.12334775438E+02  0.79526373337E+01  0.11631415508E+02  0.18726477309E+02  0.00000000000E+00 0.  1.
         11    1    3    3    0    0  0.46848223708E+01 -0.46343927792E+01 -0.10214517541E+02  0.12155719886E+02  0.51100000000E-03 0. -1.
        -11    1    3    3    0    0  0.14172826952E+02  0.17613841142E+02 -0.23472798534E+01  0.22729411487E+02  0.51100000000E-03 0.  1.
        -12    1    3    3    0    0 -0.31192424761E+02 -0.20932085696E+02  0.93038188651E+00  0.37576391318E+02  0.00000000000E+00 0.  1.
</event>
<event>
 7    1  0.3508738E-013  0.7246205E+02  0.7816164E-02  0.1226707E+00
        -11   -1    0    0    0    0  0.00000000000E+00  0.00000000000E+00  0.45593999997E+02  0.45594000000E+02  0.51100000000E-03 0.  1.
         11   -1    0    0    0    0 -0.00000000000E+00 -0.00000000000E+00 -0.45593999997E+02  0.45594000000E+02  0.51100000000E-03 0. -1.
    9900012    2    1    2    0    0 -0.18361969392E+02 -0.35739057297E+01 -0.85229180867E+00  0.72462052135E+02  0.70000627685E+02 0.  0.
        -12    1    1    2    0    0  0.18361969392E+02  0.35739057297E+01  0.85229180867E+00  0.18725947865E+02  0.00000000000E+00 0.  1.
         11    1    3    3    0    0  0.69174209276E+01  0.50229454736E+01 -0.21308687527E+01  0.88102948545E+01  0.51100000000E-03 0. -1.
        -11    1    3    3    0    0  0.11428439979E+02  0.13835796633E+02  0.87879232902E+01  0.19981644198E+02  0.51100000000E-03 0.  1.
         12    1    3    3    0    0 -0.36707830298E+02 -0.22432647837E+02 -0.75093463461E+01  0.43670113083E+02  0.00000000000E+00 0. -1.
</event>
<event>
 7    1  0.3508738E-013  0.7246160E+02  0.7816164E-02  0.1226708E+00
        -11   -1    0    0    0    0  0.00000000000E+00  0.00000000000E+00  0.45593999997E+02  0.45594000000E+02  0.51100000000E-03 0. -1.
         11   -1    0    0    0    0 -0.00000000000E+00 -0.00000000000E+00 -0.45593999997E+02  0.45594000000E+02  0.51100000000E-03 0.  1.
    9900012    2    1    2    0    0 -0.18355175534E+02  0.37000649795E+01 -0.27430187655E+00  0.72461596414E+02  0.70000034026E+02 0.  0.
        -12    1    1    2    0    0  0.18355175534E+02 -0.37000649795E+01  0.27430187655E+00  0.18726403586E+02  0.00000000000E+00 0.  1.
         11    1    3    3    0    0  0.10093639926E+02 -0.96980158005E+01  0.22008001542E+02  0.26082277692E+02  0.51100000000E-03 0. -1.
        -11    1    3    3    0    0  0.76293727754E+00 -0.56067207819E+01 -0.17130820796E+01  0.59120251765E+01  0.51100000000E-03 0.  1.
        -12    1    3    3    0    0 -0.29211752738E+02  0.19004801562E+02 -0.20569221339E+02  0.40467293546E+02  0.00000000000E+00 0.  1.
</event>
<event>
 7    1  0.3508738E-013  0.7246154E+02  0.7816164E-02  0.1226708E+00
        -11   -1    0    0    0    0  0.00000000000E+00  0.00000000000E+00  0.45593999997E+02  0.45594000000E+02  0.51100000000E-03 0. -1.
         11   -1    0    0    0    0 -0.00000000000E+00 -0.00000000000E+00 -0.45593999997E+02  0.45594000000E+02  0.51100000000E-03 0.  1.
    9900012    2    1    2    0    0  0.17339570950E+02  0.58418001833E+01  0.39866197128E+01  0.72461535121E+02  0.69999954180E+02 0.  0.
        -12    1    1    2    0    0 -0.17339570950E+02 -0.58418001833E+01 -0.39866197128E+01  0.18726464879E+02  0.00000000000E+00 0.  1.
         11    1    3    3    0    0 -0.56846680790E+01 -0.58074724754E+01 -0.60547278642E+01  0.10134195454E+02  0.51100000000E-03 0. -1.
        -11    1    3    3    0    0 -0.12775912912E+02 -0.63642463792E+01 -0.10089051813E+02  0.17479031709E+02  0.51100000000E-03 0.  1.
         12    1    3    3    0    0  0.35800151942E+02  0.18013519038E+02  0.20130399390E+02  0.44848307959E+02  0.00000000000E+00 0. -1.
</event>
<event>
 7    1  0.3508738E-013  0.7246157E+02  0.7816164E-02  0.1226708E+00
        -11   -1    0    0    0    0  0.00000000000E+00  0.00000000000E+00  0.45593999997E+02  0.45594000000E+02  0.51100000000E-03 0. -1.
         11   -1    0    0    0    0 -0.00000000000E+00 -0.00000000000E+00 -0.45593999997E+02  0.45594000000E+02  0.51100000000E-03 0.  1.
    9900012    2    1    2    0    0  0.11841984794E+01  0.12394556084E+02  0.13987558833E+02  0.72461570851E+02  0.70000000725E+02 0.  0.
        -12    1    1    2    0    0 -0.11841984794E+01 -0.12394556084E+02 -0.13987558833E+02  0.18726429149E+02  0.00000000000E+00 0.  1.
         11    1    3    3    0    0 -0.14611879651E+02 -0.10154223591E+02  0.75962079012E+01  0.19347290725E+02  0.51100000000E-03 0. -1.
        -11    1    3    3    0    0 -0.15378253184E+02  0.78361683895E+01  0.70304886123E+01  0.18636629964E+02  0.51100000000E-03 0.  1.
        -12    1    3    3    0    0  0.31174331314E+02  0.14712611285E+02 -0.63913768012E+00  0.34477650162E+02  0.00000000000E+00 0.  1.
</event>
<event>
 7    1  0.3508738E-013  0.7246157E+02  0.7816164E-02  0.1226708E+00
        -11   -1    0    0    0    0  0.00000000000E+00  0.00000000000E+00  0.45593999997E+02  0.45594000000E+02  0.51100000000E-03 0.  1.
         11   -1    0    0    0    0 -0.00000000000E+00 -0.00000000000E+00 -0.45593999997E+02  0.45594000000E+02  0.51100000000E-03 0. -1.
    9900012    2    1    2    0    0 -0.22035458637E+01 -0.91463352269E+01 -0.16191601745E+02  0.72461574033E+02  0.70000004870E+02 0.  0.
        -12    1    1    2    0    0  0.22035458637E+01  0.91463352269E+01  0.16191601745E+02  0.18726425967E+02  0.00000000000E+00 0.  1.
         11    1    3    3    0    0 -0.59577009418E+01 -0.15736760354E+02 -0.29366392672E+02  0.33845603049E+02  0.51100000000E-03 0. -1.
        -11    1    3    3    0    0  0.15758014998E+02  0.84947374572E+01 -0.32386745773E+01  0.18192432889E+02  0.51100000000E-03 0.  1.
         12    1    3    3    0    0 -0.12003859920E+02 -0.19043123299E+01  0.16413465504E+02  0.20423538094E+02  0.00000000000E+00 0. -1.
</event>
<event>
 7    1  0.3508738E-013  0.7246156E+02  0.7816164E-02  0.1226708E+00
        -11   -1    0    0    0    0  0.00000000000E+00  0.00000000000E+00  0.45593999997E+02  0.45594000000E+02  0.51100000000E-03 0.  1.
         11   -1    0    0    0    0 -0.00000000000E+00 -0.00000000000E+00 -0.45593999997E+02  0.45594000000E+02  0.51100000000E-03 0. -1.
    9900012    2    1    2    0    0  0.22045540068E+01 -0.19579844200E+01 -0.18492861327E+02  0.72461556626E+02  0.69999982195E+02 0.  0.
        -12    1    1    2    0    0 -0.22045540068E+01  0.19579844200E+01  0.18492861327E+02  0.18726443374E+02  0.00000000000E+00 0.  1.
         11    1    3    3    0    0  0.67600763045E+01 -0.96135867582E+00  0.10676523103E+02  0.12673239048E+02  0.51100000000E-03 0. -1.
        -11    1    3    3    0    0  0.89953828092E+01  0.22960311019E+02 -0.13311034042E+02  0.28022783971E+02  0.51100000000E-03 0.  1.
         12    1    3    3    0    0 -0.13550905107E+02 -0.23956936763E+02 -0.15858350388E+02  0.31765533607E+02  0.00000000000E+00 0. -1.
</event>
<event>
 7    1  0.3508738E-013  0.7246145E+02  0.7816164E-02  0.1226708E+00
        -11   -1    0    0    0    0  0.00000000000E+00  0.00000000000E+00  0.45593999997E+02  0.45594000000E+02  0.51100000000E-03 0.  1.
         11   -1    0    0    0    0 -0.00000000000E+00 -0.00000000000E+00 -0.45593999997E+02  0.45594000000E+02  0.51100000000E-03 0. -1.
    9900012    2    1    2    0    0  0.13634697419E+02  0.11997084460E+02 -0.45660338141E+01  0.72461450023E+02  0.69999843324E+02 0.  0.
        -12    1    1    2    0    0 -0.13634697419E+02 -0.11997084460E+02  0.45660338141E+01  0.18726549977E+02  0.00000000000E+00 0.  1.
         11    1    3    3    0    0 -0.62012351600E+01 -0.74877464412E+01 -0.22752946114E+02  0.24743043899E+02  0.51100000000E-03 0. -1.
        -11    1    3    3    0    0  0.83927869079E+00 -0.72617329991E+01 -0.37871369321E+01  0.82328343403E+01  0.51100000000E-03 0.  1.
        -12    1    3    3    0    0  0.18996653888E+02  0.26746563900E+02  0.21974049232E+02  0.39485571783E+02  0.00000000000E+00 0.  1.
</event>
<event>
 7    1  0.3508738E-013  0.7246160E+02  0.7816164E-02  0.1226708E+00
        -11   -1    0    0    0    0  0.00000000000E+00  0.00000000000E+00  0.45593999997E+02  0.45594000000E+02  0.51100000000E-03 0.  1.
         11   -1    0    0    0    0 -0.00000000000E+00 -0.00000000000E+00 -0.45593999997E+02  0.45594000000E+02  0.51100000000E-03 0. -1.
    9900012    2    1    2    0    0  0.84627541233E+01  0.63357481060E+01 -0.15456979013E+02  0.72461598541E+02  0.70000036796E+02 0.  0.
        -12    1    1    2    0    0 -0.84627541233E+01 -0.63357481060E+01  0.15456979013E+02  0.18726401459E+02  0.00000000000E+00 0.  1.
         11    1    3    3    0    0 -0.13045883053E+02  0.15407332177E+02 -0.18474843286E+02  0.27366051672E+02  0.51100000000E-03 0. -1.
        -11    1    3    3    0    0 -0.63520549714E+01 -0.14779969964E+02  0.42174407223E+01  0.16630782333E+02  0.51100000000E-03 0.  1.
         12    1    3    3    0    0  0.27860692147E+02  0.57083858928E+01 -0.11995764493E+01  0.28464764536E+02  0.00000000000E+00 0. -1.
</event>
<event>
 7    1  0.3508738E-013  0.7246158E+02  0.7816164E-02  0.1226708E+00
        -11   -1    0    0    0    0  0.00000000000E+00  0.00000000000E+00  0.45593999997E+02  0.45594000000E+02  0.51100000000E-03 0.  1.
         11   -1    0    0    0    0 -0.00000000000E+00 -0.00000000000E+00 -0.45593999997E+02  0.45594000000E+02  0.51100000000E-03 0. -1.
    9900012    2    1    2    0    0 -0.14161467768E+02 -0.40990149692E+00  0.12245964784E+02  0.72461579037E+02  0.70000011389E+02 0.  0.
        -12    1    1    2    0    0  0.14161467768E+02  0.40990149692E+00 -0.12245964784E+02  0.18726420963E+02  0.00000000000E+00 0.  1.
         11    1    3    3    0    0 -0.13538682870E+02  0.45832458871E+01 -0.23365412774E+02  0.27390593113E+02  0.51100000000E-03 0. -1.
        -11    1    3    3    0    0  0.47294904577E+01  0.68790247229E+00 -0.30236540601E+01  0.56554198727E+01  0.51100000000E-03 0.  1.
        -12    1    3    3    0    0 -0.53522753560E+01 -0.56810498563E+01  0.38635031619E+02  0.39415566051E+02  0.00000000000E+00 0.  1.
</event>
<event>
 7    1  0.3508738E-013  0.7246156E+02  0.7816164E-02  0.1226708E+00
        -11   -1    0    0    0    0  0.00000000000E+00  0.00000000000E+00  0.45593999997E+02  0.45594000000E+02  0.51100000000E-03 0.  1.
         11   -1    0    0    0    0 -0.00000000000E+00 -0.00000000000E+00 -0.45593999997E+02  0.45594000000E+02  0.51100000000E-03 0. -1.
    9900012    2    1    2    0    0  0.26269485473E+01 -0.91424837353E+00 -0.18518718142E+02  0.72461557989E+02  0.69999983970E+02 0.  0.
        -12    1    1    2    0    0 -0.26269485473E+01  0.91424837353E+00  0.18518718142E+02  0.18726442011E+02  0.00000000000E+00 0.  1.
         11    1    3    3    0    0  0.22447628905E+02 -0.14647950340E+02 -0.11958704439E+02  0.29350793937E+02  0.51100000000E-03 0. -1.
        -11    1    3    3    0    0 -0.40880829286E+01  0.22229596945E+02 -0.10308329649E+02  0.24842082497E+02  0.51100000000E-03 0.  1.
         12    1    3    3    0    0 -0.15732597429E+02 -0.84958949791E+01  0.37483159459E+01  0.18268681555E+02  0.00000000000E+00 0. -1.
</event>
<event>
 7    1  0.3508738E-013  0.7246153E+02  0.7816164E-02  0.1226708E+00
        -11   -1    0    0    0    0  0.00000000000E+00  0.00000000000E+00  0.45593999997E+02  0.45594000000E+02  0.51100000000E-03 0.  1.
         11   -1    0    0    0    0 -0.00000000000E+00 -0.00000000000E+00 -0.45593999997E+02  0.45594000000E+02  0.51100000000E-03 0. -1.
    9900012    2    1    2    0    0  0.52074327507E+01 -0.17941370335E+02 -0.12925538894E+01  0.72461526202E+02  0.69999942561E+02 0.  0.
        -12    1    1    2    0    0 -0.52074327507E+01  0.17941370335E+02  0.12925538894E+01  0.18726473798E+02  0.00000000000E+00 0.  1.
         11    1    3    3    0    0  0.28804224041E+01 -0.25772752615E+01  0.49761379076E+01  0.63008832504E+01  0.51100000000E-03 0. -1.
        -11    1    3    3    0    0  0.28290372583E+02  0.36801632124E+01 -0.15759225411E+02  0.32592053756E+02  0.51100000000E-03 0.  1.
         12    1    3    3    0    0 -0.25963362237E+02 -0.19044258286E+02  0.94905336144E+01  0.33568589196E+02  0.00000000000E+00 0. -1.
</event>
<event>
 7    1  0.3508738E-013  0.7246149E+02  0.7816164E-02  0.1226708E+00
        -11   -1    0    0    0    0  0.00000000000E+00  0.00000000000E+00  0.45593999997E+02  0.45594000000E+02  0.51100000000E-03 0.  1.
         11   -1    0    0    0    0 -0.00000000000E+00 -0.00000000000E+00 -0.45593999997E+02  0.45594000000E+02  0.51100000000E-03 0. -1.
    9900012    2    1    2    0    0 -0.77936208480E+01 -0.15373785417E+02 -0.73203999438E+01  0.72461493137E+02  0.69999899488E+02 0.  0.
        -12    1    1    2    0    0  0.77936208480E+01  0.15373785417E+02  0.73203999438E+01  0.18726506863E+02  0.00000000000E+00 0.  1.
         11    1    3    3    0    0  0.13528513578E+02  0.51967553885E+01 -0.49611525865E+01  0.15317962706E+02  0.51100000000E-03 0. -1.
        -11    1    3    3    0    0  0.11432718024E+02 -0.12505258361E+01  0.11881792146E+02  0.16536258378E+02  0.51100000000E-03 0.  1.
        -12    1    3    3    0    0 -0.32754852450E+02 -0.19320014969E+02 -0.14241039503E+02  0.40607272053E+02  0.00000000000E+00 0.  1.
</event>
<event>
 7    1  0.3508738E-013  0.7246157E+02  0.7816164E-02  0.1226708E+00
        -11   -1    0    0    0    0  0.00000000000E+00  0.00000000000E+00  0.45593999997E+02  0.45594000000E+02  0.51100000000E-03 0.  1.
         11   -1    0    0    0    0 -0.00000000000E+00 -0.00000000000E+00 -0.45593999997E+02  0.45594000000E+02  0.51100000000E-03 0. -1.
    9900012    2    1    2    0    0 -0.10134819037E+02 -0.15497008264E+02  0.27941770420E+01  0.72461568215E+02  0.69999997292E+02 0.  0.
        -12    1    1    2    0    0  0.10134819037E+02  0.15497008264E+02 -0.27941770420E+01  0.18726431785E+02  0.00000000000E+00 0.  1.
         11    1    3    3    0    0  0.25918536038E+01 -0.86512654775E+01 -0.32779663333E+01  0.96076616827E+01  0.51100000000E-03 0. -1.
        -11    1    3    3    0    0 -0.34090785247E+02 -0.14662432313E+02  0.12592847554E+02  0.39188625516E+02  0.51100000000E-03 0.  1.
         12    1    3    3    0    0  0.21364112606E+02  0.78166895268E+01 -0.65207041785E+01  0.23665281016E+02  0.00000000000E+00 0. -1.
</event>
<event>
 7    1  0.3875847E-013  0.7246157E+02  0.7816164E-02  0.1226708E+00
        -11   -1    0    0    0    0  0.00000000000E+00  0.00000000000E+00  0.45593999997E+02  0.45594000000E+02  0.51100000000E-03 0.  1.
         11   -1    0    0    0    0 -0.00000000000E+00 -0.00000000000E+00 -0.45593999997E+02  0.45594000000E+02  0.51100000000E-03 0. -1.
    9900012    2    1    2    0    0  0.21029758934E+01  0.17373622171E+02  0.66643753358E+01  0.72461570720E+02  0.70000000555E+02 0.  0.
        -12    1    1    2    0    0 -0.21029758934E+01 -0.17373622171E+02 -0.66643753358E+01  0.18726429280E+02  0.00000000000E+00 0.  1.
         11    1    3    3    0    0 -0.17205578577E+02 -0.11678252159E+02 -0.39195521539E+01  0.21160727705E+02  0.51100000000E-03 0. -1.
        -11    1    3    3    0    0  0.52758600963E+01 -0.61308059539E+01 -0.58797328924E+01  0.99996370207E+01  0.51100000000E-03 0.  1.
        -12    1    3    3    0    0  0.14032694374E+02  0.35182680284E+02  0.16463660382E+02  0.41301205994E+02  0.00000000000E+00 0.  1.
</event>
<event>
 7    1  0.3508738E-013  0.7246157E+02  0.7816164E-02  0.1226708E+00
        -11   -1    0    0    0    0  0.00000000000E+00  0.00000000000E+00  0.45593999997E+02  0.45594000000E+02  0.51100000000E-03 0.  1.
         11   -1    0    0    0    0 -0.00000000000E+00 -0.00000000000E+00 -0.45593999997E+02  0.45594000000E+02  0.51100000000E-03 0. -1.
    9900012    2    1    2    0    0  0.14100654710E+02 -0.50474005527E+01 -0.11241637817E+02  0.72461571178E+02  0.70000001152E+02 0.  0.
        -12    1    1    2    0    0 -0.14100654710E+02  0.50474005527E+01  0.11241637817E+02  0.18726428822E+02  0.00000000000E+00 0.  1.
         11    1    3    3    0    0  0.26558459381E+02  0.17348003578E+02 -0.59088965029E+01  0.32267941536E+02  0.51100000000E-03 0. -1.
        -11    1    3    3    0    0 -0.39965089116E+01  0.76331113926E+01 -0.57658775893E+00  0.86353301452E+01  0.51100000000E-03 0.  1.
        -12    1    3    3    0    0 -0.84612957596E+01 -0.30028515524E+02 -0.47561535557E+01  0.31558299497E+02  0.00000000000E+00 0.  1.
</event>
<event>
 7    1  0.3508738E-013  0.7246159E+02  0.7816164E-02  0.1226708E+00
        -11   -1    0    0    0    0  0.00000000000E+00  0.00000000000E+00  0.45593999997E+02  0.45594000000E+02  0.51100000000E-03 0.  1.
         11   -1    0    0    0    0 -0.00000000000E+00 -0.00000000000E+00 -0.45593999997E+02  0.45594000000E+02  0.51100000000E-03 0. -1.
    9900012    2    1    2    0    0  0.11603090183E+02 -0.13624684114E+02  0.55149676425E+01  0.72461585845E+02  0.70000020258E+02 0.  0.
        -12    1    1    2    0    0 -0.11603090183E+02  0.13624684114E+02 -0.55149676425E+01  0.18726414155E+02  0.00000000000E+00 0.  1.
         11    1    3    3    0    0  0.33154952205E+02 -0.44456179940E+01  0.84966266199E+01  0.34513867347E+02  0.51100000000E-03 0. -1.
        -11    1    3    3    0    0 -0.68990691165E+01  0.53382874514E+01 -0.12490302639E+02  0.15234898354E+02  0.51100000000E-03 0.  1.
        -12    1    3    3    0    0 -0.14652792905E+02 -0.14517353571E+02  0.95086436615E+01  0.22712820144E+02  0.00000000000E+00 0.  1.
</event>
<event>
 7    1  0.3508738E-013  0.7246156E+02  0.7816164E-02  0.1226708E+00
        -11   -1    0    0    0    0  0.00000000000E+00  0.00000000000E+00  0.45593999997E+02  0.45594000000E+02  0.51100000000E-03 0.  1.
         11   -1    0    0    0    0 -0.00000000000E+00 -0.00000000000E+00 -0.45593999997E+02  0.45594000000E+02  0.51100000000E-03 0. -1.
    9900012    2    1    2    0    0  0.12294496830E+02  0.17058192422E+00 -0.14124299633E+02  0.72461559051E+02  0.69999985354E+02 0.  0.
        -12    1    1    2    0    0 -0.12294496830E+02 -0.17058192422E+00  0.14124299633E+02  0.18726440949E+02  0.00000000000E+00 0.  1.
         11    1    3    3    0    0  0.41250191478E+01  0.32588967805E+00  0.16384100715E+02  0.16898542645E+02  0.51100000000E-03 0. -1.
        -11    1    3    3    0    0 -0.83866577643E+01 -0.18945918433E+02 -0.91552021625E+01  0.22651745642E+02  0.51100000000E-03 0.  1.
         12    1    3    3    0    0  0.16556135446E+02  0.18790610679E+02 -0.21353198185E+02  0.32911270764E+02  0.00000000000E+00 0. -1.
</event>
<event>
 7    1  0.3508738E-013  0.7246159E+02  0.7816164E-02  0.1226708E+00
        -11   -1    0    0    0    0  0.00000000000E+00  0.00000000000E+00  0.45593999997E+02  0.45594000000E+02  0.51100000000E-03 0.  1.
         11   -1    0    0    0    0 -0.00000000000E+00 -0.00000000000E+00 -0.45593999997E+02  0.45594000000E+02  0.51100000000E-03 0. -1.
    9900012    2    1    2    0    0 -0.64037540519E+01  0.60260031959E+01 -0.16533526171E+02  0.72461594362E+02  0.70000031353E+02 0.  0.
        -12    1    1    2    0    0  0.64037540519E+01 -0.60260031959E+01  0.16533526171E+02  0.18726405638E+02  0.00000000000E+00 0.  1.
         11    1    3    3    0    0  0.40318229479E+01 -0.35753332605E+01 -0.31758515312E+02  0.32212449445E+02  0.51100000000E-03 0. -1.
        -11    1    3    3    0    0 -0.22405075813E+02  0.17500194180E+01  0.61479640788E+01  0.23299086951E+02  0.51100000000E-03 0.  1.
        -12    1    3    3    0    0  0.11969498813E+02  0.78513170384E+01  0.90770250619E+01  0.16950057966E+02  0.00000000000E+00 0.  1.
</event>
<event>
 7    1  0.3508738E-013  0.7246137E+02  0.7816164E-02  0.1226709E+00
        -11   -1    0    0    0    0  0.00000000000E+00  0.00000000000E+00  0.45593999997E+02  0.45594000000E+02  0.51100000000E-03 0. -1.
         11   -1    0    0    0    0 -0.00000000000E+00 -0.00000000000E+00 -0.45593999997E+02  0.45594000000E+02  0.51100000000E-03 0.  1.
    9900012    2    1    2    0    0 -0.36103413380E+01 -0.71525341665E+01  0.16926109826E+02  0.72461374478E+02  0.69999744913E+02 0.  0.
        -12    1    1    2    0    0  0.36103413380E+01  0.71525341665E+01 -0.16926109826E+02  0.18726625522E+02  0.00000000000E+00 0.  1.
         11    1    3    3    0    0  0.10692387378E+02 -0.57804195469E+01 -0.18794961103E+01  0.12299305016E+02  0.51100000000E-03 0. -1.
        -11    1    3    3    0    0  0.20332054495E+02 -0.12996659770E+01  0.15039049765E+02  0.25323005149E+02  0.51100000000E-03 0.  1.
         12    1    3    3    0    0 -0.34634783211E+02 -0.72448642709E-01  0.37665561713E+01  0.34839064314E+02  0.00000000000E+00 0. -1.
</event>
<event>
 7    1  0.3508738E-013  0.7246161E+02  0.7816164E-02  0.1226708E+00
        -11   -1    0    0    0    0  0.00000000000E+00  0.00000000000E+00  0.45593999997E+02  0.45594000000E+02  0.51100000000E-03 0.  1.
         11   -1    0    0    0    0 -0.00000000000E+00 -0.00000000000E+00 -0.45593999997E+02  0.45594000000E+02  0.51100000000E-03 0. -1.
    9900012    2    1    2    0    0 -0.74088459530E+01  0.17114516703E+02  0.16970792054E+01  0.72461607978E+02  0.70000049090E+02 0.  0.
        -12    1    1    2    0    0  0.74088459530E+01 -0.17114516703E+02 -0.16970792054E+01  0.18726392022E+02  0.00000000000E+00 0.  1.
         11    1    3    3    0    0  0.33659507827E+01 -0.92935266047E-01  0.17601485435E+01  0.37995242849E+01  0.51100000000E-03 0. -1.
        -11    1    3    3    0    0  0.12074802151E+01 -0.11200605007E+02 -0.26023041735E+02  0.28356838018E+02  0.51100000000E-03 0.  1.
         12    1    3    3    0    0 -0.11982276951E+02  0.28408056976E+02  0.25959972397E+02  0.40305245675E+02  0.00000000000E+00 0. -1.
</event>
<event>
 7    1  0.3508738E-013  0.7246157E+02  0.7816164E-02  0.1226708E+00
        -11   -1    0    0    0    0  0.00000000000E+00  0.00000000000E+00  0.45593999997E+02  0.45594000000E+02  0.51100000000E-03 0. -1.
         11   -1    0    0    0    0 -0.00000000000E+00 -0.00000000000E+00 -0.45593999997E+02  0.45594000000E+02  0.51100000000E-03 0.  1.
    9900012    2    1    2    0    0  0.16399131521E+02  0.41381207654E+01 -0.80388907938E+01  0.72461566188E+02  0.69999994651E+02 0.  0.
        -12    1    1    2    0    0 -0.16399131521E+02 -0.41381207654E+01  0.80388907938E+01  0.18726433812E+02  0.00000000000E+00 0.  1.
         11    1    3    3    0    0  0.95717038579E+01 -0.17227216342E+02  0.60662420075E+01  0.20620227690E+02  0.51100000000E-03 0. -1.
        -11    1    3    3    0    0  0.13183616092E+02  0.40190856643E+00 -0.24323431378E+02  0.27669452073E+02  0.51100000000E-03 0.  1.
         12    1    3    3    0    0 -0.63561884289E+01  0.20963428541E+02  0.10218298577E+02  0.24171886425E+02  0.00000000000E+00 0. -1.
</event>
<event>
 7    1  0.3508738E-013  0.7246161E+02  0.7816164E-02  0.1226708E+00
        -11   -1    0    0    0    0  0.00000000000E+00  0.00000000000E+00  0.45593999997E+02  0.45594000000E+02  0.51100000000E-03 0. -1.
         11   -1    0    0    0    0 -0.00000000000E+00 -0.00000000000E+00 -0.45593999997E+02  0.45594000000E+02  0.51100000000E-03 0.  1.
    9900012    2    1    2    0    0 -0.12219978140E+02  0.12081560355E+02  0.74421660046E+01  0.72461606829E+02  0.70000047593E+02 0.  0.
        -12    1    1    2    0    0  0.12219978140E+02 -0.12081560355E+02 -0.74421660046E+01  0.18726393171E+02  0.00000000000E+00 0.  1.
         11    1    3    3    0    0 -0.54435820298E+01  0.45347636558E+01 -0.18858538668E+02  0.20145499440E+02  0.51100000000E-03 0. -1.
        -11    1    3    3    0    0  0.14751340987E+02  0.74488279278E+01 -0.21217149511E+01  0.16660995559E+02  0.51100000000E-03 0.  1.
         12    1    3    3    0    0 -0.21527737097E+02  0.97968771872E-01  0.28422419623E+02  0.35655111830E+02  0.00000000000E+00 0. -1.
</event>
<event>
 7    1  0.3508738E-013  0.7246154E+02  0.7816164E-02  0.1226708E+00
        -11   -1    0    0    0    0  0.00000000000E+00  0.00000000000E+00  0.45593999997E+02  0.45594000000E+02  0.51100000000E-03 0.  1.
         11   -1    0    0    0    0 -0.00000000000E+00 -0.00000000000E+00 -0.45593999997E+02  0.45594000000E+02  0.51100000000E-03 0. -1.
    9900012    2    1    2    0    0  0.91914964568E+01 -0.86932275348E+01 -0.13806678209E+02  0.72461543441E+02  0.69999965018E+02 0.  0.
        -12    1    1    2    0    0 -0.91914964568E+01  0.86932275348E+01  0.13806678209E+02  0.18726456559E+02  0.00000000000E+00 0.  1.
         11    1    3    3    0    0  0.36971936845E+01  0.15689233835E+01  0.12157724675E+02  0.12803945925E+02  0.51100000000E-03 0. -1.
        -11    1    3    3    0    0  0.36901763039E+01  0.16213589038E+02  0.63887315724E+01  0.17813302951E+02  0.51100000000E-03 0.  1.
         12    1    3    3    0    0  0.18041264684E+01 -0.26475739956E+02 -0.32353134456E+02  0.41844294565E+02  0.00000000000E+00 0. -1.
</event>
<event>
 7    1  0.3508738E-013  0.7246158E+02  0.7816164E-02  0.1226708E+00
        -11   -1    0    0    0    0  0.00000000000E+00  0.00000000000E+00  0.45593999997E+02  0.45594000000E+02  0.51100000000E-03 0.  1.
         11   -1    0    0    0    0 -0.00000000000E+00 -0.00000000000E+00 -0.45593999997E+02  0.45594000000E+02  0.51100000000E-03 0. -1.
    9900012    2    1    2    0    0  0.16498688991E+02  0.31938811294E+01 -0.82626271957E+01  0.72461584880E+02  0.70000019000E+02 0.  0.
        -12    1    1    2    0    0 -0.16498688991E+02 -0.31938811294E+01  0.82626271957E+01  0.18726415120E+02  0.00000000000E+00 0.  1.
         11    1    3    3    0    0  0.31979625206E+02 -0.17860397118E+02 -0.40999134677E+01  0.36857828263E+02  0.51100000000E-03 0. -1.
        -11    1    3    3    0    0  0.38197793783E+01 -0.86585532832E+00  0.36677910699E+01  0.53659213135E+01  0.51100000000E-03 0.  1.
        -12    1    3    3    0    0 -0.19300715594E+02  0.21920133576E+02 -0.78305047979E+01  0.30237835303E+02  0.00000000000E+00 0.  1.
</event>
<event>
 7    1  0.3508738E-013  0.7246162E+02  0.7816164E-02  0.1226708E+00
        -11   -1    0    0    0    0  0.00000000000E+00  0.00000000000E+00  0.45593999997E+02  0.45594000000E+02  0.51100000000E-03 0. -1.
         11   -1    0    0    0    0 -0.00000000000E+00 -0.00000000000E+00 -0.45593999997E+02  0.45594000000E+02  0.51100000000E-03 0.  1.
    9900012    2    1    2    0    0  0.90075819819E+01 -0.28650469167E+00  0.16415201321E+02  0.72461616139E+02  0.70000059721E+02 0.  0.
        -12    1    1    2    0    0 -0.90075819819E+01  0.28650469167E+00 -0.16415201321E+02  0.18726383861E+02  0.00000000000E+00 0.  1.
         11    1    3    3    0    0 -0.35534773504E+00  0.52767996641E+01  0.14179095497E+02  0.15133328652E+02  0.51100000000E-03 0. -1.
        -11    1    3    3    0    0 -0.89171496892E+01 -0.18980560523E+02  0.19649321046E+02  0.28738007136E+02  0.51100000000E-03 0.  1.
        -12    1    3    3    0    0  0.18280079406E+02  0.13417256167E+02 -0.17413215222E+02  0.28590280350E+02  0.00000000000E+00 0.  1.
</event>
<event>
 7    1  0.3508738E-013  0.7246157E+02  0.7816164E-02  0.1226708E+00
        -11   -1    0    0    0    0  0.00000000000E+00  0.00000000000E+00  0.45593999997E+02  0.45594000000E+02  0.51100000000E-03 0.  1.
         11   -1    0    0    0    0 -0.00000000000E+00 -0.00000000000E+00 -0.45593999997E+02  0.45594000000E+02  0.51100000000E-03 0. -1.
    9900012    2    1    2    0    0 -0.16544310177E+02 -0.75915626939E+01 -0.43969390978E+01  0.72461572236E+02  0.70000002529E+02 0.  0.
        -12    1    1    2    0    0  0.16544310177E+02  0.75915626939E+01  0.43969390978E+01  0.18726427764E+02  0.00000000000E+00 0.  1.
         11    1    3    3    0    0  0.44714041987E+01  0.25291393222E+02 -0.17189683738E+01  0.25741073776E+02  0.51100000000E-03 0. -1.
        -11    1    3    3    0    0  0.30741267575E+01 -0.16544385334E+01 -0.62082377243E+01  0.71224741547E+01  0.51100000000E-03 0.  1.
        -12    1    3    3    0    0 -0.24089841134E+02 -0.31228517383E+02  0.35302670003E+01  0.39598024305E+02  0.00000000000E+00 0.  1.
</event>
<event>
 7    1  0.3508738E-013  0.7246156E+02  0.7816164E-02  0.1226708E+00
        -11   -1    0    0    0    0  0.00000000000E+00  0.00000000000E+00  0.45593999997E+02  0.45594000000E+02  0.51100000000E-03 0. -1.
         11   -1    0    0    0    0 -0.00000000000E+00 -0.00000000000E+00 -0.45593999997E+02  0.45594000000E+02  0.51100000000E-03 0.  1.
    9900012    2    1    2    0    0  0.94967458976E+01 -0.35666961226E+01  0.15740714676E+02  0.72461558737E+02  0.69999984944E+02 0.  0.
        -12    1    1    2    0    0 -0.94967458976E+01  0.35666961226E+01 -0.15740714676E+02  0.18726441263E+02  0.00000000000E+00 0.  1.
         11    1    3    3    0    0 -0.58963687387E+01 -0.57494143759E+01 -0.99012906458E+01  0.12878605774E+02  0.51100000000E-03 0. -1.
        -11    1    3    3    0    0 -0.14638667543E+02  0.89629907613E+01 -0.31254590423E+01  0.17446899017E+02  0.51100000000E-03 0.  1.
         12    1    3    3    0    0  0.30031782180E+02 -0.67802725080E+01  0.28767464364E+02  0.42136053946E+02  0.00000000000E+00 0. -1.
</event>
<event>
 7    1  0.3508738E-013  0.7246177E+02  0.7816164E-02  0.1226707E+00
        -11   -1    0    0    0    0  0.00000000000E+00  0.00000000000E+00  0.45593999997E+02  0.45594000000E+02  0.51100000000E-03 0. -1.
         11   -1    0    0    0    0 -0.00000000000E+00 -0.00000000000E+00 -0.45593999997E+02  0.45594000000E+02  0.51100000000E-03 0.  1.
    9900012    2    1    2    0    0 -0.34189235725E+01  0.17342744185E+02  0.61815858224E+01  0.72461766594E+02  0.70000255717E+02 0.  0.
        -12    1    1    2    0    0  0.34189235725E+01 -0.17342744185E+02 -0.61815858224E+01  0.18726233406E+02  0.00000000000E+00 0.  1.
         11    1    3    3    0    0  0.16017675702E+02  0.96158155728E+01  0.56473838226E+01  0.19517243359E+02  0.51100000000E-03 0. -1.
        -11    1    3    3    0    0 -0.31187834979E+02  0.15894116515E+00  0.13402094285E+02  0.33945875220E+02  0.51100000000E-03 0.  1.
         12    1    3    3    0    0  0.11751235704E+02  0.75679874475E+01 -0.12867892285E+02  0.18998648016E+02  0.00000000000E+00 0. -1.
</event>
<event>
 7    1  0.3508738E-013  0.7246161E+02  0.7816164E-02  0.1226708E+00
        -11   -1    0    0    0    0  0.00000000000E+00  0.00000000000E+00  0.45593999997E+02  0.45594000000E+02  0.51100000000E-03 0.  1.
         11   -1    0    0    0    0 -0.00000000000E+00 -0.00000000000E+00 -0.45593999997E+02  0.45594000000E+02  0.51100000000E-03 0. -1.
    9900012    2    1    2    0    0  0.57440268617E+01  0.29484986209E+01 -0.17578119628E+02  0.72461607439E+02  0.70000048387E+02 0.  0.
        -12    1    1    2    0    0 -0.57440268617E+01 -0.29484986209E+01  0.17578119628E+02  0.18726392561E+02  0.00000000000E+00 0.  1.
         11    1    3    3    0    0 -0.94551974859E+01  0.39117920220E+01  0.18712694682E+01  0.10402140453E+02  0.51100000000E-03 0. -1.
        -11    1    3    3    0    0  0.16946236679E+02  0.14529836697E+02  0.13161130898E+02  0.25913441663E+02  0.51100000000E-03 0.  1.
         12    1    3    3    0    0 -0.17470123313E+01 -0.15493130098E+02 -0.32610519994E+02  0.36146025323E+02  0.00000000000E+00 0. -1.
</event>
<event>
 7    1  0.3508738E-013  0.7246159E+02  0.7816164E-02  0.1226708E+00
        -11   -1    0    0    0    0  0.00000000000E+00  0.00000000000E+00  0.45593999997E+02  0.45594000000E+02  0.51100000000E-03 0. -1.
         11   -1    0    0    0    0 -0.00000000000E+00 -0.00000000000E+00 -0.45593999997E+02  0.45594000000E+02  0.51100000000E-03 0.  1.
    9900012    2    1    2    0    0 -0.69310275021E+01  0.17577487077E+01  0.17307503162E+02  0.72461588479E+02  0.70000023689E+02 0.  0.
        -12    1    1    2    0    0  0.69310275021E+01 -0.17577487077E+01 -0.17307503162E+02  0.18726411521E+02  0.00000000000E+00 0.  1.
         11    1    3    3    0    0 -0.17158361106E+00  0.73578961720E+01 -0.10860307587E+02  0.13119236188E+02  0.51100000000E-03 0. -1.
        -11    1    3    3    0    0 -0.27871030246E+02 -0.87021175989E+01  0.23546379558E+02  0.37509374404E+02  0.51100000000E-03 0.  1.
         12    1    3    3    0    0  0.21111586355E+02  0.31019701345E+01  0.46214311915E+01  0.21832977886E+02  0.00000000000E+00 0. -1.
</event>
<event>
 7    1  0.3508738E-013  0.7246155E+02  0.7816164E-02  0.1226708E+00
        -11   -1    0    0    0    0  0.00000000000E+00  0.00000000000E+00  0.45593999997E+02  0.45594000000E+02  0.51100000000E-03 0.  1.
         11   -1    0    0    0    0 -0.00000000000E+00 -0.00000000000E+00 -0.45593999997E+02  0.45594000000E+02  0.51100000000E-03 0. -1.
    9900012    2    1    2    0    0 -0.53477244406E+01 -0.17638626987E+02  0.33106939117E+01  0.72461547777E+02  0.69999970667E+02 0.  0.
        -12    1    1    2    0    0  0.53477244406E+01  0.17638626987E+02 -0.33106939117E+01  0.18726452223E+02  0.00000000000E+00 0.  1.
         11    1    3    3    0    0  0.37109665711E+01 -0.13641869899E+01  0.59423606366E+01  0.71375016100E+01  0.51100000000E-03 0. -1.
        -11    1    3    3    0    0 -0.14372636371E+02 -0.10786138521E+02  0.28266830868E+02  0.33495181565E+02  0.51100000000E-03 0.  1.
         12    1    3    3    0    0  0.53139453596E+01 -0.54883014760E+01 -0.30898497593E+02  0.31828864602E+02  0.00000000000E+00 0. -1.
</event>
<event>
 7    1  0.3508738E-013  0.7246159E+02  0.7816164E-02  0.1226708E+00
        -11   -1    0    0    0    0  0.00000000000E+00  0.00000000000E+00  0.45593999997E+02  0.45594000000E+02  0.51100000000E-03 0.  1.
         11   -1    0    0    0    0 -0.00000000000E+00 -0.00000000000E+00 -0.45593999997E+02  0.45594000000E+02  0.51100000000E-03 0. -1.
    9900012    2    1    2    0    0  0.14121846375E+02  0.11929608056E+02 -0.29893410837E+01  0.72461594752E+02  0.70000031860E+02 0.  0.
        -12    1    1    2    0    0 -0.14121846375E+02 -0.11929608056E+02  0.29893410837E+01  0.18726405248E+02  0.00000000000E+00 0.  1.
         11    1    3    3    0    0 -0.97012180744E+01  0.76289851367E+01 -0.70947378390E+01  0.14235531308E+02  0.51100000000E-03 0. -1.
        -11    1    3    3    0    0 -0.97487850787E+01 -0.14275529137E+02  0.90970374395E+01  0.19534216981E+02  0.51100000000E-03 0.  1.
        -12    1    3    3    0    0  0.33571849529E+02  0.18576152056E+02 -0.49916406842E+01  0.38691846463E+02  0.00000000000E+00 0.  1.
</event>
<event>
 7    1  0.3508738E-013  0.7246158E+02  0.7816164E-02  0.1226708E+00
        -11   -1    0    0    0    0  0.00000000000E+00  0.00000000000E+00  0.45593999997E+02  0.45594000000E+02  0.51100000000E-03 0. -1.
         11   -1    0    0    0    0 -0.00000000000E+00 -0.00000000000E+00 -0.45593999997E+02  0.45594000000E+02  0.51100000000E-03 0.  1.
    9900012    2    1    2    0    0  0.90211546946E+01 -0.44981198926E+01  0.15781777456E+02  0.72461579780E+02  0.70000012357E+02 0.  0.
        -12    1    1    2    0    0 -0.90211546946E+01  0.44981198926E+01 -0.15781777456E+02  0.18726420220E+02  0.00000000000E+00 0.  1.
         11    1    3    3    0    0 -0.85930045414E+01  0.10876679327E+02 -0.13061432092E+02  0.19045810269E+02  0.51100000000E-03 0. -1.
        -11    1    3    3    0    0  0.21770886794E+02  0.64779314903E+01  0.14480994369E+02  0.26937600234E+02  0.51100000000E-03 0.  1.
        -12    1    3    3    0    0 -0.41567275578E+01 -0.21852730710E+02  0.14362215178E+02  0.26478169278E+02  0.00000000000E+00 0.  1.
</event>
<event>
 7    1  0.3508738E-013  0.7246130E+02  0.7816164E-02  0.1226709E+00
        -11   -1    0    0    0    0  0.00000000000E+00  0.00000000000E+00  0.45593999997E+02  0.45594000000E+02  0.51100000000E-03 0.  1.
         11   -1    0    0    0    0 -0.00000000000E+00 -0.00000000000E+00 -0.45593999997E+02  0.45594000000E+02  0.51100000000E-03 0. -1.
    9900012    2    1    2    0    0 -0.41315931320E+01 -0.16737050626E+02 -0.73137100751E+01  0.72461300330E+02  0.69999648321E+02 0.  0.
        -12    1    1    2    0    0  0.41315931320E+01  0.16737050626E+02  0.73137100751E+01  0.18726699670E+02  0.00000000000E+00 0.  1.
         11    1    3    3    0    0  0.58011224529E+01  0.12023987371E+02  0.15111510354E+02  0.20164003557E+02  0.51100000000E-03 0. -1.
        -11    1    3    3    0    0  0.21885169788E+01 -0.17801063049E+02  0.64987528341E+01  0.19076195661E+02  0.51100000000E-03 0.  1.
         12    1    3    3    0    0 -0.12121232564E+02 -0.10959974948E+02 -0.28923973264E+02  0.33221101112E+02  0.00000000000E+00 0. -1.
</event>
<event>
 7    1  0.3508738E-013  0.7246160E+02  0.7816164E-02  0.1226708E+00
        -11   -1    0    0    0    0  0.00000000000E+00  0.00000000000E+00  0.45593999997E+02  0.45594000000E+02  0.51100000000E-03 0.  1.
         11   -1    0    0    0    0 -0.00000000000E+00 -0.00000000000E+00 -0.45593999997E+02  0.45594000000E+02  0.51100000000E-03 0. -1.
    9900012    2    1    2    0    0  0.80697966272E+01 -0.10030968588E+02 -0.13599125013E+02  0.72461597529E+02  0.70000035478E+02 0.  0.
        -12    1    1    2    0    0 -0.80697966272E+01  0.10030968588E+02  0.13599125013E+02  0.18726402471E+02  0.00000000000E+00 0.  1.
         11    1    3    3    0    0  0.23049178364E+01 -0.62442757586E+01 -0.27470563751E+02  0.28265447087E+02  0.51100000000E-03 0. -1.
        -11    1    3    3    0    0  0.53514314642E+01  0.60632413289E+01 -0.13147059216E+02  0.15435215594E+02  0.51100000000E-03 0.  1.
        -12    1    3    3    0    0  0.41344732660E+00 -0.98499341581E+01  0.27018497954E+02  0.28760934848E+02  0.00000000000E+00 0.  1.
</event>
<event>
 7    1  0.3508738E-013  0.7246178E+02  0.7816164E-02  0.1226707E+00
        -11   -1    0    0    0    0  0.00000000000E+00  0.00000000000E+00  0.45593999997E+02  0.45594000000E+02  0.51100000000E-03 0. -1.
         11   -1    0    0    0    0 -0.00000000000E+00 -0.00000000000E+00 -0.45593999997E+02  0.45594000000E+02  0.51100000000E-03 0.  1.
    9900012    2    1    2    0    0 -0.38443525631E+01 -0.83916216729E+01 -0.16293340248E+02  0.72461780484E+02  0.70000273811E+02 0.  0.
        -12    1    1    2    0    0  0.38443525631E+01  0.83916216729E+01  0.16293340248E+02  0.18726219516E+02  0.00000000000E+00 0.  1.
         11    1    3    3    0    0 -0.10826053196E+02  0.22157090682E+01 -0.71375439823E+01  0.13155125573E+02  0.51100000000E-03 0. -1.
        -11    1    3    3    0    0 -0.16214036836E+02  0.16158345343E+02 -0.74158977148E+00  0.22902774295E+02  0.51100000000E-03 0.  1.
        -12    1    3    3    0    0  0.23195737470E+02 -0.26765676084E+02 -0.84142064938E+01  0.36403880616E+02  0.00000000000E+00 0.  1.
</event>
<event>
 7    1  0.3508738E-013  0.7246155E+02  0.7816164E-02  0.1226708E+00
        -11   -1    0    0    0    0  0.00000000000E+00  0.00000000000E+00  0.45593999997E+02  0.45594000000E+02  0.51100000000E-03 0.  1.
         11   -1    0    0    0    0 -0.00000000000E+00 -0.00000000000E+00 -0.45593999997E+02  0.45594000000E+02  0.51100000000E-03 0. -1.
    9900012    2    1    2    0    0 -0.11862748300E+01 -0.59526965423E+01 -0.17715477054E+02  0.72461548886E+02  0.69999972111E+02 0.  0.
        -12    1    1    2    0    0  0.11862748300E+01  0.59526965423E+01  0.17715477054E+02  0.18726451114E+02  0.00000000000E+00 0.  1.
         11    1    3    3    0    0  0.10198659637E+02 -0.20899406725E+02  0.22091794039E+01  0.23359758855E+02  0.51100000000E-03 0. -1.
        -11    1    3    3    0    0  0.51170941636E+01 -0.11874047827E+02 -0.90658823032E+01  0.15791386471E+02  0.51100000000E-03 0.  1.
         12    1    3    3    0    0 -0.16502028630E+02  0.26820758011E+02 -0.10858774154E+02  0.33310403560E+02  0.00000000000E+00 0. -1.
</event>
<event>
 7    1  0.3508738E-013  0.7246154E+02  0.7816164E-02  0.1226708E+00
        -11   -1    0    0    0    0  0.00000000000E+00  0.00000000000E+00  0.45593999997E+02  0.45594000000E+02  0.51100000000E-03 0.  1.
         11   -1    0    0    0    0 -0.00000000000E+00 -0.00000000000E+00 -0.45593999997E+02  0.45594000000E+02  0.51100000000E-03 0. -1.
    9900012    2    1    2    0    0 -0.43350095057E+01 -0.72700529363E+01 -0.16704318156E+02  0.72461542188E+02  0.69999963387E+02 0.  0.
        -12    1    1    2    0    0  0.43350095057E+01  0.72700529363E+01  0.16704318156E+02  0.18726457812E+02  0.00000000000E+00 0.  1.
         11    1    3    3    0    0 -0.58413264185E+01  0.76085963193E+01  0.72872362209E+01  0.12046395489E+02  0.51100000000E-03 0. -1.
        -11    1    3    3    0    0 -0.74073637922E+01 -0.65647140451E+01  0.15885556667E+02  0.18716714982E+02  0.51100000000E-03 0.  1.
         12    1    3    3    0    0  0.89136807049E+01 -0.83139352104E+01 -0.39877111044E+02  0.41698431717E+02  0.00000000000E+00 0. -1.
</event>
<event>
 7    1  0.3508738E-013  0.7246160E+02  0.7816164E-02  0.1226708E+00
        -11   -1    0    0    0    0  0.00000000000E+00  0.00000000000E+00  0.45593999997E+02  0.45594000000E+02  0.51100000000E-03 0.  1.
         11   -1    0    0    0    0 -0.00000000000E+00 -0.00000000000E+00 -0.45593999997E+02  0.45594000000E+02  0.51100000000E-03 0. -1.
    9900012    2    1    2    0    0 -0.16331261321E+02  0.29892480106E+01  0.86621112713E+01  0.72461604947E+02  0.70000045142E+02 0.  0.
        -12    1    1    2    0    0  0.16331261321E+02 -0.29892480106E+01 -0.86621112713E+01  0.18726395053E+02  0.00000000000E+00 0.  1.
         11    1    3    3    0    0  0.35184697738E+01  0.68947944406E+00  0.39606782046E+01  0.53424697991E+01  0.51100000000E-03 0. -1.
        -11    1    3    3    0    0 -0.11129155976E+02 -0.43723487911E+01  0.33887893147E+02  0.35935565237E+02  0.51100000000E-03 0.  1.
         12    1    3    3    0    0 -0.87205751186E+01  0.66721173576E+01 -0.29186460080E+02  0.31183569911E+02  0.00000000000E+00 0. -1.
</event>
<event>
 7    1  0.3508738E-013  0.7246157E+02  0.7816164E-02  0.1226708E+00
        -11   -1    0    0    0    0  0.00000000000E+00  0.00000000000E+00  0.45593999997E+02  0.45594000000E+02  0.51100000000E-03 0.  1.
         11   -1    0    0    0    0 -0.00000000000E+00 -0.00000000000E+00 -0.45593999997E+02  0.45594000000E+02  0.51100000000E-03 0. -1.
    9900012    2    1    2    0    0 -0.14074591591E+02  0.12149928583E+02  0.22280353987E+01  0.72461573892E+02  0.70000004687E+02 0.  0.
        -12    1    1    2    0    0  0.14074591591E+02 -0.12149928583E+02 -0.22280353987E+01  0.18726426108E+02  0.00000000000E+00 0.  1.
         11    1    3    3    0    0 -0.20964201031E+02 -0.51437021776E+00  0.19294245052E+01  0.21059083094E+02  0.51100000000E-03 0. -1.
        -11    1    3    3    0    0  0.14322206680E+02 -0.15483514038E+02  0.55737147458E+01  0.21815845331E+02  0.51100000000E-03 0.  1.
         12    1    3    3    0    0 -0.74325972405E+01  0.28147812839E+02 -0.52751038524E+01  0.29586645467E+02  0.00000000000E+00 0. -1.
</event>
<event>
 7    1  0.3508738E-013  0.7246150E+02  0.7816164E-02  0.1226708E+00
        -11   -1    0    0    0    0  0.00000000000E+00  0.00000000000E+00  0.45593999997E+02  0.45594000000E+02  0.51100000000E-03 0. -1.
         11   -1    0    0    0    0 -0.00000000000E+00 -0.00000000000E+00 -0.45593999997E+02  0.45594000000E+02  0.51100000000E-03 0.  1.
    9900012    2    1    2    0    0  0.11057917695E+02 -0.64639082290E+01  0.13660974962E+02  0.72461497650E+02  0.69999905368E+02 0.  0.
        -12    1    1    2    0    0 -0.11057917695E+02  0.64639082290E+01 -0.13660974962E+02  0.18726502350E+02  0.00000000000E+00 0.  1.
         11    1    3    3    0    0  0.61136686381E+01 -0.12772825613E+02 -0.14464589744E+02  0.20242192942E+02  0.51100000000E-03 0. -1.
        -11    1    3    3    0    0  0.20052790770E+02 -0.26721492800E+01  0.14606324239E+01  0.20282708073E+02  0.51100000000E-03 0.  1.
         12    1    3    3    0    0 -0.15108541713E+02  0.89810666644E+01  0.26664932282E+02  0.31936596636E+02  0.00000000000E+00 0. -1.
</event>
<event>
 7    1  0.3508738E-013  0.7246164E+02  0.7816164E-02  0.1226708E+00
        -11   -1    0    0    0    0  0.00000000000E+00  0.00000000000E+00  0.45593999997E+02  0.45594000000E+02  0.51100000000E-03 0.  1.
         11   -1    0    0    0    0 -0.00000000000E+00 -0.00000000000E+00 -0.45593999997E+02  0.45594000000E+02  0.51100000000E-03 0. -1.
    9900012    2    1    2    0    0 -0.61722546428E+01 -0.46479794959E+01 -0.17058018720E+02  0.72461643082E+02  0.70000094819E+02 0.  0.
        -12    1    1    2    0    0  0.61722546428E+01  0.46479794959E+01  0.17058018720E+02  0.18726356918E+02  0.00000000000E+00 0.  1.
         11    1    3    3    0    0  0.10291357359E+02 -0.30366256409E+02  0.45045291786E+01  0.32377651983E+02  0.51100000000E-03 0.  1.
        -11    1    3    3    0    0 -0.15802229525E+01  0.80932610876E+01 -0.13165439994E+02  0.15534696332E+02  0.51100000000E-03 0. -1.
        -12    1    3    3    0    0 -0.14883389049E+02  0.17625015825E+02 -0.83971079043E+01  0.24549294767E+02  0.00000000000E+00 0.  1.
</event>
<event>
 7    1  0.3508738E-013  0.7246134E+02  0.7816164E-02  0.1226709E+00
        -11   -1    0    0    0    0  0.00000000000E+00  0.00000000000E+00  0.45593999997E+02  0.45594000000E+02  0.51100000000E-03 0.  1.
         11   -1    0    0    0    0 -0.00000000000E+00 -0.00000000000E+00 -0.45593999997E+02  0.45594000000E+02  0.51100000000E-03 0. -1.
    9900012    2    1    2    0    0  0.16016544254E+02 -0.96577940556E+01  0.94075751791E+00  0.72461342515E+02  0.69999703274E+02 0.  0.
        -12    1    1    2    0    0 -0.16016544254E+02  0.96577940556E+01 -0.94075751791E+00  0.18726657485E+02  0.00000000000E+00 0.  1.
         11    1    3    3    0    0  0.35324007992E+01 -0.21333374876E+02 -0.21253233958E+02  0.30319806941E+02  0.51100000000E-03 0. -1.
        -11    1    3    3    0    0  0.50863643657E+01  0.11754995497E+02 -0.51571349460E+01  0.13807500234E+02  0.51100000000E-03 0.  1.
        -12    1    3    3    0    0  0.73977790889E+01 -0.79414677244E-01  0.27351126422E+02  0.28334035340E+02  0.00000000000E+00 0.  1.
</event>
<event>
 7    1  0.3508738E-013  0.7246162E+02  0.7816164E-02  0.1226708E+00
        -11   -1    0    0    0    0  0.00000000000E+00  0.00000000000E+00  0.45593999997E+02  0.45594000000E+02  0.51100000000E-03 0.  1.
         11   -1    0    0    0    0 -0.00000000000E+00 -0.00000000000E+00 -0.45593999997E+02  0.45594000000E+02  0.51100000000E-03 0. -1.
    9900012    2    1    2    0    0  0.20534003749E+01 -0.79036486819E+01 -0.16852101371E+02  0.72461616574E+02  0.70000060288E+02 0.  0.
        -12    1    1    2    0    0 -0.20534003749E+01  0.79036486819E+01  0.16852101371E+02  0.18726383426E+02  0.00000000000E+00 0.  1.
         11    1    3    3    0    0 -0.94248624121E+01  0.13072897748E+02 -0.12500320916E+02  0.20395752260E+02  0.51100000000E-03 0. -1.
        -11    1    3    3    0    0 -0.15479950770E+02  0.75488598571E+00  0.48463679751E+01  0.16238411606E+02  0.51100000000E-03 0.  1.
        -12    1    3    3    0    0  0.26958213557E+02 -0.21731432415E+02 -0.91981484301E+01  0.35827452708E+02  0.00000000000E+00 0.  1.
</event>
<event>
 7    1  0.3508738E-013  0.7246150E+02  0.7816164E-02  0.1226708E+00
        -11   -1    0    0    0    0  0.00000000000E+00  0.00000000000E+00  0.45593999997E+02  0.45594000000E+02  0.51100000000E-03 0. -1.
         11   -1    0    0    0    0 -0.00000000000E+00 -0.00000000000E+00 -0.45593999997E+02  0.45594000000E+02  0.51100000000E-03 0.  1.
    9900012    2    1    2    0    0  0.26755286427E+01  0.10927909959E+02  0.14970106354E+02  0.72461501293E+02  0.69999910112E+02 0.  0.
        -12    1    1    2    0    0 -0.26755286427E+01 -0.10927909959E+02 -0.14970106354E+02  0.18726498707E+02  0.00000000000E+00 0.  1.
         11    1    3    3    0    0 -0.21386668378E+02  0.36812691819E+01  0.88162646924E+01  0.23423660058E+02  0.51100000000E-03 0. -1.
        -11    1    3    3    0    0 -0.90401735589E+01 -0.75256043966E+01 -0.18729816558E+01  0.11910815256E+02  0.51100000000E-03 0.  1.
        -12    1    3    3    0    0  0.33102370580E+02  0.14772245174E+02  0.80268233170E+01  0.37127025979E+02  0.00000000000E+00 0.  1.
</event>
<event>
 7    1  0.3557805E-013  0.7246156E+02  0.7816164E-02  0.1226708E+00
        -11   -1    0    0    0    0  0.00000000000E+00  0.00000000000E+00  0.45593999997E+02  0.45594000000E+02  0.51100000000E-03 0. -1.
         11   -1    0    0    0    0 -0.00000000000E+00 -0.00000000000E+00 -0.45593999997E+02  0.45594000000E+02  0.51100000000E-03 0.  1.
    9900012    2    1    2    0    0  0.18105841141E+01  0.16089471157E+02  0.94090579129E+01  0.72461556991E+02  0.69999982671E+02 0.  0.
        -12    1    1    2    0    0 -0.18105841141E+01 -0.16089471157E+02 -0.94090579129E+01  0.18726443009E+02  0.00000000000E+00 0.  1.
         11    1    3    3    0    0  0.10389707140E+02  0.19304146420E+02  0.95603198257E+01  0.23916433657E+02  0.51100000000E-03 0. -1.
        -11    1    3    3    0    0  0.18406480779E+02 -0.73910663385E+01 -0.57886848472E+01  0.20662411979E+02  0.51100000000E-03 0.  1.
        -12    1    3    3    0    0 -0.26985603805E+02  0.41763910757E+01  0.56374229344E+01  0.27882711355E+02  0.00000000000E+00 0.  1.
</event>
<event>
 7    1  0.3508738E-013  0.7246149E+02  0.7816164E-02  0.1226708E+00
        -11   -1    0    0    0    0  0.00000000000E+00  0.00000000000E+00  0.45593999997E+02  0.45594000000E+02  0.51100000000E-03 0. -1.
         11   -1    0    0    0    0 -0.00000000000E+00 -0.00000000000E+00 -0.45593999997E+02  0.45594000000E+02  0.51100000000E-03 0.  1.
    9900012    2    1    2    0    0 -0.87962922418E+01  0.16026376404E+02 -0.40574071658E+01  0.72461493365E+02  0.69999899786E+02 0.  0.
        -12    1    1    2    0    0  0.87962922418E+01 -0.16026376404E+02  0.40574071658E+01  0.18726506635E+02  0.00000000000E+00 0.  1.
         11    1    3    3    0    0 -0.14665167982E+02  0.66468546178E+01  0.48207917577E+01  0.16807375217E+02  0.51100000000E-03 0. -1.
        -11    1    3    3    0    0 -0.16643227204E+02 -0.11999835398E+02 -0.13068241859E+02  0.24326364441E+02  0.51100000000E-03 0.  1.
         12    1    3    3    0    0  0.22512102944E+02  0.21379357184E+02  0.41900429356E+01  0.31327753708E+02  0.00000000000E+00 0. -1.
</event>
<event>
 7    1  0.3508738E-013  0.7246158E+02  0.7816164E-02  0.1226708E+00
        -11   -1    0    0    0    0  0.00000000000E+00  0.00000000000E+00  0.45593999997E+02  0.45594000000E+02  0.51100000000E-03 0. -1.
         11   -1    0    0    0    0 -0.00000000000E+00 -0.00000000000E+00 -0.45593999997E+02  0.45594000000E+02  0.51100000000E-03 0.  1.
    9900012    2    1    2    0    0  0.35416927145E+01  0.97880418288E+01  0.15566935865E+02  0.72461579030E+02  0.70000011379E+02 0.  0.
        -12    1    1    2    0    0 -0.35416927145E+01 -0.97880418288E+01 -0.15566935865E+02  0.18726420970E+02  0.00000000000E+00 0.  1.
         11    1    3    3    0    0 -0.95238074233E+01  0.11485119001E+02  0.15229443645E+02  0.21320103665E+02  0.51100000000E-03 0. -1.
        -11    1    3    3    0    0 -0.16498440780E+02 -0.10196347424E+02  0.49991134544E+01  0.20028858793E+02  0.51100000000E-03 0.  1.
        -12    1    3    3    0    0  0.29563940918E+02  0.84992702521E+01 -0.46616212343E+01  0.31112616572E+02  0.00000000000E+00 0.  1.
</event>
<event>
 7    1  0.3508738E-013  0.7246156E+02  0.7816164E-02  0.1226708E+00
        -11   -1    0    0    0    0  0.00000000000E+00  0.00000000000E+00  0.45593999997E+02  0.45594000000E+02  0.51100000000E-03 0.  1.
         11   -1    0    0    0    0 -0.00000000000E+00 -0.00000000000E+00 -0.45593999997E+02  0.45594000000E+02  0.51100000000E-03 0. -1.
    9900012    2    1    2    0    0 -0.13770381635E+01 -0.14374685261E+02 -0.11922748416E+02  0.72461555056E+02  0.69999980149E+02 0.  0.
        -12    1    1    2    0    0  0.13770381635E+01  0.14374685261E+02  0.11922748416E+02  0.18726444944E+02  0.00000000000E+00 0.  1.
         11    1    3    3    0    0  0.44674047485E+01  0.34997712960E+01 -0.41303250526E+00  0.56900527610E+01  0.51100000000E-03 0. -1.
        -11    1    3    3    0    0 -0.34071143350E+02 -0.12381794217E+02 -0.13600907854E+01  0.36276734754E+02  0.51100000000E-03 0.  1.
         12    1    3    3    0    0  0.28226700438E+02 -0.54926623401E+01 -0.10149625125E+02  0.30494767541E+02  0.00000000000E+00 0. -1.
</event>
<event>
 7    1  0.3508738E-013  0.7246164E+02  0.7816164E-02  0.1226708E+00
        -11   -1    0    0    0    0  0.00000000000E+00  0.00000000000E+00  0.45593999997E+02  0.45594000000E+02  0.51100000000E-03 0. -1.
         11   -1    0    0    0    0 -0.00000000000E+00 -0.00000000000E+00 -0.45593999997E+02  0.45594000000E+02  0.51100000000E-03 0.  1.
    9900012    2    1    2    0    0  0.92352812185E+01  0.11118433794E+02  0.11906582342E+02  0.72461636437E+02  0.70000086163E+02 0.  0.
        -12    1    1    2    0    0 -0.92352812185E+01 -0.11118433794E+02 -0.11906582342E+02  0.18726363563E+02  0.00000000000E+00 0.  1.
         11    1    3    3    0    0 -0.45842660239E-01 -0.67353621932E+01 -0.23080528113E+01  0.71199939230E+01  0.51100000000E-03 0. -1.
        -11    1    3    3    0    0 -0.18896159998E+02 -0.52145169663E+01  0.20526456116E+02  0.28382942955E+02  0.51100000000E-03 0.  1.
         12    1    3    3    0    0  0.28177283877E+02  0.23068312954E+02 -0.63118209630E+01  0.36958699559E+02  0.00000000000E+00 0. -1.
</event>
<event>
 7    1  0.3508738E-013  0.7246162E+02  0.7816164E-02  0.1226708E+00
        -11   -1    0    0    0    0  0.00000000000E+00  0.00000000000E+00  0.45593999997E+02  0.45594000000E+02  0.51100000000E-03 0. -1.
         11   -1    0    0    0    0 -0.00000000000E+00 -0.00000000000E+00 -0.45593999997E+02  0.45594000000E+02  0.51100000000E-03 0.  1.
    9900012    2    1    2    0    0 -0.92804574248E+01  0.77295058388E+01  0.14311013595E+02  0.72461621262E+02  0.70000066394E+02 0.  0.
        -12    1    1    2    0    0  0.92804574248E+01 -0.77295058388E+01 -0.14311013595E+02  0.18726378738E+02  0.00000000000E+00 0.  1.
         11    1    3    3    0    0 -0.36528558012E+00  0.13694229860E+01 -0.10786615534E+02  0.10879330302E+02  0.51100000000E-03 0. -1.
        -11    1    3    3    0    0 -0.29989826295E+02  0.75868331325E+01  0.30929872287E+01  0.31088845080E+02  0.51100000000E-03 0.  1.
         12    1    3    3    0    0  0.21074654450E+02 -0.12267502797E+01  0.22004641901E+02  0.30493445880E+02  0.00000000000E+00 0. -1.
</event>
<event>
 7    1  0.3508738E-013  0.7246157E+02  0.7816164E-02  0.1226708E+00
        -11   -1    0    0    0    0  0.00000000000E+00  0.00000000000E+00  0.45593999997E+02  0.45594000000E+02  0.51100000000E-03 0. -1.
         11   -1    0    0    0    0 -0.00000000000E+00 -0.00000000000E+00 -0.45593999997E+02  0.45594000000E+02  0.51100000000E-03 0.  1.
    9900012    2    1    2    0    0 -0.14412562023E+02  0.62534329868E+01  0.10190766005E+02  0.72461572686E+02  0.70000003115E+02 0.  0.
        -12    1    1    2    0    0  0.14412562023E+02 -0.62534329868E+01 -0.10190766005E+02  0.18726427314E+02  0.00000000000E+00 0.  1.
         11    1    3    3    0    0  0.17899525793E+02  0.17363366757E+02  0.27592552851E+01  0.25089699455E+02  0.51100000000E-03 0. -1.
        -11    1    3    3    0    0 -0.13878776884E+02 -0.32112458837E+01  0.19361390139E+02  0.24037387053E+02  0.51100000000E-03 0.  1.
        -12    1    3    3    0    0 -0.18433310931E+02 -0.78986878867E+01 -0.11929879420E+02  0.23334486178E+02  0.00000000000E+00 0.  1.
</event>
<event>
 7    1  0.3508738E-013  0.7246163E+02  0.7816164E-02  0.1226708E+00
        -11   -1    0    0    0    0  0.00000000000E+00  0.00000000000E+00  0.45593999997E+02  0.45594000000E+02  0.51100000000E-03 0.  1.
         11   -1    0    0    0    0 -0.00000000000E+00 -0.00000000000E+00 -0.45593999997E+02  0.45594000000E+02  0.51100000000E-03 0. -1.
    9900012    2    1    2    0    0  0.79907034781E+01  0.30335489134E+01 -0.16662031933E+02  0.72461626372E+02  0.70000073052E+02 0.  0.
        -12    1    1    2    0    0 -0.79907034781E+01 -0.30335489134E+01  0.16662031933E+02  0.18726373628E+02  0.00000000000E+00 0.  1.
         11    1    3    3    0    0 -0.11548556387E+02 -0.73776199272E+01 -0.84340995108E+01  0.16091378599E+02  0.51100000000E-03 0. -1.
        -11    1    3    3    0    0  0.44664162749E+01 -0.11454206642E+02  0.16166074682E+02  0.20309842319E+02  0.51100000000E-03 0.  1.
         12    1    3    3    0    0  0.15072843590E+02  0.21865375482E+02 -0.24394007105E+02  0.36060405454E+02  0.00000000000E+00 0. -1.
</event>
<event>
 7    1  0.3508738E-013  0.7246152E+02  0.7816164E-02  0.1226708E+00
        -11   -1    0    0    0    0  0.00000000000E+00  0.00000000000E+00  0.45593999997E+02  0.45594000000E+02  0.51100000000E-03 0.  1.
         11   -1    0    0    0    0 -0.00000000000E+00 -0.00000000000E+00 -0.45593999997E+02  0.45594000000E+02  0.51100000000E-03 0. -1.
    9900012    2    1    2    0    0 -0.11886356570E+02  0.14309865179E+02  0.21501889417E+01  0.72461520714E+02  0.69999935412E+02 0.  0.
        -12    1    1    2    0    0  0.11886356570E+02 -0.14309865179E+02 -0.21501889417E+01  0.18726479286E+02  0.00000000000E+00 0.  1.
         11    1    3    3    0    0 -0.44290596108E+01  0.12254858487E+02  0.10423379474E+02  0.16686670294E+02  0.51100000000E-03 0. -1.
        -11    1    3    3    0    0  0.14698390471E+02  0.15687729719E+02  0.10273574571E+02  0.23826327474E+02  0.51100000000E-03 0.  1.
         12    1    3    3    0    0 -0.22155687431E+02 -0.13632723026E+02 -0.18546765103E+02  0.31948522946E+02  0.00000000000E+00 0. -1.
</event>
<event>
 7    1  0.3508738E-013  0.7246157E+02  0.7816164E-02  0.1226708E+00
        -11   -1    0    0    0    0  0.00000000000E+00  0.00000000000E+00  0.45593999997E+02  0.45594000000E+02  0.51100000000E-03 0.  1.
         11   -1    0    0    0    0 -0.00000000000E+00 -0.00000000000E+00 -0.45593999997E+02  0.45594000000E+02  0.51100000000E-03 0. -1.
    9900012    2    1    2    0    0  0.31047655928E+01  0.15397690920E+02 -0.10195630918E+02  0.72461565612E+02  0.69999993900E+02 0.  0.
        -12    1    1    2    0    0 -0.31047655928E+01 -0.15397690920E+02  0.10195630918E+02  0.18726434388E+02  0.00000000000E+00 0.  1.
         11    1    3    3    0    0  0.47400039142E+01  0.11846125402E+01 -0.18601370295E+02  0.19232314502E+02  0.51100000000E-03 0. -1.
        -11    1    3    3    0    0  0.19956395804E+02 -0.62770392405E+01  0.10464701042E+02  0.23391642167E+02  0.51100000000E-03 0.  1.
         12    1    3    3    0    0 -0.21591634125E+02  0.20490117621E+02 -0.20589616650E+01  0.29837608943E+02  0.00000000000E+00 0. -1.
</event>
<event>
 7    1  0.3508738E-013  0.7246158E+02  0.7816164E-02  0.1226708E+00
        -11   -1    0    0    0    0  0.00000000000E+00  0.00000000000E+00  0.45593999997E+02  0.45594000000E+02  0.51100000000E-03 0.  1.
         11   -1    0    0    0    0 -0.00000000000E+00 -0.00000000000E+00 -0.45593999997E+02  0.45594000000E+02  0.51100000000E-03 0. -1.
    9900012    2    1    2    0    0 -0.36015536425E+01 -0.16297062989E+02 -0.84919478993E+01  0.72461584704E+02  0.70000018772E+02 0.  0.
        -12    1    1    2    0    0  0.36015536425E+01  0.16297062989E+02  0.84919478993E+01  0.18726415296E+02  0.00000000000E+00 0.  1.
         11    1    3    3    0    0  0.13078702090E+00  0.15973375898E+01 -0.22817327161E+02  0.22873543924E+02  0.51100000000E-03 0. -1.
        -11    1    3    3    0    0 -0.19391580973E+02 -0.10385732401E+02 -0.60513997018E+01  0.22814826073E+02  0.51100000000E-03 0.  1.
        -12    1    3    3    0    0  0.15659240309E+02 -0.75086681771E+01  0.20376778963E+02  0.26773214707E+02  0.00000000000E+00 0.  1.
</event>
<event>
 7    1  0.3508738E-013  0.7246160E+02  0.7816164E-02  0.1226708E+00
        -11   -1    0    0    0    0  0.00000000000E+00  0.00000000000E+00  0.45593999997E+02  0.45594000000E+02  0.51100000000E-03 0.  1.
         11   -1    0    0    0    0 -0.00000000000E+00 -0.00000000000E+00 -0.45593999997E+02  0.45594000000E+02  0.51100000000E-03 0. -1.
    9900012    2    1    2    0    0  0.18524998272E+01  0.12837126520E+01 -0.18590276083E+02  0.72461600489E+02  0.70000039335E+02 0.  0.
        -12    1    1    2    0    0 -0.18524998272E+01 -0.12837126520E+01  0.18590276083E+02  0.18726399511E+02  0.00000000000E+00 0.  1.
         11    1    3    3    0    0 -0.45496142468E+01  0.52615144145E+01 -0.51414589668E+01  0.86496892602E+01  0.51100000000E-03 0. -1.
        -11    1    3    3    0    0 -0.17989542168E+02 -0.19515257589E+02  0.80956840725E+01  0.27749036146E+02  0.51100000000E-03 0.  1.
         12    1    3    3    0    0  0.24391656242E+02  0.15537455827E+02 -0.21544501189E+02  0.36062875083E+02  0.00000000000E+00 0. -1.
</event>
<event>
 7    1  0.3508738E-013  0.7246160E+02  0.7816164E-02  0.1226708E+00
        -11   -1    0    0    0    0  0.00000000000E+00  0.00000000000E+00  0.45593999997E+02  0.45594000000E+02  0.51100000000E-03 0.  1.
         11   -1    0    0    0    0 -0.00000000000E+00 -0.00000000000E+00 -0.45593999997E+02  0.45594000000E+02  0.51100000000E-03 0. -1.
    9900012    2    1    2    0    0 -0.14101668146E+01 -0.82187822310E+00 -0.18655133902E+02  0.72461599514E+02  0.70000038064E+02 0.  0.
        -12    1    1    2    0    0  0.14101668146E+01  0.82187822310E+00  0.18655133902E+02  0.18726400486E+02  0.00000000000E+00 0.  1.
         11    1    3    3    0    0  0.13240386450E+02  0.11251914589E+02  0.10351690018E+01  0.17406464041E+02  0.51100000000E-03 0. -1.
        -11    1    3    3    0    0 -0.98394629150E+01  0.97574956449E+01  0.10573151353E+02  0.17430297803E+02  0.51100000000E-03 0.  1.
         12    1    3    3    0    0 -0.48110903500E+01 -0.21831288457E+02 -0.30263454257E+02  0.37624837669E+02  0.00000000000E+00 0. -1.
</event>
<event>
 7    1  0.3508738E-013  0.7246154E+02  0.7816164E-02  0.1226708E+00
        -11   -1    0    0    0    0  0.00000000000E+00  0.00000000000E+00  0.45593999997E+02  0.45594000000E+02  0.51100000000E-03 0.  1.
         11   -1    0    0    0    0 -0.00000000000E+00 -0.00000000000E+00 -0.45593999997E+02  0.45594000000E+02  0.51100000000E-03 0. -1.
    9900012    2    1    2    0    0  0.10721601061E+01  0.92012705562E+01 -0.16274743416E+02  0.72461543304E+02  0.69999964840E+02 0.  0.
        -12    1    1    2    0    0 -0.10721601061E+01 -0.92012705562E+01  0.16274743416E+02  0.18726456696E+02  0.00000000000E+00 0.  1.
         11    1    3    3    0    0  0.14175557073E+02  0.18410319956E+02 -0.18735379238E+02  0.29847960310E+02  0.51100000000E-03 0. -1.
        -11    1    3    3    0    0  0.59346809492E+01  0.12152914074E+02  0.35354944689E+01  0.13979037157E+02  0.51100000000E-03 0.  1.
        -12    1    3    3    0    0 -0.19038077916E+02 -0.21361963473E+02 -0.10748586460E+01  0.28634545837E+02  0.00000000000E+00 0.  1.
</event>
<event>
 7    1  0.3508738E-013  0.7246142E+02  0.7816164E-02  0.1226708E+00
        -11   -1    0    0    0    0  0.00000000000E+00  0.00000000000E+00  0.45593999997E+02  0.45594000000E+02  0.51100000000E-03 0. -1.
         11   -1    0    0    0    0 -0.00000000000E+00 -0.00000000000E+00 -0.45593999997E+02  0.45594000000E+02  0.51100000000E-03 0.  1.
    9900012    2    1    2    0    0 -0.99276544688E+01  0.95577108586E+01  0.12679770296E+02  0.72461421699E+02  0.69999806427E+02 0.  0.
        -12    1    1    2    0    0  0.99276544688E+01 -0.95577108586E+01 -0.12679770296E+02  0.18726578301E+02  0.00000000000E+00 0.  1.
         11    1    3    3    0    0 -0.98617401001E+01 -0.17110129990E+02  0.30855089354E+02  0.36633959728E+02  0.51100000000E-03 0. -1.
        -11    1    3    3    0    0  0.60596931415E+01  0.79832011777E+01 -0.16815297359E+01  0.10162623900E+02  0.51100000000E-03 0.  1.
        -12    1    3    3    0    0 -0.61256075102E+01  0.18684639671E+02 -0.16493789323E+02  0.25664838071E+02  0.00000000000E+00 0.  1.
</event>
<event>
 7    1  0.3508738E-013  0.7246157E+02  0.7816164E-02  0.1226708E+00
        -11   -1    0    0    0    0  0.00000000000E+00  0.00000000000E+00  0.45593999997E+02  0.45594000000E+02  0.51100000000E-03 0.  1.
         11   -1    0    0    0    0 -0.00000000000E+00 -0.00000000000E+00 -0.45593999997E+02  0.45594000000E+02  0.51100000000E-03 0. -1.
    9900012    2    1    2    0    0 -0.15000170081E+02  0.86655585046E+01  0.71121251083E+01  0.72461566004E+02  0.69999994411E+02 0.  0.
        -12    1    1    2    0    0  0.15000170081E+02 -0.86655585046E+01 -0.71121251083E+01  0.18726433996E+02  0.00000000000E+00 0.  1.
         11    1    3    3    0    0 -0.16738039237E+02 -0.46889786071E+01 -0.12147828862E+02  0.21206560876E+02  0.51100000000E-03 0. -1.
        -11    1    3    3    0    0  0.10141614030E+02 -0.13944074297E+02  0.82938861520E+00  0.17262022734E+02  0.51100000000E-03 0.  1.
        -12    1    3    3    0    0 -0.84037448736E+01  0.27298611408E+02  0.18430565355E+02  0.33992982394E+02  0.00000000000E+00 0.  1.
</event>
<event>
 7    1  0.3508738E-013  0.7246164E+02  0.7816164E-02  0.1226708E+00
        -11   -1    0    0    0    0  0.00000000000E+00  0.00000000000E+00  0.45593999997E+02  0.45594000000E+02  0.51100000000E-03 0.  1.
         11   -1    0    0    0    0 -0.00000000000E+00 -0.00000000000E+00 -0.45593999997E+02  0.45594000000E+02  0.51100000000E-03 0. -1.
    9900012    2    1    2    0    0 -0.17943167504E+02  0.32694938388E+00  0.53490389111E+01  0.72461644956E+02  0.70000097261E+02 0.  0.
        -12    1    1    2    0    0  0.17943167504E+02 -0.32694938388E+00 -0.53490389111E+01  0.18726355044E+02  0.00000000000E+00 0.  1.
         11    1    3    3    0    0 -0.14347185634E+02  0.30076358300E+02 -0.74724125424E+01  0.34150637090E+02  0.51100000000E-03 0. -1.
        -11    1    3    3    0    0  0.69569761783E+01 -0.10058011578E+02  0.99902996107E+01  0.15791428087E+02  0.51100000000E-03 0.  1.
        -12    1    3    3    0    0 -0.10552958048E+02 -0.19691397338E+02  0.28311518428E+01  0.22519579779E+02  0.00000000000E+00 0.  1.
</event>
<event>
 7    1  0.3508738E-013  0.7246157E+02  0.7816164E-02  0.1226708E+00
        -11   -1    0    0    0    0  0.00000000000E+00  0.00000000000E+00  0.45593999997E+02  0.45594000000E+02  0.51100000000E-03 0. -1.
         11   -1    0    0    0    0 -0.00000000000E+00 -0.00000000000E+00 -0.45593999997E+02  0.45594000000E+02  0.51100000000E-03 0.  1.
    9900012    2    1    2    0    0 -0.75086717644E+01 -0.12912239114E+02  0.11294820413E+02  0.72461573785E+02  0.70000004548E+02 0.  0.
        -12    1    1    2    0    0  0.75086717644E+01  0.12912239114E+02 -0.11294820413E+02  0.18726426215E+02  0.00000000000E+00 0.  1.
         11    1    3    3    0    0 -0.38045964443E+01 -0.16111727297E+02  0.18180363879E+02  0.24588378182E+02  0.51100000000E-03 0. -1.
        -11    1    3    3    0    0  0.60172101495E+01 -0.16558026252E+02  0.98788250007E+01  0.20198174051E+02  0.51100000000E-03 0.  1.
        -12    1    3    3    0    0 -0.97212854696E+01  0.19757514435E+02 -0.16764368466E+02  0.27675021552E+02  0.00000000000E+00 0.  1.
</event>
<event>
 7    1  0.3508738E-013  0.7246147E+02  0.7816164E-02  0.1226708E+00
        -11   -1    0    0    0    0  0.00000000000E+00  0.00000000000E+00  0.45593999997E+02  0.45594000000E+02  0.51100000000E-03 0. -1.
         11   -1    0    0    0    0 -0.00000000000E+00 -0.00000000000E+00 -0.45593999997E+02  0.45594000000E+02  0.51100000000E-03 0.  1.
    9900012    2    1    2    0    0 -0.13821225790E+02 -0.94530625106E+01  0.83842933240E+01  0.72461466746E+02  0.69999865109E+02 0.  0.
        -12    1    1    2    0    0  0.13821225790E+02  0.94530625106E+01 -0.83842933240E+01  0.18726533254E+02  0.00000000000E+00 0.  1.
         11    1    3    3    0    0 -0.55893634548E+01  0.53982645674E+01  0.14683009354E+02  0.16612435346E+02  0.51100000000E-03 0. -1.
        -11    1    3    3    0    0 -0.20118781218E+02  0.20510915919E+01  0.15748655234E+02  0.25631864473E+02  0.51100000000E-03 0.  1.
         12    1    3    3    0    0  0.11886918882E+02 -0.16902418670E+02 -0.22047371265E+02  0.30217166927E+02  0.00000000000E+00 0. -1.
</event>
<event>
 7    1  0.3508738E-013  0.7246159E+02  0.7816164E-02  0.1226708E+00
        -11   -1    0    0    0    0  0.00000000000E+00  0.00000000000E+00  0.45593999997E+02  0.45594000000E+02  0.51100000000E-03 0. -1.
         11   -1    0    0    0    0 -0.00000000000E+00 -0.00000000000E+00 -0.45593999997E+02  0.45594000000E+02  0.51100000000E-03 0.  1.
    9900012    2    1    2    0    0 -0.12012152216E+02 -0.13999399894E+02 -0.32254361581E+01  0.72461589862E+02  0.70000025490E+02 0.  0.
        -12    1    1    2    0    0  0.12012152216E+02  0.13999399894E+02  0.32254361581E+01  0.18726410138E+02  0.00000000000E+00 0.  1.
         11    1    3    3    0    0  0.15222661621E+02  0.11565685229E+02  0.18196653124E+00  0.19118776470E+02  0.51100000000E-03 0. -1.
        -11    1    3    3    0    0  0.12551617631E+00 -0.78461638532E+01 -0.16456101955E+02  0.18231328348E+02  0.51100000000E-03 0.  1.
         12    1    3    3    0    0 -0.27360330013E+02 -0.17718921270E+02  0.13048699266E+02  0.35111485043E+02  0.00000000000E+00 0. -1.
</event>
<event>
 7    1  0.3508738E-013  0.7246170E+02  0.7816164E-02  0.1226708E+00
        -11   -1    0    0    0    0  0.00000000000E+00  0.00000000000E+00  0.45593999997E+02  0.45594000000E+02  0.51100000000E-03 0.  1.
         11   -1    0    0    0    0 -0.00000000000E+00 -0.00000000000E+00 -0.45593999997E+02  0.45594000000E+02  0.51100000000E-03 0. -1.
    9900012    2    1    2    0    0  0.53852582992E+01 -0.73645841319E+01 -0.16353479248E+02  0.72461697912E+02  0.70000166245E+02 0.  0.
        -12    1    1    2    0    0 -0.53852582992E+01  0.73645841319E+01  0.16353479248E+02  0.18726302088E+02  0.00000000000E+00 0.  1.
         11    1    3    3    0    0  0.22267666464E+02 -0.25222943167E+02  0.30409028775E+01  0.33783027134E+02  0.51100000000E-03 0. -1.
        -11    1    3    3    0    0  0.39682786689E+01  0.65693873678E+00  0.17244992412E+01  0.43763800101E+01  0.51100000000E-03 0.  1.
        -12    1    3    3    0    0 -0.20850686834E+02  0.17201420298E+02 -0.21118881367E+02  0.34302290768E+02  0.00000000000E+00 0.  1.
</event>
<event>
 7    1  0.4287726E-013  0.7246156E+02  0.7816164E-02  0.1226708E+00
        -11   -1    0    0    0    0  0.00000000000E+00  0.00000000000E+00  0.45593999997E+02  0.45594000000E+02  0.51100000000E-03 0.  1.
         11   -1    0    0    0    0 -0.00000000000E+00 -0.00000000000E+00 -0.45593999997E+02  0.45594000000E+02  0.51100000000E-03 0. -1.
    9900012    2    1    2    0    0 -0.10884467653E+02  0.15218693442E+02  0.77402225909E+00  0.72461564764E+02  0.69999992796E+02 0.  0.
        -12    1    1    2    0    0  0.10884467653E+02 -0.15218693442E+02 -0.77402225909E+00  0.18726435236E+02  0.00000000000E+00 0.  1.
         11    1    3    3    0    0 -0.20591989093E+02  0.14847784095E+02 -0.22960700892E+02  0.34229818771E+02  0.51100000000E-03 0. -1.
        -11    1    3    3    0    0  0.46156985746E+00 -0.11282884508E+02  0.13752608568E+01  0.11375758095E+02  0.51100000000E-03 0.  1.
        -12    1    3    3    0    0  0.92459515824E+01  0.11653793855E+02  0.22359462295E+02  0.26855987898E+02  0.00000000000E+00 0.  1.
</event>
<event>
 7    1  0.3508738E-013  0.7246158E+02  0.7816164E-02  0.1226708E+00
        -11   -1    0    0    0    0  0.00000000000E+00  0.00000000000E+00  0.45593999997E+02  0.45594000000E+02  0.51100000000E-03 0.  1.
         11   -1    0    0    0    0 -0.00000000000E+00 -0.00000000000E+00 -0.45593999997E+02  0.45594000000E+02  0.51100000000E-03 0. -1.
    9900012    2    1    2    0    0 -0.16443012861E+02 -0.31527886168E+01 -0.83884465529E+01  0.72461580599E+02  0.70000013424E+02 0.  0.
        -12    1    1    2    0    0  0.16443012861E+02  0.31527886168E+01  0.83884465529E+01  0.18726419401E+02  0.00000000000E+00 0.  1.
         11    1    3    3    0    0  0.60153810304E+01 -0.10242154834E+02  0.12566236955E+01  0.11944272601E+02  0.51100000000E-03 0. -1.
        -11    1    3    3    0    0  0.51386713682E+00 -0.16314305475E+02  0.12829561027E+02  0.20760979239E+02  0.51100000000E-03 0.  1.
         12    1    3    3    0    0 -0.22972261028E+02  0.23403671692E+02 -0.22474631275E+02  0.39756328759E+02  0.00000000000E+00 0. -1.
</event>
<event>
 7    1  0.3508738E-013  0.7246155E+02  0.7816164E-02  0.1226708E+00
        -11   -1    0    0    0    0  0.00000000000E+00  0.00000000000E+00  0.45593999997E+02  0.45594000000E+02  0.51100000000E-03 0. -1.
         11   -1    0    0    0    0 -0.00000000000E+00 -0.00000000000E+00 -0.45593999997E+02  0.45594000000E+02  0.51100000000E-03 0.  1.
    9900012    2    1    2    0    0 -0.27626394584E+01  0.85183501397E+01  0.16446438438E+02  0.72461553375E+02  0.69999977960E+02 0.  0.
        -12    1    1    2    0    0  0.27626394584E+01 -0.85183501397E+01 -0.16446438438E+02  0.18726446625E+02  0.00000000000E+00 0.  1.
         11    1    3    3    0    0  0.79268061595E+01  0.61270457073E+01  0.98250958476E+01  0.14032371634E+02  0.51100000000E-03 0. -1.
        -11    1    3    3    0    0  0.44735559163E+01  0.26897817462E+02 -0.43131587795E+01  0.27606314960E+02  0.51100000000E-03 0.  1.
         12    1    3    3    0    0 -0.15163001534E+02 -0.24506513030E+02  0.10934501370E+02  0.30822866781E+02  0.00000000000E+00 0. -1.
</event>
<event>
 7    1  0.3508738E-013  0.7246155E+02  0.7816164E-02  0.1226708E+00
        -11   -1    0    0    0    0  0.00000000000E+00  0.00000000000E+00  0.45593999997E+02  0.45594000000E+02  0.51100000000E-03 0.  1.
         11   -1    0    0    0    0 -0.00000000000E+00 -0.00000000000E+00 -0.45593999997E+02  0.45594000000E+02  0.51100000000E-03 0. -1.
    9900012    2    1    2    0    0  0.21842405408E+01 -0.16979533308E+02 -0.75897655219E+01  0.72461548153E+02  0.69999971157E+02 0.  0.
        -12    1    1    2    0    0 -0.21842405408E+01  0.16979533308E+02  0.75897655219E+01  0.18726451847E+02  0.00000000000E+00 0.  1.
         11    1    3    3    0    0 -0.12836659607E+02 -0.19759241627E+02 -0.87456964218E+01  0.25133536673E+02  0.51100000000E-03 0. -1.
        -11    1    3    3    0    0 -0.11905042623E+02 -0.20643192424E+01  0.12793665033E+02  0.17597423647E+02  0.51100000000E-03 0.  1.
         12    1    3    3    0    0  0.26925942771E+02  0.48440275615E+01 -0.11637734133E+02  0.29730587832E+02  0.00000000000E+00 0. -1.
</event>
<event>
 7    1  0.3508738E-013  0.7246149E+02  0.7816164E-02  0.1226708E+00
        -11   -1    0    0    0    0  0.00000000000E+00  0.00000000000E+00  0.45593999997E+02  0.45594000000E+02  0.51100000000E-03 0. -1.
         11   -1    0    0    0    0 -0.00000000000E+00 -0.00000000000E+00 -0.45593999997E+02  0.45594000000E+02  0.51100000000E-03 0.  1.
    9900012    2    1    2    0    0 -0.20504427736E+01 -0.11269086170E+02  0.14815045948E+02  0.72461489243E+02  0.69999894415E+02 0.  0.
        -12    1    1    2    0    0  0.20504427736E+01  0.11269086170E+02 -0.14815045948E+02  0.18726510757E+02  0.00000000000E+00 0.  1.
         11    1    3    3    0    0  0.20696855281E+01 -0.60307204426E+00 -0.10304717584E+02  0.10527796485E+02  0.51100000000E-03 0. -1.
        -11    1    3    3    0    0 -0.22530431048E+02 -0.92339946623E+01 -0.66022000533E+01  0.25228476499E+02  0.51100000000E-03 0.  1.
         12    1    3    3    0    0  0.18410302746E+02 -0.14320194638E+01  0.31721963586E+02  0.36705216260E+02  0.00000000000E+00 0. -1.
</event>
<event>
 7    1  0.3508738E-013  0.7246163E+02  0.7816164E-02  0.1226708E+00
        -11   -1    0    0    0    0  0.00000000000E+00  0.00000000000E+00  0.45593999997E+02  0.45594000000E+02  0.51100000000E-03 0. -1.
         11   -1    0    0    0    0 -0.00000000000E+00 -0.00000000000E+00 -0.45593999997E+02  0.45594000000E+02  0.51100000000E-03 0.  1.
    9900012    2    1    2    0    0 -0.94504385501E+01  0.15356482343E+02  0.50541616266E+01  0.72461631199E+02  0.70000079339E+02 0.  0.
        -12    1    1    2    0    0  0.94504385501E+01 -0.15356482343E+02 -0.50541616266E+01  0.18726368801E+02  0.00000000000E+00 0.  1.
         11    1    3    3    0    0 -0.35437284096E+01  0.77047415319E+01  0.14776744945E+02  0.17037407213E+02  0.51100000000E-03 0. -1.
        -11    1    3    3    0    0  0.18335108251E+02  0.19589880113E+02 -0.38501893651E+00  0.26834452431E+02  0.51100000000E-03 0.  1.
         12    1    3    3    0    0 -0.24241818392E+02 -0.11938139302E+02 -0.93375643820E+01  0.28589771554E+02  0.00000000000E+00 0. -1.
</event>
<event>
 7    1  0.3508738E-013  0.7246156E+02  0.7816164E-02  0.1226708E+00
        -11   -1    0    0    0    0  0.00000000000E+00  0.00000000000E+00  0.45593999997E+02  0.45594000000E+02  0.51100000000E-03 0.  1.
         11   -1    0    0    0    0 -0.00000000000E+00 -0.00000000000E+00 -0.45593999997E+02  0.45594000000E+02  0.51100000000E-03 0. -1.
    9900012    2    1    2    0    0  0.61178715321E+01 -0.10790736057E+02 -0.14028941894E+02  0.72461560205E+02  0.69999986857E+02 0.  0.
        -12    1    1    2    0    0 -0.61178715321E+01  0.10790736057E+02  0.14028941894E+02  0.18726439795E+02  0.00000000000E+00 0.  1.
         11    1    3    3    0    0  0.12077946587E+02 -0.15561199454E+01 -0.12401867309E+02  0.17381156925E+02  0.51100000000E-03 0. -1.
        -11    1    3    3    0    0  0.32506040240E+01 -0.47522075329E+01  0.25469551378E+02  0.26112218416E+02  0.51100000000E-03 0.  1.
         12    1    3    3    0    0 -0.92106790787E+01 -0.44824085787E+01 -0.27096625963E+02  0.28968184864E+02  0.00000000000E+00 0. -1.
</event>
<event>
 7    1  0.3508738E-013  0.7246160E+02  0.7816164E-02  0.1226708E+00
        -11   -1    0    0    0    0  0.00000000000E+00  0.00000000000E+00  0.45593999997E+02  0.45594000000E+02  0.51100000000E-03 0. -1.
         11   -1    0    0    0    0 -0.00000000000E+00 -0.00000000000E+00 -0.45593999997E+02  0.45594000000E+02  0.51100000000E-03 0.  1.
    9900012    2    1    2    0    0 -0.50608253109E+01 -0.24028494436E+01  0.17868758028E+02  0.72461597469E+02  0.70000035400E+02 0.  0.
        -12    1    1    2    0    0  0.50608253109E+01  0.24028494436E+01 -0.17868758028E+02  0.18726402531E+02  0.00000000000E+00 0.  1.
         11    1    3    3    0    0 -0.28858645986E+02  0.33466076175E+00  0.10657368333E+02  0.30765450525E+02  0.51100000000E-03 0. -1.
        -11    1    3    3    0    0  0.14049334689E+02  0.14839368243E+02  0.69842761513E+01  0.21595619200E+02  0.51100000000E-03 0.  1.
         12    1    3    3    0    0  0.97484859867E+01 -0.17576878448E+02  0.22711354362E+00  0.20100527744E+02  0.00000000000E+00 0. -1.
</event>
<event>
 7    1  0.3508738E-013  0.7246153E+02  0.7816164E-02  0.1226708E+00
        -11   -1    0    0    0    0  0.00000000000E+00  0.00000000000E+00  0.45593999997E+02  0.45594000000E+02  0.51100000000E-03 0.  1.
         11   -1    0    0    0    0 -0.00000000000E+00 -0.00000000000E+00 -0.45593999997E+02  0.45594000000E+02  0.51100000000E-03 0. -1.
    9900012    2    1    2    0    0  0.17585210946E+02 -0.63604033903E+01  0.99308485552E+00  0.72461532291E+02  0.69999950494E+02 0.  0.
        -12    1    1    2    0    0 -0.17585210946E+02  0.63604033903E+01 -0.99308485552E+00  0.18726467709E+02  0.00000000000E+00 0.  1.
         11    1    3    3    0    0 -0.88818178270E+01 -0.10266736797E+02 -0.75466737195E+01  0.15532059003E+02  0.51100000000E-03 0. -1.
        -11    1    3    3    0    0 -0.36893559250E+01 -0.62854998335E+00  0.22912925572E+02  0.23216558331E+02  0.51100000000E-03 0.  1.
         12    1    3    3    0    0  0.30156384698E+02  0.45348833902E+01 -0.14373166997E+02  0.33712914958E+02  0.00000000000E+00 0. -1.
</event>
<event>
 7    1  0.3508738E-013  0.7246185E+02  0.7816164E-02  0.1226707E+00
        -11   -1    0    0    0    0  0.00000000000E+00  0.00000000000E+00  0.45593999997E+02  0.45594000000E+02  0.51100000000E-03 0.  1.
         11   -1    0    0    0    0 -0.00000000000E+00 -0.00000000000E+00 -0.45593999997E+02  0.45594000000E+02  0.51100000000E-03 0. -1.
    9900012    2    1    2    0    0  0.64592344949E+01 -0.56039409176E+01 -0.16659618975E+02  0.72461848007E+02  0.70000361771E+02 0.  0.
        -12    1    1    2    0    0 -0.64592344949E+01  0.56039409176E+01  0.16659618975E+02  0.18726151993E+02  0.00000000000E+00 0.  1.
         11    1    3    3    0    0  0.32673717110E+01  0.23000628681E+01 -0.12873416894E+02  0.13479275570E+02  0.51100000000E-03 0. -1.
        -11    1    3    3    0    0  0.58352442071E+01 -0.20874066547E+02 -0.25552891368E+02  0.33507118449E+02  0.51100000000E-03 0.  1.
         12    1    3    3    0    0 -0.26433814233E+01  0.12970062762E+02  0.21766689287E+02  0.25475453988E+02  0.00000000000E+00 0. -1.
</event>
<event>
 7    1  0.4194290E-013  0.7246157E+02  0.7816164E-02  0.1226708E+00
        -11   -1    0    0    0    0  0.00000000000E+00  0.00000000000E+00  0.45593999997E+02  0.45594000000E+02  0.51100000000E-03 0. -1.
         11   -1    0    0    0    0 -0.00000000000E+00 -0.00000000000E+00 -0.45593999997E+02  0.45594000000E+02  0.51100000000E-03 0.  1.
    9900012    2    1    2    0    0  0.70415977430E+01  0.14061850993E+02  0.10166591582E+02  0.72461565835E+02  0.69999994191E+02 0.  0.
        -12    1    1    2    0    0 -0.70415977430E+01 -0.14061850993E+02 -0.10166591582E+02  0.18726434165E+02  0.00000000000E+00 0.  1.
         11    1    3    3    0    0  0.78315775539E+01  0.71874609483E+01  0.21946477113E+02  0.24385263169E+02  0.51100000000E-03 0. -1.
        -11    1    3    3    0    0  0.20131086527E+02 -0.66371458008E+01 -0.89577916908E+01  0.23012048613E+02  0.51100000000E-03 0.  1.
        -12    1    3    3    0    0 -0.20921066338E+02  0.13511535846E+02 -0.28220938404E+01  0.25064254053E+02  0.00000000000E+00 0.  1.
</event>
<event>
 7    1  0.3508738E-013  0.7246156E+02  0.7816164E-02  0.1226708E+00
        -11   -1    0    0    0    0  0.00000000000E+00  0.00000000000E+00  0.45593999997E+02  0.45594000000E+02  0.51100000000E-03 0.  1.
         11   -1    0    0    0    0 -0.00000000000E+00 -0.00000000000E+00 -0.45593999997E+02  0.45594000000E+02  0.51100000000E-03 0. -1.
    9900012    2    1    2    0    0 -0.14492603363E+02  0.10168553832E+02 -0.61028166306E+01  0.72461563871E+02  0.69999991633E+02 0.  0.
        -12    1    1    2    0    0  0.14492603363E+02 -0.10168553832E+02  0.61028166306E+01  0.18726436129E+02  0.00000000000E+00 0.  1.
         11    1    3    3    0    0 -0.84717632932E+01 -0.12161874542E+02  0.26624979241E+01  0.15058913013E+02  0.51100000000E-03 0. -1.
        -11    1    3    3    0    0  0.83929177613E+01  0.95097325051E+01  0.19451829423E+02  0.23221751636E+02  0.51100000000E-03 0.  1.
         12    1    3    3    0    0 -0.14413757831E+02  0.12820695869E+02 -0.28217143978E+02  0.34180899222E+02  0.00000000000E+00 0. -1.
</event>
<event>
 7    1  0.3508738E-013  0.7246166E+02  0.7816164E-02  0.1226708E+00
        -11   -1    0    0    0    0  0.00000000000E+00  0.00000000000E+00  0.45593999997E+02  0.45594000000E+02  0.51100000000E-03 0. -1.
         11   -1    0    0    0    0 -0.00000000000E+00 -0.00000000000E+00 -0.45593999997E+02  0.45594000000E+02  0.51100000000E-03 0.  1.
    9900012    2    1    2    0    0 -0.17285062705E+01  0.13315624016E+02  0.13053054551E+02  0.72461659995E+02  0.70000116851E+02 0.  0.
        -12    1    1    2    0    0  0.17285062705E+01 -0.13315624016E+02 -0.13053054551E+02  0.18726340005E+02  0.00000000000E+00 0.  1.
         11    1    3    3    0    0 -0.17551797060E+02  0.17948515663E+02  0.12029063735E+02  0.27837262242E+02  0.51100000000E-03 0. -1.
        -11    1    3    3    0    0 -0.68233491109E+01 -0.77431491967E+01  0.14719000580E+02  0.17976746950E+02  0.51100000000E-03 0.  1.
        -12    1    3    3    0    0  0.22646639901E+02  0.31102575503E+01 -0.13695009764E+02  0.26647650802E+02  0.00000000000E+00 0.  1.
</event>
<event>
 7    1  0.3508738E-013  0.7246154E+02  0.7816164E-02  0.1226708E+00
        -11   -1    0    0    0    0  0.00000000000E+00  0.00000000000E+00  0.45593999997E+02  0.45594000000E+02  0.51100000000E-03 0.  1.
         11   -1    0    0    0    0 -0.00000000000E+00 -0.00000000000E+00 -0.45593999997E+02  0.45594000000E+02  0.51100000000E-03 0. -1.
    9900012    2    1    2    0    0 -0.68977811119E+00  0.39275634668E+01 -0.18296964339E+02  0.72461536035E+02  0.69999955370E+02 0.  0.
        -12    1    1    2    0    0  0.68977811119E+00 -0.39275634668E+01  0.18296964339E+02  0.18726463965E+02  0.00000000000E+00 0.  1.
         11    1    3    3    0    0 -0.12977292900E+02 -0.27309718614E+01 -0.33924333870E+02  0.36424288148E+02  0.51100000000E-03 0. -1.
        -11    1    3    3    0    0  0.78822646014E+01 -0.11117776884E+02  0.34961074408E+01  0.14069748598E+02  0.51100000000E-03 0.  1.
        -12    1    3    3    0    0  0.44052501878E+01  0.17776312213E+02  0.12131262090E+02  0.21967499289E+02  0.00000000000E+00 0.  1.
</event>
<event>
 7    1  0.3508738E-013  0.7246162E+02  0.7816164E-02  0.1226708E+00
        -11   -1    0    0    0    0  0.00000000000E+00  0.00000000000E+00  0.45593999997E+02  0.45594000000E+02  0.51100000000E-03 0.  1.
         11   -1    0    0    0    0 -0.00000000000E+00 -0.00000000000E+00 -0.45593999997E+02  0.45594000000E+02  0.51100000000E-03 0. -1.
    9900012    2    1    2    0    0  0.55300469842E+01 -0.26315258199E+01 -0.17696638369E+02  0.72461618680E+02  0.70000063031E+02 0.  0.
        -12    1    1    2    0    0 -0.55300469842E+01  0.26315258199E+01  0.17696638369E+02  0.18726381320E+02  0.00000000000E+00 0.  1.
         11    1    3    3    0    0  0.83485563543E+01 -0.89582889207E+01  0.31562737506E+01  0.12645607848E+02  0.51100000000E-03 0. -1.
        -11    1    3    3    0    0 -0.89498067908E+01 -0.22721508928E+02 -0.17274620965E+02  0.29912849067E+02  0.51100000000E-03 0.  1.
         12    1    3    3    0    0  0.61312974207E+01  0.29048272029E+02 -0.35782911551E+01  0.29903161765E+02  0.00000000000E+00 0. -1.
</event>
<event>
 7    1  0.3508738E-013  0.7246147E+02  0.7816164E-02  0.1226708E+00
        -11   -1    0    0    0    0  0.00000000000E+00  0.00000000000E+00  0.45593999997E+02  0.45594000000E+02  0.51100000000E-03 0. -1.
         11   -1    0    0    0    0 -0.00000000000E+00 -0.00000000000E+00 -0.45593999997E+02  0.45594000000E+02  0.51100000000E-03 0.  1.
    9900012    2    1    2    0    0  0.17049831874E+02 -0.13627821541E+01  0.76242351284E+01  0.72461470598E+02  0.69999870127E+02 0.  0.
        -12    1    1    2    0    0 -0.17049831874E+02  0.13627821541E+01 -0.76242351284E+01  0.18726529402E+02  0.00000000000E+00 0.  1.
         11    1    3    3    0    0  0.12154695674E+02  0.49930791232E+01  0.86893694042E+01  0.15753495071E+02  0.51100000000E-03 0. -1.
        -11    1    3    3    0    0 -0.80437041311E+01  0.21811800466E+02  0.77094790343E+01  0.24492690398E+02  0.51100000000E-03 0.  1.
        -12    1    3    3    0    0  0.12938840332E+02 -0.28167661743E+02 -0.87746133101E+01  0.32215285129E+02  0.00000000000E+00 0.  1.
</event>
<event>
 7    1  0.3508738E-013  0.7246157E+02  0.7816164E-02  0.1226708E+00
        -11   -1    0    0    0    0  0.00000000000E+00  0.00000000000E+00  0.45593999997E+02  0.45594000000E+02  0.51100000000E-03 0.  1.
         11   -1    0    0    0    0 -0.00000000000E+00 -0.00000000000E+00 -0.45593999997E+02  0.45594000000E+02  0.51100000000E-03 0. -1.
    9900012    2    1    2    0    0 -0.12090987455E+02 -0.12827271927E+02 -0.63204812778E+01  0.72461565040E+02  0.69999993156E+02 0.  0.
        -12    1    1    2    0    0  0.12090987455E+02  0.12827271927E+02  0.63204812778E+01  0.18726434960E+02  0.00000000000E+00 0.  1.
         11    1    3    3    0    0 -0.44952621620E+01 -0.26175551799E+02 -0.17902054989E+02  0.32028900496E+02  0.51100000000E-03 0. -1.
        -11    1    3    3    0    0 -0.17054072259E+02  0.13959830217E+01 -0.50818146642E+01  0.17849789627E+02  0.51100000000E-03 0.  1.
         12    1    3    3    0    0  0.94583469656E+01  0.11952296851E+02  0.16663388376E+02  0.22582874917E+02  0.00000000000E+00 0. -1.
</event>
<event>
 7    1  0.3508738E-013  0.7246158E+02  0.7816164E-02  0.1226708E+00
        -11   -1    0    0    0    0  0.00000000000E+00  0.00000000000E+00  0.45593999997E+02  0.45594000000E+02  0.51100000000E-03 0. -1.
         11   -1    0    0    0    0 -0.00000000000E+00 -0.00000000000E+00 -0.45593999997E+02  0.45594000000E+02  0.51100000000E-03 0.  1.
    9900012    2    1    2    0    0 -0.56700078775E+01  0.96393767377E+01  0.15020395575E+02  0.72461578653E+02  0.70000010889E+02 0.  0.
        -12    1    1    2    0    0  0.56700078775E+01 -0.96393767377E+01 -0.15020395575E+02  0.18726421347E+02  0.00000000000E+00 0.  1.
         11    1    3    3    0    0  0.13549253011E+02  0.14690677252E+02  0.29457295938E+02  0.35596777095E+02  0.51100000000E-03 0. -1.
        -11    1    3    3    0    0  0.60745699080E+01 -0.37183410847E+01 -0.80392589244E+01  0.10740397772E+02  0.51100000000E-03 0.  1.
         12    1    3    3    0    0 -0.25293830797E+02 -0.13329594301E+01 -0.63976414380E+01  0.26124403786E+02  0.00000000000E+00 0. -1.
</event>
<event>
 7    1  0.3508738E-013  0.7246151E+02  0.7816164E-02  0.1226708E+00
        -11   -1    0    0    0    0  0.00000000000E+00  0.00000000000E+00  0.45593999997E+02  0.45594000000E+02  0.51100000000E-03 0. -1.
         11   -1    0    0    0    0 -0.00000000000E+00 -0.00000000000E+00 -0.45593999997E+02  0.45594000000E+02  0.51100000000E-03 0.  1.
    9900012    2    1    2    0    0  0.17696748120E+02  0.77229813860E+00  0.60753825970E+01  0.72461505076E+02  0.69999915041E+02 0.  0.
        -12    1    1    2    0    0 -0.17696748120E+02 -0.77229813860E+00 -0.60753825970E+01  0.18726494924E+02  0.00000000000E+00 0.  1.
         11    1    3    3    0    0  0.16508028608E+01 -0.16887996209E+02 -0.51522699687E+01  0.17733455730E+02  0.51100000000E-03 0. -1.
        -11    1    3    3    0    0  0.39863669130E+01 -0.15286551349E+02  0.11669894886E+02  0.19640677693E+02  0.51100000000E-03 0.  1.
        -12    1    3    3    0    0  0.12059578346E+02  0.32946845697E+02 -0.44224231999E+00  0.35087371653E+02  0.00000000000E+00 0.  1.
</event>
<event>
 7    1  0.3508738E-013  0.7246158E+02  0.7816164E-02  0.1226708E+00
        -11   -1    0    0    0    0  0.00000000000E+00  0.00000000000E+00  0.45593999997E+02  0.45594000000E+02  0.51100000000E-03 0. -1.
         11   -1    0    0    0    0 -0.00000000000E+00 -0.00000000000E+00 -0.45593999997E+02  0.45594000000E+02  0.51100000000E-03 0.  1.
    9900012    2    1    2    0    0  0.78818015465E+01 -0.98801856718E+01  0.13818027200E+02  0.72461581756E+02  0.70000014931E+02 0.  0.
        -12    1    1    2    0    0 -0.78818015465E+01  0.98801856718E+01 -0.13818027200E+02  0.18726418244E+02  0.00000000000E+00 0.  1.
         11    1    3    3    0    0 -0.42078737477E+01 -0.27422375455E+02  0.10579790510E+02  0.29692168068E+02  0.51100000000E-03 0. -1.
        -11    1    3    3    0    0  0.11999644033E+02 -0.39085817772E+01  0.13934159547E+02  0.18799714651E+02  0.51100000000E-03 0.  1.
        -12    1    3    3    0    0  0.90031261685E-01  0.21450771561E+02 -0.10695922856E+02  0.23969699037E+02  0.00000000000E+00 0.  1.
</event>
<event>
 7    1  0.3508738E-013  0.7246169E+02  0.7816164E-02  0.1226708E+00
        -11   -1    0    0    0    0  0.00000000000E+00  0.00000000000E+00  0.45593999997E+02  0.45594000000E+02  0.51100000000E-03 0. -1.
         11   -1    0    0    0    0 -0.00000000000E+00 -0.00000000000E+00 -0.45593999997E+02  0.45594000000E+02  0.51100000000E-03 0.  1.
    9900012    2    1    2    0    0 -0.49469073673E+01 -0.32331388985E+01  0.17769348358E+02  0.72461686409E+02  0.70000151261E+02 0.  0.
        -12    1    1    2    0    0  0.49469073673E+01  0.32331388985E+01 -0.17769348358E+02  0.18726313591E+02  0.00000000000E+00 0.  1.
         11    1    3    3    0    0  0.91757314519E+01  0.13485982235E+02  0.73133219429E+00  0.16327908977E+02  0.51100000000E-03 0. -1.
        -11    1    3    3    0    0  0.10343482929E+02 -0.23141294388E+02 -0.50165395386E+00  0.25352688260E+02  0.51100000000E-03 0.  1.
         12    1    3    3    0    0 -0.24466121749E+02  0.64221732548E+01  0.17539670118E+02  0.30781089171E+02  0.00000000000E+00 0. -1.
</event>
<event>
 7    1  0.3508738E-013  0.7246154E+02  0.7816164E-02  0.1226708E+00
        -11   -1    0    0    0    0  0.00000000000E+00  0.00000000000E+00  0.45593999997E+02  0.45594000000E+02  0.51100000000E-03 0. -1.
         11   -1    0    0    0    0 -0.00000000000E+00 -0.00000000000E+00 -0.45593999997E+02  0.45594000000E+02  0.51100000000E-03 0.  1.
    9900012    2    1    2    0    0 -0.14941539331E+02 -0.15043352384E+01  0.11187835298E+02  0.72461540625E+02  0.69999961350E+02 0.  0.
        -12    1    1    2    0    0  0.14941539331E+02  0.15043352384E+01 -0.11187835298E+02  0.18726459375E+02  0.00000000000E+00 0.  1.
         11    1    3    3    0    0  0.28181151785E+01  0.83679872549E+01 -0.45423606940E+01  0.99296538103E+01  0.51100000000E-03 0. -1.
        -11    1    3    3    0    0  0.49077229255E+01 -0.10534933757E+02 -0.18275840774E+02  0.21658183900E+02  0.51100000000E-03 0.  1.
         12    1    3    3    0    0 -0.22667377435E+02  0.66261126364E+00  0.34006036766E+02  0.40873702915E+02  0.00000000000E+00 0. -1.
</event>
<event>
 7    1  0.3508738E-013  0.7246159E+02  0.7816164E-02  0.1226708E+00
        -11   -1    0    0    0    0  0.00000000000E+00  0.00000000000E+00  0.45593999997E+02  0.45594000000E+02  0.51100000000E-03 0. -1.
         11   -1    0    0    0    0 -0.00000000000E+00 -0.00000000000E+00 -0.45593999997E+02  0.45594000000E+02  0.51100000000E-03 0.  1.
    9900012    2    1    2    0    0 -0.37471046365E+01 -0.18347586627E+02 -0.62209529270E-01  0.72461585548E+02  0.70000019871E+02 0.  0.
        -12    1    1    2    0    0  0.37471046365E+01  0.18347586627E+02  0.62209529270E-01  0.18726414452E+02  0.00000000000E+00 0.  1.
         11    1    3    3    0    0  0.47548023875E+01 -0.35851529247E+02  0.12618277438E+02  0.38303540578E+02  0.51100000000E-03 0. -1.
        -11    1    3    3    0    0 -0.38108948125E+01 -0.47549697344E+01 -0.93604590474E+01  0.11169192016E+02  0.51100000000E-03 0.  1.
        -12    1    3    3    0    0 -0.46910122116E+01  0.22258912354E+02 -0.33200279204E+01  0.22988852954E+02  0.00000000000E+00 0.  1.
</event>
<event>
 7    1  0.3508738E-013  0.7246156E+02  0.7816164E-02  0.1226708E+00
        -11   -1    0    0    0    0  0.00000000000E+00  0.00000000000E+00  0.45593999997E+02  0.45594000000E+02  0.51100000000E-03 0.  1.
         11   -1    0    0    0    0 -0.00000000000E+00 -0.00000000000E+00 -0.45593999997E+02  0.45594000000E+02  0.51100000000E-03 0. -1.
    9900012    2    1    2    0    0 -0.12870546735E+02  0.11865753086E+02 -0.66507521272E+01  0.72461559510E+02  0.69999985952E+02 0.  0.
        -12    1    1    2    0    0  0.12870546735E+02 -0.11865753086E+02  0.66507521272E+01  0.18726440490E+02  0.00000000000E+00 0.  1.
         11    1    3    3    0    0 -0.91782698559E+01  0.26825025450E+02  0.12401514209E+02  0.30945438806E+02  0.51100000000E-03 0. -1.
        -11    1    3    3    0    0  0.38085195280E+01 -0.33925782724E+01  0.89516995387E+01  0.10302782790E+02  0.51100000000E-03 0.  1.
        -12    1    3    3    0    0 -0.75007964075E+01 -0.11566694092E+02 -0.28003965875E+02  0.31213337914E+02  0.00000000000E+00 0.  1.
</event>
<event>
 7    1  0.3508738E-013  0.7246154E+02  0.7816164E-02  0.1226708E+00
        -11   -1    0    0    0    0  0.00000000000E+00  0.00000000000E+00  0.45593999997E+02  0.45594000000E+02  0.51100000000E-03 0.  1.
         11   -1    0    0    0    0 -0.00000000000E+00 -0.00000000000E+00 -0.45593999997E+02  0.45594000000E+02  0.51100000000E-03 0. -1.
    9900012    2    1    2    0    0 -0.15144603151E+02 -0.89217943625E+01 -0.64593375781E+01  0.72461535806E+02  0.69999955073E+02 0.  0.
        -12    1    1    2    0    0  0.15144603151E+02  0.89217943625E+01  0.64593375781E+01  0.18726464194E+02  0.00000000000E+00 0.  1.
         11    1    3    3    0    0 -0.20673990257E+02 -0.27146616579E+02 -0.21941099623E+02  0.40568023341E+02  0.51100000000E-03 0. -1.
        -11    1    3    3    0    0 -0.34995702826E+01  0.39497540514E+01 -0.36166329928E+01  0.63974669750E+01  0.51100000000E-03 0.  1.
         12    1    3    3    0    0  0.90289573879E+01  0.14275068165E+02  0.19098395038E+02  0.25496045491E+02  0.00000000000E+00 0. -1.
</event>
<event>
 7    1  0.3508738E-013  0.7246170E+02  0.7816164E-02  0.1226708E+00
        -11   -1    0    0    0    0  0.00000000000E+00  0.00000000000E+00  0.45593999997E+02  0.45594000000E+02  0.51100000000E-03 0. -1.
         11   -1    0    0    0    0 -0.00000000000E+00 -0.00000000000E+00 -0.45593999997E+02  0.45594000000E+02  0.51100000000E-03 0.  1.
    9900012    2    1    2    0    0 -0.59189059320E+01 -0.10050798098E+02  0.14649990677E+02  0.72461702537E+02  0.70000172270E+02 0.  0.
        -12    1    1    2    0    0  0.59189059320E+01  0.10050798098E+02 -0.14649990677E+02  0.18726297463E+02  0.00000000000E+00 0.  1.
         11    1    3    3    0    0 -0.43781829344E+00 -0.40059891006E+01  0.30624229124E+02  0.30888234706E+02  0.51100000000E-03 0. -1.
        -11    1    3    3    0    0  0.88796018336E+01  0.66825452828E+01  0.58122018937E+01  0.12541348863E+02  0.51100000000E-03 0.  1.
         12    1    3    3    0    0 -0.14360689472E+02 -0.12727354280E+02 -0.21786440340E+02  0.29032118968E+02  0.00000000000E+00 0. -1.
</event>
<event>
 7    1  0.3508738E-013  0.7246157E+02  0.7816164E-02  0.1226708E+00
        -11   -1    0    0    0    0  0.00000000000E+00  0.00000000000E+00  0.45593999997E+02  0.45594000000E+02  0.51100000000E-03 0. -1.
         11   -1    0    0    0    0 -0.00000000000E+00 -0.00000000000E+00 -0.45593999997E+02  0.45594000000E+02  0.51100000000E-03 0.  1.
    9900012    2    1    2    0    0  0.52003394083E+01 -0.10861586602E+02  0.14340909118E+02  0.72461567670E+02  0.69999996581E+02 0.  0.
        -12    1    1    2    0    0 -0.52003394083E+01  0.10861586602E+02 -0.14340909118E+02  0.18726432330E+02  0.00000000000E+00 0.  1.
         11    1    3    3    0    0 -0.66347957467E+01 -0.13336547850E+02 -0.16584697867E+02  0.22292066453E+02  0.51100000000E-03 0. -1.
        -11    1    3    3    0    0 -0.75036760934E+01 -0.10890367861E+02  0.28088485446E+01  0.13520166326E+02  0.51100000000E-03 0.  1.
         12    1    3    3    0    0  0.19338811248E+02  0.13365329109E+02  0.28116758441E+02  0.36649334891E+02  0.00000000000E+00 0. -1.
</event>
<event>
 7    1  0.4409054E-013  0.7246143E+02  0.7816164E-02  0.1226708E+00
        -11   -1    0    0    0    0  0.00000000000E+00  0.00000000000E+00  0.45593999997E+02  0.45594000000E+02  0.51100000000E-03 0. -1.
         11   -1    0    0    0    0 -0.00000000000E+00 -0.00000000000E+00 -0.45593999997E+02  0.45594000000E+02  0.51100000000E-03 0.  1.
    9900012    2    1    2    0    0 -0.13058116923E+01 -0.31097720897E+01  0.18420333911E+02  0.72461427221E+02  0.69999813621E+02 0.  0.
        -12    1    1    2    0    0  0.13058116923E+01  0.31097720897E+01 -0.18420333911E+02  0.18726572779E+02  0.00000000000E+00 0.  1.
         11    1    3    3    0    0 -0.18566654947E+02 -0.22199821213E+02  0.17460951023E+02  0.33799963738E+02  0.51100000000E-03 0. -1.
        -11    1    3    3    0    0  0.15211682439E+01 -0.73307259472E+01  0.24333091076E+01  0.78723877707E+01  0.51100000000E-03 0.  1.
        -12    1    3    3    0    0  0.15739675010E+02  0.26420775070E+02 -0.14739262193E+01  0.30789075713E+02  0.00000000000E+00 0.  1.
</event>
<event>
 7    1  0.3508738E-013  0.7246155E+02  0.7816164E-02  0.1226708E+00
        -11   -1    0    0    0    0  0.00000000000E+00  0.00000000000E+00  0.45593999997E+02  0.45594000000E+02  0.51100000000E-03 0. -1.
         11   -1    0    0    0    0 -0.00000000000E+00 -0.00000000000E+00 -0.45593999997E+02  0.45594000000E+02  0.51100000000E-03 0.  1.
    9900012    2    1    2    0    0 -0.14412336920E+02  0.10184277104E+02  0.62645881888E+01  0.72461547565E+02  0.69999970391E+02 0.  0.
        -12    1    1    2    0    0  0.14412336920E+02 -0.10184277104E+02 -0.62645881888E+01  0.18726452435E+02  0.00000000000E+00 0.  1.
         11    1    3    3    0    0 -0.28134225532E+02  0.62696883764E+01 -0.69314014377E+01  0.29646044673E+02  0.51100000000E-03 0. -1.
        -11    1    3    3    0    0  0.31423543177E+01 -0.20922929583E+01 -0.13211525819E+02  0.13740323693E+02  0.51100000000E-03 0.  1.
        -12    1    3    3    0    0  0.10579534294E+02  0.60068816856E+01  0.26407515445E+02  0.29075179199E+02  0.00000000000E+00 0.  1.
</event>
<event>
 7    1  0.3508738E-013  0.7246157E+02  0.7816164E-02  0.1226708E+00
        -11   -1    0    0    0    0  0.00000000000E+00  0.00000000000E+00  0.45593999997E+02  0.45594000000E+02  0.51100000000E-03 0.  1.
         11   -1    0    0    0    0 -0.00000000000E+00 -0.00000000000E+00 -0.45593999997E+02  0.45594000000E+02  0.51100000000E-03 0. -1.
    9900012    2    1    2    0    0  0.14328868936E+02 -0.66465762044E+01 -0.10059108647E+02  0.72461571430E+02  0.70000001479E+02 0.  0.
        -12    1    1    2    0    0 -0.14328868936E+02  0.66465762044E+01  0.10059108647E+02  0.18726428570E+02  0.00000000000E+00 0.  1.
         11    1    3    3    0    0  0.37693427702E+01  0.40883680129E+01  0.20139485741E+01  0.59142782356E+01  0.51100000000E-03 0. -1.
        -11    1    3    3    0    0  0.32019474810E+02  0.18561575713E+00  0.10343406735E+02  0.33649179536E+02  0.51100000000E-03 0.  1.
        -12    1    3    3    0    0 -0.21459948645E+02 -0.10920559974E+02 -0.22416463955E+02  0.32898113658E+02  0.00000000000E+00 0.  1.
</event>
<event>
 7    1  0.3508738E-013  0.7246156E+02  0.7816164E-02  0.1226708E+00
        -11   -1    0    0    0    0  0.00000000000E+00  0.00000000000E+00  0.45593999997E+02  0.45594000000E+02  0.51100000000E-03 0. -1.
         11   -1    0    0    0    0 -0.00000000000E+00 -0.00000000000E+00 -0.45593999997E+02  0.45594000000E+02  0.51100000000E-03 0.  1.
    9900012    2    1    2    0    0 -0.16471857549E+02 -0.28207338401E+01  0.84499001345E+01  0.72461562998E+02  0.69999990495E+02 0.  0.
        -12    1    1    2    0    0  0.16471857549E+02  0.28207338401E+01 -0.84499001345E+01  0.18726437002E+02  0.00000000000E+00 0.  1.
         11    1    3    3    0    0 -0.34041461133E+02 -0.20242877648E+02  0.15027686625E+02  0.42360672057E+02  0.51100000000E-03 0. -1.
        -11    1    3    3    0    0 -0.24098306036E+01  0.18112490645E+01 -0.34056003581E+01  0.45481887353E+01  0.51100000000E-03 0.  1.
        -12    1    3    3    0    0  0.19979434188E+02  0.15610894743E+02 -0.31721861325E+01  0.25552702206E+02  0.00000000000E+00 0.  1.
</event>
<event>
 7    1  0.3508738E-013  0.7246153E+02  0.7816164E-02  0.1226708E+00
        -11   -1    0    0    0    0  0.00000000000E+00  0.00000000000E+00  0.45593999997E+02  0.45594000000E+02  0.51100000000E-03 0. -1.
         11   -1    0    0    0    0 -0.00000000000E+00 -0.00000000000E+00 -0.45593999997E+02  0.45594000000E+02  0.51100000000E-03 0.  1.
    9900012    2    1    2    0    0  0.34458111617E+01 -0.18366477157E+02 -0.12163673633E+01  0.72461530838E+02  0.69999948600E+02 0.  0.
        -12    1    1    2    0    0 -0.34458111617E+01  0.18366477157E+02  0.12163673633E+01  0.18726469162E+02  0.00000000000E+00 0.  1.
         11    1    3    3    0    0  0.47991719032E+01  0.33589374437E+01  0.88641314357E+01  0.10624845320E+02  0.51100000000E-03 0. -1.
        -11    1    3    3    0    0  0.26437270753E+02 -0.48746730506E+01  0.24725585909E+01  0.26996393620E+02  0.51100000000E-03 0.  1.
         12    1    3    3    0    0 -0.27790631495E+02 -0.16850741550E+02 -0.12553057390E+02  0.34840291898E+02  0.00000000000E+00 0. -1.
</event>
<event>
 7    1  0.3508738E-013  0.7246160E+02  0.7816164E-02  0.1226708E+00
        -11   -1    0    0    0    0  0.00000000000E+00  0.00000000000E+00  0.45593999997E+02  0.45594000000E+02  0.51100000000E-03 0. -1.
         11   -1    0    0    0    0 -0.00000000000E+00 -0.00000000000E+00 -0.45593999997E+02  0.45594000000E+02  0.51100000000E-03 0.  1.
    9900012    2    1    2    0    0 -0.19294751653E+01 -0.16245059812E+02  0.91133528285E+01  0.72461600386E+02  0.70000039200E+02 0.  0.
        -12    1    1    2    0    0  0.19294751653E+01  0.16245059812E+02 -0.91133528285E+01  0.18726399614E+02  0.00000000000E+00 0.  1.
         11    1    3    3    0    0  0.18637671517E+01 -0.17042277715E+02  0.87625657915E+01  0.19253452086E+02  0.51100000000E-03 0. -1.
        -11    1    3    3    0    0  0.15908391203E+02 -0.12756143640E+02 -0.14534065607E+02  0.25040670410E+02  0.51100000000E-03 0.  1.
         12    1    3    3    0    0 -0.19701633520E+02  0.13553361543E+02  0.14884852644E+02  0.28167477890E+02  0.00000000000E+00 0. -1.
</event>
<event>
 7    1  0.3508738E-013  0.7246160E+02  0.7816164E-02  0.1226708E+00
        -11   -1    0    0    0    0  0.00000000000E+00  0.00000000000E+00  0.45593999997E+02  0.45594000000E+02  0.51100000000E-03 0. -1.
         11   -1    0    0    0    0 -0.00000000000E+00 -0.00000000000E+00 -0.45593999997E+02  0.45594000000E+02  0.51100000000E-03 0.  1.
    9900012    2    1    2    0    0 -0.10598855443E+02  0.14241104041E+02 -0.59609898171E+01  0.72461596699E+02  0.70000034396E+02 0.  0.
        -12    1    1    2    0    0  0.10598855443E+02 -0.14241104041E+02  0.59609898171E+01  0.18726403301E+02  0.00000000000E+00 0.  1.
         11    1    3    3    0    0  0.80917468865E+01  0.15076150343E+02 -0.88023768701E+01  0.19241842834E+02  0.51100000000E-03 0. -1.
        -11    1    3    3    0    0 -0.24196958212E+02  0.16753950943E+02 -0.96294512830E+01  0.30966336419E+02  0.51100000000E-03 0.  1.
         12    1    3    3    0    0  0.55063558823E+01 -0.17588997245E+02  0.12470838336E+02  0.22253417446E+02  0.00000000000E+00 0. -1.
</event>
<event>
 7    1  0.3508738E-013  0.7246160E+02  0.7816164E-02  0.1226708E+00
        -11   -1    0    0    0    0  0.00000000000E+00  0.00000000000E+00  0.45593999997E+02  0.45594000000E+02  0.51100000000E-03 0.  1.
         11   -1    0    0    0    0 -0.00000000000E+00 -0.00000000000E+00 -0.45593999997E+02  0.45594000000E+02  0.51100000000E-03 0. -1.
    9900012    2    1    2    0    0 -0.99762100196E+00  0.36477114717E+01 -0.18340585380E+02  0.72461598351E+02  0.70000036549E+02 0.  0.
        -12    1    1    2    0    0  0.99762100196E+00 -0.36477114717E+01  0.18340585380E+02  0.18726401649E+02  0.00000000000E+00 0.  1.
         11    1    3    3    0    0  0.11043072358E+02  0.71499007942E+01 -0.27914314845E+01  0.13448517333E+02  0.51100000000E-03 0. -1.
        -11    1    3    3    0    0  0.54805572092E+01  0.23664443014E+02 -0.36378897650E+01  0.24561689940E+02  0.51100000000E-03 0.  1.
         12    1    3    3    0    0 -0.17521250569E+02 -0.27166632337E+02 -0.11911264130E+02  0.34451391078E+02  0.00000000000E+00 0. -1.
</event>
<event>
 7    1  0.3508738E-013  0.7246154E+02  0.7816164E-02  0.1226708E+00
        -11   -1    0    0    0    0  0.00000000000E+00  0.00000000000E+00  0.45593999997E+02  0.45594000000E+02  0.51100000000E-03 0. -1.
         11   -1    0    0    0    0 -0.00000000000E+00 -0.00000000000E+00 -0.45593999997E+02  0.45594000000E+02  0.51100000000E-03 0.  1.
    9900012    2    1    2    0    0  0.15781824459E+02  0.29690424805E+01  0.96332375832E+01  0.72461535762E+02  0.69999955016E+02 0.  0.
        -12    1    1    2    0    0 -0.15781824459E+02 -0.29690424805E+01 -0.96332375832E+01  0.18726464238E+02  0.00000000000E+00 0.  1.
         11    1    3    3    0    0  0.89808847214E+01  0.17901050965E+01  0.96705390788E+01  0.13318411804E+02  0.51100000000E-03 0. -1.
        -11    1    3    3    0    0 -0.48209779974E+01 -0.27605472522E+02  0.14961258707E+01  0.28063184689E+02  0.51100000000E-03 0.  1.
         12    1    3    3    0    0  0.11621917735E+02  0.28784409906E+02 -0.15334273663E+01  0.31079939269E+02  0.00000000000E+00 0. -1.
</event>
<event>
 7    1  0.3508738E-013  0.7246167E+02  0.7816164E-02  0.1226708E+00
        -11   -1    0    0    0    0  0.00000000000E+00  0.00000000000E+00  0.45593999997E+02  0.45594000000E+02  0.51100000000E-03 0.  1.
         11   -1    0    0    0    0 -0.00000000000E+00 -0.00000000000E+00 -0.45593999997E+02  0.45594000000E+02  0.51100000000E-03 0. -1.
    9900012    2    1    2    0    0  0.12447195333E+02 -0.40500891459E+01 -0.13391773561E+02  0.72461668462E+02  0.70000127881E+02 0.  0.
        -12    1    1    2    0    0 -0.12447195333E+02  0.40500891459E+01  0.13391773561E+02  0.18726331538E+02  0.00000000000E+00 0.  1.
         11    1    3    3    0    0  0.88716845736E+01  0.13426615438E+01 -0.16717010083E+02  0.18972821445E+02  0.51100000000E-03 0. -1.
        -11    1    3    3    0    0  0.22698671706E+02  0.13033714977E+02  0.58262970861E+01  0.26815166628E+02  0.51100000000E-03 0.  1.
         12    1    3    3    0    0 -0.19123160946E+02 -0.18426465667E+02 -0.25010605642E+01  0.26673680389E+02  0.00000000000E+00 0. -1.
</event>
<event>
 7    1  0.3508738E-013  0.7246154E+02  0.7816164E-02  0.1226708E+00
        -11   -1    0    0    0    0  0.00000000000E+00  0.00000000000E+00  0.45593999997E+02  0.45594000000E+02  0.51100000000E-03 0. -1.
         11   -1    0    0    0    0 -0.00000000000E+00 -0.00000000000E+00 -0.45593999997E+02  0.45594000000E+02  0.51100000000E-03 0.  1.
    9900012    2    1    2    0    0  0.16024721450E+02 -0.81705337766E+01  0.52087326619E+01  0.72461542362E+02  0.69999963613E+02 0.  0.
        -12    1    1    2    0    0 -0.16024721450E+02  0.81705337766E+01 -0.52087326619E+01  0.18726457638E+02  0.00000000000E+00 0.  1.
         11    1    3    3    0    0  0.16058107721E+02 -0.24367279263E+01  0.90718140402E+01  0.18603716747E+02  0.51100000000E-03 0. -1.
        -11    1    3    3    0    0  0.12921338947E+02  0.20504576000E+02  0.67554578738E+00  0.24245721262E+02  0.51100000000E-03 0.  1.
         12    1    3    3    0    0 -0.12954725219E+02 -0.26238381850E+02 -0.45386271657E+01  0.29612104352E+02  0.00000000000E+00 0. -1.
</event>
<event>
 7    1  0.3508738E-013  0.7246155E+02  0.7816164E-02  0.1226708E+00
        -11   -1    0    0    0    0  0.00000000000E+00  0.00000000000E+00  0.45593999997E+02  0.45594000000E+02  0.51100000000E-03 0. -1.
         11   -1    0    0    0    0 -0.00000000000E+00 -0.00000000000E+00 -0.45593999997E+02  0.45594000000E+02  0.51100000000E-03 0.  1.
    9900012    2    1    2    0    0  0.16025222516E+02 -0.65760742001E+01  0.71152857913E+01  0.72461553448E+02  0.69999978054E+02 0.  0.
        -12    1    1    2    0    0 -0.16025222516E+02  0.65760742001E+01 -0.71152857913E+01  0.18726446552E+02  0.00000000000E+00 0.  1.
         11    1    3    3    0    0 -0.10844332529E+02 -0.70281288635E+01  0.24053463728E+02  0.27305004320E+02  0.51100000000E-03 0.  1.
        -11    1    3    3    0    0  0.87085984019E+01 -0.47782002293E+01  0.87688286064E+01  0.13250027885E+02  0.51100000000E-03 0. -1.
        -12    1    3    3    0    0  0.18160956643E+02  0.52302548926E+01 -0.25707006543E+02  0.31906521243E+02  0.00000000000E+00 0.  1.
</event>
<event>
 7    1  0.3508738E-013  0.7246127E+02  0.7816164E-02  0.1226709E+00
        -11   -1    0    0    0    0  0.00000000000E+00  0.00000000000E+00  0.45593999997E+02  0.45594000000E+02  0.51100000000E-03 0.  1.
         11   -1    0    0    0    0 -0.00000000000E+00 -0.00000000000E+00 -0.45593999997E+02  0.45594000000E+02  0.51100000000E-03 0. -1.
    9900012    2    1    2    0    0  0.32193213481E+01 -0.19118688461E+01 -0.18348605681E+02  0.72461265024E+02  0.69999602328E+02 0.  0.
        -12    1    1    2    0    0 -0.32193213481E+01  0.19118688461E+01  0.18348605681E+02  0.18726734976E+02  0.00000000000E+00 0.  1.
         11    1    3    3    0    0  0.66580269252E+01  0.55384339697E+01 -0.10662235733E+02  0.13736333006E+02  0.51100000000E-03 0. -1.
        -11    1    3    3    0    0  0.80175507783E+01 -0.30270833883E+02  0.20861947369E+01  0.31384020029E+02  0.51100000000E-03 0.  1.
         12    1    3    3    0    0 -0.11456256355E+02  0.22820531067E+02 -0.97725646847E+01  0.27340911989E+02  0.00000000000E+00 0. -1.
</event>
<event>
 7    1  0.3508738E-013  0.7246156E+02  0.7816164E-02  0.1226708E+00
        -11   -1    0    0    0    0  0.00000000000E+00  0.00000000000E+00  0.45593999997E+02  0.45594000000E+02  0.51100000000E-03 0.  1.
         11   -1    0    0    0    0 -0.00000000000E+00 -0.00000000000E+00 -0.45593999997E+02  0.45594000000E+02  0.51100000000E-03 0. -1.
    9900012    2    1    2    0    0  0.12980915746E+02 -0.11806252153E+02  0.65412240538E+01  0.72461564791E+02  0.69999992831E+02 0.  0.
        -12    1    1    2    0    0 -0.12980915746E+02  0.11806252153E+02 -0.65412240538E+01  0.18726435209E+02  0.00000000000E+00 0.  1.
         11    1    3    3    0    0 -0.12090225065E+00 -0.28692124187E+02 -0.13936581960E+02  0.31897976812E+02  0.51100000000E-03 0. -1.
        -11    1    3    3    0    0 -0.69032620414E+01  0.23148404491E+00 -0.78672549401E+00  0.69518018484E+01  0.51100000000E-03 0.  1.
        -12    1    3    3    0    0  0.20005080039E+02  0.16654387989E+02  0.21264531508E+02  0.33611786130E+02  0.00000000000E+00 0.  1.
</event>
<event>
 7    1  0.3508738E-013  0.7246162E+02  0.7816164E-02  0.1226708E+00
        -11   -1    0    0    0    0  0.00000000000E+00  0.00000000000E+00  0.45593999997E+02  0.45594000000E+02  0.51100000000E-03 0.  1.
         11   -1    0    0    0    0 -0.00000000000E+00 -0.00000000000E+00 -0.45593999997E+02  0.45594000000E+02  0.51100000000E-03 0. -1.
    9900012    2    1    2    0    0  0.17668975845E+02  0.54548784367E+00 -0.61795615419E+01  0.72461621673E+02  0.70000066931E+02 0.  0.
        -12    1    1    2    0    0 -0.17668975845E+02 -0.54548784367E+00  0.61795615419E+01  0.18726378327E+02  0.00000000000E+00 0.  1.
         11    1    3    3    0    0  0.24915885571E+02  0.11799609748E+02 -0.56451099774E+01  0.28140707363E+02  0.51100000000E-03 0. -1.
        -11    1    3    3    0    0  0.12766304919E+02 -0.15809759353E+02  0.83321245835E+01  0.21962498319E+02  0.51100000000E-03 0.  1.
        -12    1    3    3    0    0 -0.20013214646E+02  0.45556374487E+01 -0.88665761481E+01  0.22358415991E+02  0.00000000000E+00 0.  1.
</event>
<event>
 7    1  0.3508738E-013  0.7246158E+02  0.7816164E-02  0.1226708E+00
        -11   -1    0    0    0    0  0.00000000000E+00  0.00000000000E+00  0.45593999997E+02  0.45594000000E+02  0.51100000000E-03 0.  1.
         11   -1    0    0    0    0 -0.00000000000E+00 -0.00000000000E+00 -0.45593999997E+02  0.45594000000E+02  0.51100000000E-03 0. -1.
    9900012    2    1    2    0    0 -0.42897624119E+01 -0.16240503035E+01 -0.18155966674E+02  0.72461582115E+02  0.70000015399E+02 0.  0.
        -12    1    1    2    0    0  0.42897624119E+01  0.16240503035E+01  0.18155966674E+02  0.18726417885E+02  0.00000000000E+00 0.  1.
         11    1    3    3    0    0 -0.12144111964E+02  0.35041463056E+01  0.77124027650E+01  0.14806743510E+02  0.51100000000E-03 0. -1.
        -11    1    3    3    0    0 -0.49604657977E+01  0.20755955275E+02 -0.47170629010E+01  0.21855584709E+02  0.51100000000E-03 0.  1.
        -12    1    3    3    0    0  0.12814815349E+02 -0.25884151884E+02 -0.21151306538E+02  0.35799253895E+02  0.00000000000E+00 0.  1.
</event>
<event>
 7    1  0.3508738E-013  0.7246157E+02  0.7816164E-02  0.1226708E+00
        -11   -1    0    0    0    0  0.00000000000E+00  0.00000000000E+00  0.45593999997E+02  0.45594000000E+02  0.51100000000E-03 0.  1.
         11   -1    0    0    0    0 -0.00000000000E+00 -0.00000000000E+00 -0.45593999997E+02  0.45594000000E+02  0.51100000000E-03 0. -1.
    9900012    2    1    2    0    0 -0.11511477788E+02 -0.66672192723E+01 -0.13180035653E+02  0.72461567518E+02  0.69999996383E+02 0.  0.
        -12    1    1    2    0    0  0.11511477788E+02  0.66672192723E+01  0.13180035653E+02  0.18726432482E+02  0.00000000000E+00 0.  1.
         11    1    3    3    0    0  0.20259242857E+02  0.76702485901E+01  0.14748171564E+01  0.21712777816E+02  0.51100000000E-03 0. -1.
        -11    1    3    3    0    0 -0.18612570490E+02 -0.14915428031E+02 -0.24585166851E+02  0.34253878655E+02  0.51100000000E-03 0.  1.
        -12    1    3    3    0    0 -0.13158150155E+02  0.57796016809E+00  0.99303140421E+01  0.16494911047E+02  0.00000000000E+00 0.  1.
</event>
<event>
 7    1  0.3508738E-013  0.7246160E+02  0.7816164E-02  0.1226708E+00
        -11   -1    0    0    0    0  0.00000000000E+00  0.00000000000E+00  0.45593999997E+02  0.45594000000E+02  0.51100000000E-03 0.  1.
         11   -1    0    0    0    0 -0.00000000000E+00 -0.00000000000E+00 -0.45593999997E+02  0.45594000000E+02  0.51100000000E-03 0. -1.
    9900012    2    1    2    0    0 -0.55925542340E+01 -0.12400673237E+02 -0.12869529670E+02  0.72461597421E+02  0.70000035338E+02 0.  0.
        -12    1    1    2    0    0  0.55925542340E+01  0.12400673237E+02  0.12869529670E+02  0.18726402579E+02  0.00000000000E+00 0.  1.
         11    1    3    3    0    0 -0.12222125328E+02 -0.14554532648E+02 -0.19355225649E+01  0.19103952889E+02  0.51100000000E-03 0. -1.
        -11    1    3    3    0    0 -0.14042035150E+02  0.48411981127E+01 -0.24382543385E+02  0.28550383054E+02  0.51100000000E-03 0.  1.
        -12    1    3    3    0    0  0.20671606244E+02 -0.26873387018E+01  0.13448536280E+02  0.24807261478E+02  0.00000000000E+00 0.  1.
</event>
<event>
 7    1  0.3508738E-013  0.7246158E+02  0.7816164E-02  0.1226708E+00
        -11   -1    0    0    0    0  0.00000000000E+00  0.00000000000E+00  0.45593999997E+02  0.45594000000E+02  0.51100000000E-03 0. -1.
         11   -1    0    0    0    0 -0.00000000000E+00 -0.00000000000E+00 -0.45593999997E+02  0.45594000000E+02  0.51100000000E-03 0.  1.
    9900012    2    1    2    0    0  0.74608214121E+01  0.13880501726E+02  0.10116654352E+02  0.72461578035E+02  0.70000010084E+02 0.  0.
        -12    1    1    2    0    0 -0.74608214121E+01 -0.13880501726E+02 -0.10116654352E+02  0.18726421965E+02  0.00000000000E+00 0.  1.
         11    1    3    3    0    0  0.16481215813E+02 -0.10491309523E+02 -0.12956107314E+02  0.23442669797E+02  0.51100000000E-03 0.  1.
        -11    1    3    3    0    0 -0.14719278200E+02  0.11773957220E+01 -0.13879955544E+01  0.14831383730E+02  0.51100000000E-03 0. -1.
        -12    1    3    3    0    0  0.56988837995E+01  0.23194415528E+02  0.24460757220E+02  0.34187524509E+02  0.00000000000E+00 0.  1.
</event>
<event>
 7    1  0.3508738E-013  0.7246177E+02  0.7816164E-02  0.1226707E+00
        -11   -1    0    0    0    0  0.00000000000E+00  0.00000000000E+00  0.45593999997E+02  0.45594000000E+02  0.51100000000E-03 0.  1.
         11   -1    0    0    0    0 -0.00000000000E+00 -0.00000000000E+00 -0.45593999997E+02  0.45594000000E+02  0.51100000000E-03 0. -1.
    9900012    2    1    2    0    0  0.11068616990E+02 -0.16459732709E+01  0.15014930725E+02  0.72461770941E+02  0.70000261379E+02 0.  0.
        -12    1    1    2    0    0 -0.11068616990E+02  0.16459732709E+01 -0.15014930725E+02  0.18726229059E+02  0.00000000000E+00 0.  1.
         11    1    3    3    0    0  0.26816341004E+02  0.13814548369E+02 -0.65693396207E+01  0.30872546296E+02  0.51100000000E-03 0. -1.
        -11    1    3    3    0    0 -0.87043843486E+00  0.47802065198E+00  0.19678009573E+02  0.19703051231E+02  0.51100000000E-03 0.  1.
        -12    1    3    3    0    0 -0.14877285579E+02 -0.15938542292E+02  0.19062607733E+01  0.21886173414E+02  0.00000000000E+00 0.  1.
</event>
<event>
 7    1  0.3508738E-013  0.7246130E+02  0.7816164E-02  0.1226709E+00
        -11   -1    0    0    0    0  0.00000000000E+00  0.00000000000E+00  0.45593999997E+02  0.45594000000E+02  0.51100000000E-03 0. -1.
         11   -1    0    0    0    0 -0.00000000000E+00 -0.00000000000E+00 -0.45593999997E+02  0.45594000000E+02  0.51100000000E-03 0.  1.
    9900012    2    1    2    0    0 -0.57604345898E+01 -0.10645521977E+01  0.17786889303E+02  0.72461299566E+02  0.69999647326E+02 0.  0.
        -12    1    1    2    0    0  0.57604345898E+01  0.10645521977E+01 -0.17786889303E+02  0.18726700434E+02  0.00000000000E+00 0.  1.
         11    1    3    3    0    0 -0.27290217846E+02  0.92957879079E+01  0.30543526068E+02  0.42000888655E+02  0.51100000000E-03 0. -1.
        -11    1    3    3    0    0 -0.34246103850E+00 -0.47702566692E+01 -0.40407538694E+01  0.62610159197E+01  0.51100000000E-03 0.  1.
        -12    1    3    3    0    0  0.21872244295E+02 -0.55900834365E+01 -0.87158828954E+01  0.24199394991E+02  0.00000000000E+00 0.  1.
</event>
<event>
 7    1  0.4190734E-013  0.7246165E+02  0.7816164E-02  0.1226708E+00
        -11   -1    0    0    0    0  0.00000000000E+00  0.00000000000E+00  0.45593999997E+02  0.45594000000E+02  0.51100000000E-03 0. -1.
         11   -1    0    0    0    0 -0.00000000000E+00 -0.00000000000E+00 -0.45593999997E+02  0.45594000000E+02  0.51100000000E-03 0.  1.
    9900012    2    1    2    0    0  0.52027124690E+01 -0.17959924322E+02 -0.10241609844E+01  0.72461654803E+02  0.70000110089E+02 0.  0.
        -12    1    1    2    0    0 -0.52027124690E+01  0.17959924322E+02  0.10241609844E+01  0.18726345197E+02  0.00000000000E+00 0.  1.
         11    1    3    3    0    0  0.20342503798E+02 -0.18122989563E+02  0.10008854287E+02  0.29024771763E+02  0.51100000000E-03 0. -1.
        -11    1    3    3    0    0  0.10438526179E+02 -0.88584812279E+01 -0.86842781972E+01  0.16212717432E+02  0.51100000000E-03 0.  1.
        -12    1    3    3    0    0 -0.25578317509E+02  0.90215464687E+01 -0.23487370738E+01  0.27224165609E+02  0.00000000000E+00 0.  1.
</event>
<event>
 7    1  0.3508738E-013  0.7246127E+02  0.7816164E-02  0.1226709E+00
        -11   -1    0    0    0    0  0.00000000000E+00  0.00000000000E+00  0.45593999997E+02  0.45594000000E+02  0.51100000000E-03 0. -1.
         11   -1    0    0    0    0 -0.00000000000E+00 -0.00000000000E+00 -0.45593999997E+02  0.45594000000E+02  0.51100000000E-03 0.  1.
    9900012    2    1    2    0    0 -0.11067575243E+02  0.14633401567E+02  0.37500102563E+01  0.72461274709E+02  0.69999614944E+02 0.  0.
        -12    1    1    2    0    0  0.11067575243E+02 -0.14633401567E+02 -0.37500102563E+01  0.18726725291E+02  0.00000000000E+00 0.  1.
         11    1    3    3    0    0 -0.23329065415E+01  0.20316110064E+02 -0.15368508250E+02  0.25580809744E+02  0.51100000000E-03 0. -1.
        -11    1    3    3    0    0  0.31826744760E+01 -0.15493291046E+01 -0.12419187454E+02  0.12913793199E+02  0.51100000000E-03 0.  1.
        -12    1    3    3    0    0 -0.11917343178E+02 -0.41333793919E+01  0.31537705961E+02  0.33966671766E+02  0.00000000000E+00 0.  1.
</event>
<event>
 7    1  0.3508738E-013  0.7246157E+02  0.7816164E-02  0.1226708E+00
        -11   -1    0    0    0    0  0.00000000000E+00  0.00000000000E+00  0.45593999997E+02  0.45594000000E+02  0.51100000000E-03 0.  1.
         11   -1    0    0    0    0 -0.00000000000E+00 -0.00000000000E+00 -0.45593999997E+02  0.45594000000E+02  0.51100000000E-03 0. -1.
    9900012    2    1    2    0    0 -0.12021363492E+02 -0.12044368612E+02 -0.78165907739E+01  0.72461572503E+02  0.70000002877E+02 0.  0.
        -12    1    1    2    0    0  0.12021363492E+02  0.12044368612E+02  0.78165907739E+01  0.18726427497E+02  0.00000000000E+00 0.  1.
         11    1    3    3    0    0 -0.12051269569E+02  0.23702016482E+01 -0.88900412206E+01  0.15161918983E+02  0.51100000000E-03 0. -1.
        -11    1    3    3    0    0  0.26360566061E+02 -0.16004158903E+02  0.20150519552E+01  0.30904255045E+02  0.51100000000E-03 0.  1.
         12    1    3    3    0    0 -0.26330659984E+02  0.15895886423E+01 -0.94160150852E+00  0.26395398475E+02  0.00000000000E+00 0. -1.
</event>
<event>
 7    1  0.3508738E-013  0.7246155E+02  0.7816164E-02  0.1226708E+00
        -11   -1    0    0    0    0  0.00000000000E+00  0.00000000000E+00  0.45593999997E+02  0.45594000000E+02  0.51100000000E-03 0. -1.
         11   -1    0    0    0    0 -0.00000000000E+00 -0.00000000000E+00 -0.45593999997E+02  0.45594000000E+02  0.51100000000E-03 0.  1.
    9900012    2    1    2    0    0  0.38778451681E+01  0.18109245419E+02  0.27744599689E+01  0.72461545960E+02  0.69999968300E+02 0.  0.
        -12    1    1    2    0    0 -0.38778451681E+01 -0.18109245419E+02 -0.27744599689E+01  0.18726454040E+02  0.00000000000E+00 0.  1.
         11    1    3    3    0    0 -0.23622178063E+01  0.16480128281E+02  0.54377412734E+01  0.17514100934E+02  0.51100000000E-03 0. -1.
        -11    1    3    3    0    0 -0.14170281264E+02  0.21825165244E+02 -0.32776173383E+01  0.26227418567E+02  0.51100000000E-03 0.  1.
        -12    1    3    3    0    0  0.20410344239E+02 -0.20196048106E+02  0.61433603385E+00  0.28720026459E+02  0.00000000000E+00 0.  1.
</event>
<event>
 7    1  0.3508738E-013  0.7246161E+02  0.7816164E-02  0.1226708E+00
        -11   -1    0    0    0    0  0.00000000000E+00  0.00000000000E+00  0.45593999997E+02  0.45594000000E+02  0.51100000000E-03 0.  1.
         11   -1    0    0    0    0 -0.00000000000E+00 -0.00000000000E+00 -0.45593999997E+02  0.45594000000E+02  0.51100000000E-03 0. -1.
    9900012    2    1    2    0    0 -0.18093767612E+02  0.37117019469E+01 -0.30848767627E+01  0.72461611604E+02  0.70000053813E+02 0.  0.
        -12    1    1    2    0    0  0.18093767612E+02 -0.37117019469E+01  0.30848767627E+01  0.18726388396E+02  0.00000000000E+00 0.  1.
         11    1    3    3    0    0 -0.27786037716E+02 -0.25474579684E+01 -0.22732226158E+02  0.35990381221E+02  0.51100000000E-03 0. -1.
        -11    1    3    3    0    0 -0.88253451633E+01 -0.38482285535E+01  0.63689287847E+01  0.11543779034E+02  0.51100000000E-03 0.  1.
        -12    1    3    3    0    0  0.18517615268E+02  0.10107388469E+02  0.13278420611E+02  0.24927451349E+02  0.00000000000E+00 0.  1.
</event>
<event>
 7    1  0.3508738E-013  0.7246170E+02  0.7816164E-02  0.1226708E+00
        -11   -1    0    0    0    0  0.00000000000E+00  0.00000000000E+00  0.45593999997E+02  0.45594000000E+02  0.51100000000E-03 0.  1.
         11   -1    0    0    0    0 -0.00000000000E+00 -0.00000000000E+00 -0.45593999997E+02  0.45594000000E+02  0.51100000000E-03 0. -1.
    9900012    2    1    2    0    0  0.20552904528E+01  0.63333814037E+01 -0.17502524869E+02  0.72461699895E+02  0.70000168828E+02 0.  0.
        -12    1    1    2    0    0 -0.20552904528E+01 -0.63333814037E+01  0.17502524869E+02  0.18726300105E+02  0.00000000000E+00 0.  1.
         11    1    3    3    0    0  0.64243586377E+01  0.41135102341E+01  0.14482782304E+02  0.16369005281E+02  0.51100000000E-03 0. -1.
        -11    1    3    3    0    0 -0.12785740457E+02  0.21145233229E+02 -0.12659599041E+02  0.27764392583E+02  0.51100000000E-03 0.  1.
         12    1    3    3    0    0  0.84166722718E+01 -0.18925362059E+02 -0.19325708131E+02  0.28328302031E+02  0.00000000000E+00 0. -1.
</event>
<event>
 7    1  0.3508738E-013  0.7246171E+02  0.7816164E-02  0.1226708E+00
        -11   -1    0    0    0    0  0.00000000000E+00  0.00000000000E+00  0.45593999997E+02  0.45594000000E+02  0.51100000000E-03 0.  1.
         11   -1    0    0    0    0 -0.00000000000E+00 -0.00000000000E+00 -0.45593999997E+02  0.45594000000E+02  0.51100000000E-03 0. -1.
    9900012    2    1    2    0    0 -0.15885071816E+02 -0.50616568080E+01  0.85274878513E+01  0.72461710317E+02  0.70000182405E+02 0.  0.
        -12    1    1    2    0    0  0.15885071816E+02  0.50616568080E+01 -0.85274878513E+01  0.18726289683E+02  0.00000000000E+00 0.  1.
         11    1    3    3    0    0 -0.20437151309E+02  0.27229698320E+02  0.85278225646E+01  0.35097825890E+02  0.51100000000E-03 0. -1.
        -11    1    3    3    0    0  0.56690074631E+01 -0.56773966592E+01  0.60493700938E+01  0.10048151931E+02  0.51100000000E-03 0.  1.
        -12    1    3    3    0    0 -0.11169279701E+01 -0.26613958469E+02 -0.60497048071E+01  0.27315732495E+02  0.00000000000E+00 0.  1.
</event>
<event>
 7    1  0.3508738E-013  0.7246161E+02  0.7816164E-02  0.1226708E+00
        -11   -1    0    0    0    0  0.00000000000E+00  0.00000000000E+00  0.45593999997E+02  0.45594000000E+02  0.51100000000E-03 0. -1.
         11   -1    0    0    0    0 -0.00000000000E+00 -0.00000000000E+00 -0.45593999997E+02  0.45594000000E+02  0.51100000000E-03 0.  1.
    9900012    2    1    2    0    0  0.11561397154E+02  0.14531247295E+02  0.24196285698E+01  0.72461610745E+02  0.70000052695E+02 0.  0.
        -12    1    1    2    0    0 -0.11561397154E+02 -0.14531247295E+02 -0.24196285698E+01  0.18726389255E+02  0.00000000000E+00 0.  1.
         11    1    3    3    0    0  0.99724734569E+00 -0.10050101783E+02  0.19927059842E+02  0.22340249827E+02  0.51100000000E-03 0. -1.
        -11    1    3    3    0    0  0.43377003045E+01  0.67043117663E+01  0.12386714271E+02  0.14737507621E+02  0.51100000000E-03 0.  1.
        -12    1    3    3    0    0  0.62264495035E+01  0.17877037312E+02 -0.29894145543E+02  0.35383853298E+02  0.00000000000E+00 0.  1.
</event>
<event>
 7    1  0.3508738E-013  0.7246157E+02  0.7816164E-02  0.1226708E+00
        -11   -1    0    0    0    0  0.00000000000E+00  0.00000000000E+00  0.45593999997E+02  0.45594000000E+02  0.51100000000E-03 0.  1.
         11   -1    0    0    0    0 -0.00000000000E+00 -0.00000000000E+00 -0.45593999997E+02  0.45594000000E+02  0.51100000000E-03 0. -1.
    9900012    2    1    2    0    0  0.76222968451E+01 -0.62577929684E+01 -0.15919162428E+02  0.72461571765E+02  0.70000001916E+02 0.  0.
        -12    1    1    2    0    0 -0.76222968451E+01  0.62577929684E+01  0.15919162428E+02  0.18726428235E+02  0.00000000000E+00 0.  1.
         11    1    3    3    0    0  0.97148602225E+01 -0.67880541630E+01 -0.71167378577E+01  0.13824042334E+02  0.51100000000E-03 0. -1.
        -11    1    3    3    0    0  0.15809503497E+02 -0.61385173225E+01  0.18639841348E+02  0.25200505580E+02  0.51100000000E-03 0.  1.
         12    1    3    3    0    0 -0.17902066874E+02  0.66687785171E+01 -0.27442265918E+02  0.33437023851E+02  0.00000000000E+00 0. -1.
</event>
<event>
 7    1  0.3508738E-013  0.7246156E+02  0.7816164E-02  0.1226708E+00
        -11   -1    0    0    0    0  0.00000000000E+00  0.00000000000E+00  0.45593999997E+02  0.45594000000E+02  0.51100000000E-03 0. -1.
         11   -1    0    0    0    0 -0.00000000000E+00 -0.00000000000E+00 -0.45593999997E+02  0.45594000000E+02  0.51100000000E-03 0.  1.
    9900012    2    1    2    0    0  0.17579789736E+02  0.65980614179E+00  0.64183425426E+01  0.72461562210E+02  0.69999989469E+02 0.  0.
        -12    1    1    2    0    0 -0.17579789736E+02 -0.65980614179E+00 -0.64183425426E+01  0.18726437790E+02  0.00000000000E+00 0.  1.
         11    1    3    3    0    0  0.17389525573E+02 -0.11031278422E+02  0.40474354821E+01  0.20987292286E+02  0.51100000000E-03 0. -1.
        -11    1    3    3    0    0  0.22512921978E+02 -0.49275369831E+01  0.47949981571E+01  0.23539419795E+02  0.51100000000E-03 0.  1.
        -12    1    3    3    0    0 -0.22322657816E+02  0.16618621547E+02 -0.24240910966E+01  0.27934850129E+02  0.00000000000E+00 0.  1.
</event>
<event>
 7    1  0.3508738E-013  0.7246155E+02  0.7816164E-02  0.1226708E+00
        -11   -1    0    0    0    0  0.00000000000E+00  0.00000000000E+00  0.45593999997E+02  0.45594000000E+02  0.51100000000E-03 0.  1.
         11   -1    0    0    0    0 -0.00000000000E+00 -0.00000000000E+00 -0.45593999997E+02  0.45594000000E+02  0.51100000000E-03 0. -1.
    9900012    2    1    2    0    0 -0.17625244778E+02  0.23430310608E+01 -0.58771593860E+01  0.72461546772E+02  0.69999969358E+02 0.  0.
        -12    1    1    2    0    0  0.17625244778E+02 -0.23430310608E+01  0.58771593860E+01  0.18726453228E+02  0.00000000000E+00 0.  1.
         11    1    3    3    0    0  0.29707824585E+01  0.11295092727E+00  0.55793277504E+01  0.63219620954E+01  0.51100000000E-03 0. -1.
        -11    1    3    3    0    0  0.10814677085E+02  0.24244606072E+02 -0.74555554787E+01  0.27574326316E+02  0.51100000000E-03 0.  1.
         12    1    3    3    0    0 -0.31410704322E+02 -0.22014525938E+02 -0.40009316577E+01  0.38565258361E+02  0.00000000000E+00 0. -1.
</event>
<event>
 7    1  0.3508738E-013  0.7246164E+02  0.7816164E-02  0.1226708E+00
        -11   -1    0    0    0    0  0.00000000000E+00  0.00000000000E+00  0.45593999997E+02  0.45594000000E+02  0.51100000000E-03 0. -1.
         11   -1    0    0    0    0 -0.00000000000E+00 -0.00000000000E+00 -0.45593999997E+02  0.45594000000E+02  0.51100000000E-03 0.  1.
    9900012    2    1    2    0    0 -0.12989542205E+02  0.96942371175E+01  0.93792483702E+01  0.72461635164E+02  0.70000084505E+02 0.  0.
        -12    1    1    2    0    0  0.12989542205E+02 -0.96942371175E+01 -0.93792483702E+01  0.18726364836E+02  0.00000000000E+00 0.  1.
         11    1    3    3    0    0  0.17995817398E+02 -0.16943911017E+02  0.11959864843E+02  0.27458767848E+02  0.51100000000E-03 0. -1.
        -11    1    3    3    0    0 -0.19847189720E+01 -0.12510633176E+01  0.35990290046E+01  0.42961935315E+01  0.51100000000E-03 0.  1.
        -12    1    3    3    0    0 -0.29000640631E+02  0.27889211452E+02 -0.61796454775E+01  0.40706673785E+02  0.00000000000E+00 0.  1.
</event>
<event>
 7    1  0.3508738E-013  0.7246156E+02  0.7816164E-02  0.1226708E+00
        -11   -1    0    0    0    0  0.00000000000E+00  0.00000000000E+00  0.45593999997E+02  0.45594000000E+02  0.51100000000E-03 0.  1.
         11   -1    0    0    0    0 -0.00000000000E+00 -0.00000000000E+00 -0.45593999997E+02  0.45594000000E+02  0.51100000000E-03 0. -1.
    9900012    2    1    2    0    0  0.18016816576E+02 -0.49003023278E+01  0.14356216412E+01  0.72461557414E+02  0.69999983221E+02 0.  0.
        -12    1    1    2    0    0 -0.18016816576E+02  0.49003023278E+01 -0.14356216412E+01  0.18726442586E+02  0.00000000000E+00 0.  1.
         11    1    3    3    0    0  0.65627757863E+01 -0.77962085818E+01 -0.30739803913E+02  0.32384972428E+02  0.51100000000E-03 0. -1.
        -11    1    3    3    0    0  0.15077696464E+01 -0.65414396435E+01  0.21172287409E+01  0.70389246138E+01  0.51100000000E-03 0.  1.
        -12    1    3    3    0    0  0.99462711429E+01  0.94373458975E+01  0.30058196813E+02  0.33037660373E+02  0.00000000000E+00 0.  1.
</event>
<event>
 7    1  0.3508738E-013  0.7246154E+02  0.7816164E-02  0.1226708E+00
        -11   -1    0    0    0    0  0.00000000000E+00  0.00000000000E+00  0.45593999997E+02  0.45594000000E+02  0.51100000000E-03 0.  1.
         11   -1    0    0    0    0 -0.00000000000E+00 -0.00000000000E+00 -0.45593999997E+02  0.45594000000E+02  0.51100000000E-03 0. -1.
    9900012    2    1    2    0    0 -0.12023889280E+01  0.12046090460E+02 -0.14287270811E+02  0.72461544336E+02  0.69999966184E+02 0.  0.
        -12    1    1    2    0    0  0.12023889280E+01 -0.12046090460E+02  0.14287270811E+02  0.18726455664E+02  0.00000000000E+00 0.  1.
         11    1    3    3    0    0 -0.16712017476E+02  0.80705932423E+00  0.13910522925E+02  0.21758803303E+02  0.51100000000E-03 0. -1.
        -11    1    3    3    0    0 -0.33844616432E+01 -0.97805136479E+01  0.58162663245E+00  0.10365872738E+02  0.51100000000E-03 0.  1.
         12    1    3    3    0    0  0.18894090191E+02  0.21019544784E+02 -0.28779420368E+02  0.40336868295E+02  0.00000000000E+00 0. -1.
</event>
<event>
 7    1  0.3508738E-013  0.7246159E+02  0.7816164E-02  0.1226708E+00
        -11   -1    0    0    0    0  0.00000000000E+00  0.00000000000E+00  0.45593999997E+02  0.45594000000E+02  0.51100000000E-03 0.  1.
         11   -1    0    0    0    0 -0.00000000000E+00 -0.00000000000E+00 -0.45593999997E+02  0.45594000000E+02  0.51100000000E-03 0. -1.
    9900012    2    1    2    0    0  0.74076249111E+01  0.94064997232E+01 -0.14398724924E+02  0.72461590219E+02  0.70000025955E+02 0.  0.
        -12    1    1    2    0    0 -0.74076249111E+01 -0.94064997232E+01  0.14398724924E+02  0.18726409781E+02  0.00000000000E+00 0.  1.
         11    1    3    3    0    0 -0.77082931866E+01 -0.88160453557E+01 -0.17100678633E+02  0.20726158581E+02  0.51100000000E-03 0. -1.
        -11    1    3    3    0    0 -0.10177975821E+02 -0.95176099609E+01 -0.12330327947E+01  0.13989155132E+02  0.51100000000E-03 0.  1.
        -12    1    3    3    0    0  0.25293893919E+02  0.27740155040E+02  0.39349865037E+01  0.37746276505E+02  0.00000000000E+00 0.  1.
</event>
<event>
 7    1  0.3508738E-013  0.7246160E+02  0.7816164E-02  0.1226708E+00
        -11   -1    0    0    0    0  0.00000000000E+00  0.00000000000E+00  0.45593999997E+02  0.45594000000E+02  0.51100000000E-03 0.  1.
         11   -1    0    0    0    0 -0.00000000000E+00 -0.00000000000E+00 -0.45593999997E+02  0.45594000000E+02  0.51100000000E-03 0. -1.
    9900012    2    1    2    0    0  0.16390053997E+02 -0.83445235831E+01  0.35232062418E+01  0.72461603495E+02  0.70000043250E+02 0.  0.
        -12    1    1    2    0    0 -0.16390053997E+02  0.83445235831E+01 -0.35232062418E+01  0.18726396505E+02  0.00000000000E+00 0.  1.
         11    1    3    3    0    0 -0.25858739423E+00  0.10373885895E+01 -0.46847534639E+01  0.48052011201E+01  0.51100000000E-03 0. -1.
        -11    1    3    3    0    0  0.18152149946E+02  0.22883289077E+02  0.17495321281E+02  0.34047492325E+02  0.51100000000E-03 0.  1.
         12    1    3    3    0    0 -0.15035085550E+01 -0.32265201250E+02 -0.92873615753E+01  0.33608910049E+02  0.00000000000E+00 0. -1.
</event>
<event>
 7    1  0.3508738E-013  0.7246159E+02  0.7816164E-02  0.1226708E+00
        -11   -1    0    0    0    0  0.00000000000E+00  0.00000000000E+00  0.45593999997E+02  0.45594000000E+02  0.51100000000E-03 0.  1.
         11   -1    0    0    0    0 -0.00000000000E+00 -0.00000000000E+00 -0.45593999997E+02  0.45594000000E+02  0.51100000000E-03 0. -1.
    9900012    2    1    2    0    0  0.40633984663E+01 -0.18141454179E+02 -0.22482746465E+01  0.72461593359E+02  0.70000030046E+02 0.  0.
        -12    1    1    2    0    0 -0.40633984663E+01  0.18141454179E+02  0.22482746465E+01  0.18726406641E+02  0.00000000000E+00 0.  1.
         11    1    3    3    0    0  0.42569701521E+01 -0.98446468599E+01  0.38127835920E+01  0.11383153590E+02  0.51100000000E-03 0. -1.
        -11    1    3    3    0    0 -0.87862117277E+01 -0.32557898055E+02  0.28472244535E+01  0.33842590468E+02  0.51100000000E-03 0.  1.
         12    1    3    3    0    0  0.85926400419E+01  0.24261090736E+02 -0.89082826920E+01  0.27235849300E+02  0.00000000000E+00 0. -1.
</event>
<event>
 7    1  0.3508738E-013  0.7246192E+02  0.7816164E-02  0.1226707E+00
        -11   -1    0    0    0    0  0.00000000000E+00  0.00000000000E+00  0.45593999997E+02  0.45594000000E+02  0.51100000000E-03 0.  1.
         11   -1    0    0    0    0 -0.00000000000E+00 -0.00000000000E+00 -0.45593999997E+02  0.45594000000E+02  0.51100000000E-03 0. -1.
    9900012    2    1    2    0    0 -0.11757942132E+02 -0.50398751671E+01 -0.13675395843E+02  0.72461922024E+02  0.70000458192E+02 0.  0.
        -12    1    1    2    0    0  0.11757942132E+02  0.50398751671E+01  0.13675395843E+02  0.18726077976E+02  0.00000000000E+00 0.  1.
         11    1    3    3    0    0  0.51247043962E+01 -0.20817070661E+02 -0.22450915375E+02  0.31042819258E+02  0.51100000000E-03 0. -1.
        -11    1    3    3    0    0  0.90059230136E+01  0.52067151606E+00 -0.24393021103E+01  0.93449421186E+01  0.51100000000E-03 0.  1.
        -12    1    3    3    0    0 -0.25888569542E+02  0.15256523978E+02  0.11214821642E+02  0.32074160648E+02  0.00000000000E+00 0.  1.
</event>
<event>
 7    1  0.3508738E-013  0.7246151E+02  0.7816164E-02  0.1226708E+00
        -11   -1    0    0    0    0  0.00000000000E+00  0.00000000000E+00  0.45593999997E+02  0.45594000000E+02  0.51100000000E-03 0.  1.
         11   -1    0    0    0    0 -0.00000000000E+00 -0.00000000000E+00 -0.45593999997E+02  0.45594000000E+02  0.51100000000E-03 0. -1.
    9900012    2    1    2    0    0 -0.64476310277E+01 -0.17553704399E+02  0.98844478348E+00  0.72461507881E+02  0.69999918694E+02 0.  0.
        -12    1    1    2    0    0  0.64476310277E+01  0.17553704399E+02 -0.98844478348E+00  0.18726492119E+02  0.00000000000E+00 0.  1.
         11    1    3    3    0    0 -0.43055974645E+00 -0.18967651305E+02 -0.21907706312E+02  0.28981110639E+02  0.51100000000E-03 0. -1.
        -11    1    3    3    0    0 -0.10451227589E+02  0.15435525759E+02  0.21873243500E+02  0.28738865583E+02  0.51100000000E-03 0.  1.
         12    1    3    3    0    0  0.44341563074E+01 -0.14021578853E+02  0.10229075958E+01  0.14741531658E+02  0.00000000000E+00 0. -1.
</event>
<event>
 7    1  0.3508738E-013  0.7246137E+02  0.7816164E-02  0.1226709E+00
        -11   -1    0    0    0    0  0.00000000000E+00  0.00000000000E+00  0.45593999997E+02  0.45594000000E+02  0.51100000000E-03 0.  1.
         11   -1    0    0    0    0 -0.00000000000E+00 -0.00000000000E+00 -0.45593999997E+02  0.45594000000E+02  0.51100000000E-03 0. -1.
    9900012    2    1    2    0    0  0.11623144510E+02  0.12806943181E+02 -0.71813167290E+01  0.72461372116E+02  0.69999741836E+02 0.  0.
        -12    1    1    2    0    0 -0.11623144510E+02 -0.12806943181E+02  0.71813167290E+01  0.18726627884E+02  0.00000000000E+00 0.  1.
         11    1    3    3    0    0  0.92767533236E+01 -0.43422214079E+01 -0.55639563580E+01  0.11656356618E+02  0.51100000000E-03 0.  1.
        -11    1    3    3    0    0 -0.14026419300E+02  0.17739221269E+02  0.22335462850E+02  0.31785111461E+02  0.51100000000E-03 0. -1.
         12    1    3    3    0    0  0.16372810486E+02 -0.59005667988E+00 -0.23952823221E+02  0.29019904038E+02  0.00000000000E+00 0. -1.
</event>
<event>
 7    1  0.3508738E-013  0.7246168E+02  0.7816164E-02  0.1226708E+00
        -11   -1    0    0    0    0  0.00000000000E+00  0.00000000000E+00  0.45593999997E+02  0.45594000000E+02  0.51100000000E-03 0.  1.
         11   -1    0    0    0    0 -0.00000000000E+00 -0.00000000000E+00 -0.45593999997E+02  0.45594000000E+02  0.51100000000E-03 0. -1.
    9900012    2    1    2    0    0  0.13075799041E+02 -0.12143802416E+02 -0.56768589962E+01  0.72461676663E+02  0.70000138565E+02 0.  0.
        -12    1    1    2    0    0 -0.13075799041E+02  0.12143802416E+02  0.56768589962E+01  0.18726323337E+02  0.00000000000E+00 0.  1.
         11    1    3    3    0    0 -0.17470702138E+02 -0.21341205055E+02 -0.95740856554E+01  0.29194786911E+02  0.51100000000E-03 0. -1.
        -11    1    3    3    0    0 -0.40202811032E+01  0.74675112381E+01  0.74710919271E+00  0.85137862697E+01  0.51100000000E-03 0.  1.
        -12    1    3    3    0    0  0.34566782282E+02  0.17298914011E+01  0.31501174665E+01  0.34753103482E+02  0.00000000000E+00 0.  1.
</event>
<event>
 7    1  0.3508738E-013  0.7246158E+02  0.7816164E-02  0.1226708E+00
        -11   -1    0    0    0    0  0.00000000000E+00  0.00000000000E+00  0.45593999997E+02  0.45594000000E+02  0.51100000000E-03 0. -1.
         11   -1    0    0    0    0 -0.00000000000E+00 -0.00000000000E+00 -0.45593999997E+02  0.45594000000E+02  0.51100000000E-03 0.  1.
    9900012    2    1    2    0    0 -0.53368767898E+01 -0.14107881960E+02  0.11097931458E+02  0.72461583634E+02  0.70000017377E+02 0.  0.
        -12    1    1    2    0    0  0.53368767898E+01  0.14107881960E+02 -0.11097931458E+02  0.18726416366E+02  0.00000000000E+00 0.  1.
         11    1    3    3    0    0  0.96778821301E+01  0.97528832807E+01  0.10891393150E+02  0.17532899926E+02  0.51100000000E-03 0. -1.
        -11    1    3    3    0    0 -0.31032318246E+02 -0.73912692196E+01 -0.10796738828E+01  0.31918667459E+02  0.51100000000E-03 0.  1.
         12    1    3    3    0    0  0.16017559326E+02 -0.16469496021E+02  0.12862121912E+01  0.23010016249E+02  0.00000000000E+00 0. -1.
</event>
<event>
 7    1  0.3508738E-013  0.7246149E+02  0.7816164E-02  0.1226708E+00
        -11   -1    0    0    0    0  0.00000000000E+00  0.00000000000E+00  0.45593999997E+02  0.45594000000E+02  0.51100000000E-03 0.  1.
         11   -1    0    0    0    0 -0.00000000000E+00 -0.00000000000E+00 -0.45593999997E+02  0.45594000000E+02  0.51100000000E-03 0. -1.
    9900012    2    1    2    0    0  0.19096087390E+00 -0.14187355435E+02 -0.12221477332E+02  0.72461493960E+02  0.69999900560E+02 0.  0.
        -12    1    1    2    0    0 -0.19096087390E+00  0.14187355435E+02  0.12221477332E+02  0.18726506040E+02  0.00000000000E+00 0.  1.
         11    1    3    3    0    0  0.16491754807E+02  0.16267931345E+02 -0.20640892544E+02  0.31026923988E+02  0.51100000000E-03 0. -1.
        -11    1    3    3    0    0 -0.57699170749E+01  0.10102917622E+01 -0.26863187179E+01  0.64442952300E+01  0.51100000000E-03 0.  1.
        -12    1    3    3    0    0 -0.10530876858E+02 -0.31465578542E+02  0.11105733931E+02  0.34990274742E+02  0.00000000000E+00 0.  1.
</event>
<event>
 7    1  0.3508738E-013  0.7246156E+02  0.7816164E-02  0.1226708E+00
        -11   -1    0    0    0    0  0.00000000000E+00  0.00000000000E+00  0.45593999997E+02  0.45594000000E+02  0.51100000000E-03 0. -1.
         11   -1    0    0    0    0 -0.00000000000E+00 -0.00000000000E+00 -0.45593999997E+02  0.45594000000E+02  0.51100000000E-03 0.  1.
    9900012    2    1    2    0    0  0.17960519810E+02 -0.23553546513E+01 -0.47488701416E+01  0.72461555196E+02  0.69999980331E+02 0.  0.
        -12    1    1    2    0    0 -0.17960519810E+02  0.23553546513E+01  0.47488701416E+01  0.18726444804E+02  0.00000000000E+00 0.  1.
         11    1    3    3    0    0 -0.27538358754E+01 -0.29462738487E+02  0.81438584897E+01  0.30691350615E+02  0.51100000000E-03 0. -1.
        -11    1    3    3    0    0 -0.28183317284E+01 -0.90964523945E+00 -0.20737473969E+01  0.36153667477E+01  0.51100000000E-03 0.  1.
        -12    1    3    3    0    0  0.23532687414E+02  0.28017029075E+02 -0.10818981235E+02  0.38154837833E+02  0.00000000000E+00 0.  1.
</event>
<event>
 7    1  0.3508738E-013  0.7246164E+02  0.7816164E-02  0.1226708E+00
        -11   -1    0    0    0    0  0.00000000000E+00  0.00000000000E+00  0.45593999997E+02  0.45594000000E+02  0.51100000000E-03 0. -1.
         11   -1    0    0    0    0 -0.00000000000E+00 -0.00000000000E+00 -0.45593999997E+02  0.45594000000E+02  0.51100000000E-03 0.  1.
    9900012    2    1    2    0    0  0.18185572059E+02  0.66498262174E+00  0.44180514608E+01  0.72461643929E+02  0.70000095922E+02 0.  0.
        -12    1    1    2    0    0 -0.18185572059E+02 -0.66498262174E+00 -0.44180514608E+01  0.18726356071E+02  0.00000000000E+00 0.  1.
         11    1    3    3    0    0  0.68708015074E+01  0.14016417384E+02  0.12561618902E+02  0.20036520140E+02  0.51100000000E-03 0. -1.
        -11    1    3    3    0    0 -0.32324756610E+01  0.10296595702E+02  0.13455561930E+02  0.17248795003E+02  0.51100000000E-03 0.  1.
        -12    1    3    3    0    0  0.14547246213E+02 -0.23648030464E+02 -0.21599129371E+02  0.35176328785E+02  0.00000000000E+00 0.  1.
</event>
<event>
 7    1  0.3508738E-013  0.7246160E+02  0.7816164E-02  0.1226708E+00
        -11   -1    0    0    0    0  0.00000000000E+00  0.00000000000E+00  0.45593999997E+02  0.45594000000E+02  0.51100000000E-03 0. -1.
         11   -1    0    0    0    0 -0.00000000000E+00 -0.00000000000E+00 -0.45593999997E+02  0.45594000000E+02  0.51100000000E-03 0.  1.
    9900012    2    1    2    0    0  0.19359241627E+01 -0.61081811040E+01  0.17596033329E+02  0.72461599714E+02  0.70000038324E+02 0.  0.
        -12    1    1    2    0    0 -0.19359241627E+01  0.61081811040E+01 -0.17596033329E+02  0.18726400286E+02  0.00000000000E+00 0.  1.
         11    1    3    3    0    0  0.18429575449E+02  0.24011625440E+01 -0.12160819607E+02  0.22210366196E+02  0.51100000000E-03 0.  1.
        -11    1    3    3    0    0  0.78739267706E+01  0.62003541852E+01  0.14819389282E+01  0.10131103497E+02  0.51100000000E-03 0. -1.
         12    1    3    3    0    0 -0.24367578057E+02 -0.14709697833E+02  0.28274914008E+02  0.40120130021E+02  0.00000000000E+00 0. -1.
</event>
<event>
 7    1  0.3508738E-013  0.7246159E+02  0.7816164E-02  0.1226708E+00
        -11   -1    0    0    0    0  0.00000000000E+00  0.00000000000E+00  0.45593999997E+02  0.45594000000E+02  0.51100000000E-03 0.  1.
         11   -1    0    0    0    0 -0.00000000000E+00 -0.00000000000E+00 -0.45593999997E+02  0.45594000000E+02  0.51100000000E-03 0. -1.
    9900012    2    1    2    0    0 -0.52114938722E+01 -0.16818275481E+02  0.63768502458E+01  0.72461594109E+02  0.70000031024E+02 0.  0.
        -12    1    1    2    0    0  0.52114938722E+01  0.16818275481E+02 -0.63768502458E+01  0.18726405891E+02  0.00000000000E+00 0.  1.
         11    1    3    3    0    0  0.36137829881E+01 -0.13610641329E+02 -0.10154390164E+02  0.17361469545E+02  0.51100000000E-03 0. -1.
        -11    1    3    3    0    0  0.18080238168E+02 -0.11140545296E+02 -0.22300121442E+01  0.21353681559E+02  0.51100000000E-03 0.  1.
         12    1    3    3    0    0 -0.26905515028E+02  0.79329111444E+01  0.18761252554E+02  0.33746443006E+02  0.00000000000E+00 0. -1.
</event>
<event>
 7    1  0.3508738E-013  0.7246156E+02  0.7816164E-02  0.1226708E+00
        -11   -1    0    0    0    0  0.00000000000E+00  0.00000000000E+00  0.45593999997E+02  0.45594000000E+02  0.51100000000E-03 0.  1.
         11   -1    0    0    0    0 -0.00000000000E+00 -0.00000000000E+00 -0.45593999997E+02  0.45594000000E+02  0.51100000000E-03 0. -1.
    9900012    2    1    2    0    0  0.16992080049E+02  0.47587933021E+01  0.62691874515E+01  0.72461558550E+02  0.69999984700E+02 0.  0.
        -12    1    1    2    0    0 -0.16992080049E+02 -0.47587933021E+01 -0.62691874515E+01  0.18726441450E+02  0.00000000000E+00 0.  1.
         11    1    3    3    0    0  0.23203442221E+02  0.30686002116E+01  0.47554478975E+01  0.23883683199E+02  0.51100000000E-03 0. -1.
        -11    1    3    3    0    0 -0.71921658716E+01  0.20928898574E+02  0.13468192036E+02  0.25906335952E+02  0.51100000000E-03 0.  1.
         12    1    3    3    0    0  0.98080369980E+00 -0.19238705484E+02 -0.11954452482E+02  0.22671539399E+02  0.00000000000E+00 0. -1.
</event>
<event>
 7    1  0.3508738E-013  0.7246159E+02  0.7816164E-02  0.1226708E+00
        -11   -1    0    0    0    0  0.00000000000E+00  0.00000000000E+00  0.45593999997E+02  0.45594000000E+02  0.51100000000E-03 0. -1.
         11   -1    0    0    0    0 -0.00000000000E+00 -0.00000000000E+00 -0.45593999997E+02  0.45594000000E+02  0.51100000000E-03 0.  1.
    9900012    2    1    2    0    0 -0.60580368609E+01 -0.12644744982E+02  0.12413254336E+02  0.72461594326E+02  0.70000031305E+02 0.  0.
        -12    1    1    2    0    0  0.60580368609E+01  0.12644744982E+02 -0.12413254336E+02  0.18726405674E+02  0.00000000000E+00 0.  1.
         11    1    3    3    0    0  0.18104004006E+01  0.17628523936E+02  0.35217283357E+01  0.18067788368E+02  0.51100000000E-03 0. -1.
        -11    1    3    3    0    0  0.97346882562E+01 -0.30368333362E+02  0.15667592087E+02  0.35531299845E+02  0.51100000000E-03 0.  1.
         12    1    3    3    0    0 -0.17603125518E+02  0.95064444448E-01 -0.67760660867E+01  0.18862506113E+02  0.00000000000E+00 0. -1.
</event>
<event>
 7    1  0.3508738E-013  0.7246150E+02  0.7816164E-02  0.1226708E+00
        -11   -1    0    0    0    0  0.00000000000E+00  0.00000000000E+00  0.45593999997E+02  0.45594000000E+02  0.51100000000E-03 0.  1.
         11   -1    0    0    0    0 -0.00000000000E+00 -0.00000000000E+00 -0.45593999997E+02  0.45594000000E+02  0.51100000000E-03 0. -1.
    9900012    2    1    2    0    0 -0.12155830477E+02 -0.11977947129E+02 -0.77101404104E+01  0.72461502806E+02  0.69999912084E+02 0.  0.
        -12    1    1    2    0    0  0.12155830477E+02  0.11977947129E+02  0.77101404104E+01  0.18726497194E+02  0.00000000000E+00 0.  1.
         11    1    3    3    0    0 -0.24834170576E+02  0.11624567530E+02 -0.32975479621E+01  0.27617755544E+02  0.51100000000E-03 0. -1.
        -11    1    3    3    0    0  0.30992549156E+01  0.55741752108E+01  0.92475952052E+01  0.11233647122E+02  0.51100000000E-03 0.  1.
        -12    1    3    3    0    0  0.95790851842E+01 -0.29176689870E+02 -0.13660187653E+02  0.33610100140E+02  0.00000000000E+00 0.  1.
</event>
<event>
 7    1  0.3508738E-013  0.7246165E+02  0.7816164E-02  0.1226708E+00
        -11   -1    0    0    0    0  0.00000000000E+00  0.00000000000E+00  0.45593999997E+02  0.45594000000E+02  0.51100000000E-03 0.  1.
         11   -1    0    0    0    0 -0.00000000000E+00 -0.00000000000E+00 -0.45593999997E+02  0.45594000000E+02  0.51100000000E-03 0. -1.
    9900012    2    1    2    0    0 -0.95114675022E+01  0.53099009684E+01 -0.15231973345E+02  0.72461652937E+02  0.70000107658E+02 0.  0.
        -12    1    1    2    0    0  0.95114675022E+01 -0.53099009684E+01  0.15231973345E+02  0.18726347063E+02  0.00000000000E+00 0.  1.
         11    1    3    3    0    0 -0.94937279315E+01  0.28705796840E+02 -0.18487534217E+01  0.30291443210E+02  0.51100000000E-03 0. -1.
        -11    1    3    3    0    0 -0.77327452243E+01 -0.10707765838E+02  0.85128407920E+01  0.15713690100E+02  0.51100000000E-03 0.  1.
        -12    1    3    3    0    0  0.77150056537E+01 -0.12688130034E+02 -0.21896060715E+02  0.26456519628E+02  0.00000000000E+00 0.  1.
</event>
<event>
 7    1  0.3508738E-013  0.7246156E+02  0.7816164E-02  0.1226708E+00
        -11   -1    0    0    0    0  0.00000000000E+00  0.00000000000E+00  0.45593999997E+02  0.45594000000E+02  0.51100000000E-03 0.  1.
         11   -1    0    0    0    0 -0.00000000000E+00 -0.00000000000E+00 -0.45593999997E+02  0.45594000000E+02  0.51100000000E-03 0. -1.
    9900012    2    1    2    0    0  0.73911892215E+01 -0.67204158573E+01 -0.15839372871E+02  0.72461564131E+02  0.69999991972E+02 0.  0.
        -12    1    1    2    0    0 -0.73911892215E+01  0.67204158573E+01  0.15839372871E+02  0.18726435869E+02  0.00000000000E+00 0.  1.
         11    1    3    3    0    0 -0.73756280537E+01  0.60470227299E+01 -0.64428019344E+00  0.95593655810E+01  0.51100000000E-03 0. -1.
        -11    1    3    3    0    0  0.60449113873E+01 -0.19859412436E+02  0.18236267781E+02  0.27631479852E+02  0.51100000000E-03 0.  1.
         12    1    3    3    0    0  0.87219058880E+01  0.70919738490E+01 -0.33431360458E+02  0.35270718698E+02  0.00000000000E+00 0. -1.
</event>
<event>
 7    1  0.3508738E-013  0.7246156E+02  0.7816164E-02  0.1226708E+00
        -11   -1    0    0    0    0  0.00000000000E+00  0.00000000000E+00  0.45593999997E+02  0.45594000000E+02  0.51100000000E-03 0.  1.
         11   -1    0    0    0    0 -0.00000000000E+00 -0.00000000000E+00 -0.45593999997E+02  0.45594000000E+02  0.51100000000E-03 0. -1.
    9900012    2    1    2    0    0  0.10606262233E+02 -0.15351085256E+02  0.15908563558E+01  0.72461563044E+02  0.69999990556E+02 0.  0.
        -12    1    1    2    0    0 -0.10606262233E+02  0.15351085256E+02 -0.15908563558E+01  0.18726436956E+02  0.00000000000E+00 0.  1.
         11    1    3    3    0    0 -0.10527958414E+02 -0.17537494606E+01 -0.88051663828E+01  0.13836347092E+02  0.51100000000E-03 0. -1.
        -11    1    3    3    0    0  0.26656181972E+02 -0.24784130329E+02 -0.71526614965E+01  0.37094011919E+02  0.51100000000E-03 0.  1.
         12    1    3    3    0    0 -0.55219613243E+01  0.11186794533E+02  0.17548684235E+02  0.21531204034E+02  0.00000000000E+00 0. -1.
</event>
<event>
 7    1  0.3508738E-013  0.7246152E+02  0.7816164E-02  0.1226708E+00
        -11   -1    0    0    0    0  0.00000000000E+00  0.00000000000E+00  0.45593999997E+02  0.45594000000E+02  0.51100000000E-03 0. -1.
         11   -1    0    0    0    0 -0.00000000000E+00 -0.00000000000E+00 -0.45593999997E+02  0.45594000000E+02  0.51100000000E-03 0.  1.
    9900012    2    1    2    0    0 -0.17664560903E+02 -0.48963042643E+01 -0.38302210718E+01  0.72461518728E+02  0.69999932826E+02 0.  0.
        -12    1    1    2    0    0  0.17664560903E+02  0.48963042643E+01  0.38302210718E+01  0.18726481272E+02  0.00000000000E+00 0.  1.
         11    1    3    3    0    0 -0.94850941909E+01 -0.19234580712E+01  0.20555230705E+01  0.98940324497E+01  0.51100000000E-03 0. -1.
        -11    1    3    3    0    0 -0.25823550842E+02 -0.95070354618E+01 -0.23952747313E+02  0.36482510953E+02  0.51100000000E-03 0.  1.
        -12    1    3    3    0    0  0.17644084129E+02  0.65341892687E+01  0.18067003170E+02  0.26084975325E+02  0.00000000000E+00 0.  1.
</event>
<event>
 7    1  0.3508738E-013  0.7246159E+02  0.7816164E-02  0.1226708E+00
        -11   -1    0    0    0    0  0.00000000000E+00  0.00000000000E+00  0.45593999997E+02  0.45594000000E+02  0.51100000000E-03 0.  1.
         11   -1    0    0    0    0 -0.00000000000E+00 -0.00000000000E+00 -0.45593999997E+02  0.45594000000E+02  0.51100000000E-03 0. -1.
    9900012    2    1    2    0    0  0.67969099130E+01 -0.68449259968E+01 -0.16050780926E+02  0.72461586446E+02  0.70000021040E+02 0.  0.
        -12    1    1    2    0    0 -0.67969099130E+01  0.68449259968E+01  0.16050780926E+02  0.18726413554E+02  0.00000000000E+00 0.  1.
         11    1    3    3    0    0  0.18389809023E+02  0.13633281580E+02 -0.26806680894E+02  0.35251235204E+02  0.51100000000E-03 0. -1.
        -11    1    3    3    0    0  0.56168942299E+01  0.29424716777E+01  0.38862795359E+00  0.63528475750E+01  0.51100000000E-03 0.  1.
         12    1    3    3    0    0 -0.17209793340E+02 -0.23420679254E+02  0.10367272015E+02  0.30857503667E+02  0.00000000000E+00 0. -1.
</event>
