<event>
 7    1  0.2598019E-009  0.4778727E+02  0.7816164E-02  0.1312668E+00
        -11   -1    0    0    0    0  0.00000000000E+00  0.00000000000E+00  0.45593999997E+02  0.45594000000E+02  0.51100000000E-03 0.  1.
         11   -1    0    0    0    0 -0.00000000000E+00 -0.00000000000E+00 -0.45593999997E+02  0.45594000000E+02  0.51100000000E-03 0. -1.
    9900012    2    1    2    0    0 -0.33329953576E+02 -0.32586934437E+01 -0.27606497063E+02  0.47787267651E+02  0.19999984530E+02 0.  0.
        -12    1    1    2    0    0  0.33329953576E+02  0.32586934437E+01  0.27606497063E+02  0.43400732349E+02  0.00000000000E+00 0.  1.
         11    1    3    3    0    0 -0.94891011913E+01  0.73387831671E+01 -0.12326283121E+02  0.17199942896E+02  0.51100000000E-03 0. -1.
        -11    1    3    3    0    0 -0.13543297329E+02 -0.37196490828E+01 -0.70161122950E+01  0.15699761904E+02  0.51100000000E-03 0.  1.
         12    1    3    3    0    0 -0.10297555055E+02 -0.68778275280E+01 -0.82641016467E+01  0.14887562851E+02  0.00000000000E+00 0. -1.
</event>
<event>
 7    1  0.2598019E-009  0.4778727E+02  0.7816164E-02  0.1312668E+00
        -11   -1    0    0    0    0  0.00000000000E+00  0.00000000000E+00  0.45593999997E+02  0.45594000000E+02  0.51100000000E-03 0.  1.
         11   -1    0    0    0    0 -0.00000000000E+00 -0.00000000000E+00 -0.45593999997E+02  0.45594000000E+02  0.51100000000E-03 0. -1.
    9900012    2    1    2    0    0 -0.34247344034E+02  0.16886534275E+02 -0.20629775684E+02  0.47787271228E+02  0.20000000836E+02 0.  0.
        -12    1    1    2    0    0  0.34247344034E+02 -0.16886534275E+02  0.20629775684E+02  0.43400728772E+02  0.00000000000E+00 0.  1.
         11    1    3    3    0    0 -0.87674892618E+01  0.67253164025E+01 -0.37363076881E+01  0.11664422149E+02  0.51100000000E-03 0. -1.
        -11    1    3    3    0    0 -0.25153687057E+02  0.94084779431E+01 -0.19630603473E+02  0.33265417820E+02  0.51100000000E-03 0.  1.
        -12    1    3    3    0    0 -0.32616771578E+00  0.75273992922E+00  0.27371354773E+01  0.28574312592E+01  0.00000000000E+00 0.  1.
</event>
<event>
 7    1  0.2598019E-009  0.4778727E+02  0.7816164E-02  0.1312668E+00
        -11   -1    0    0    0    0  0.00000000000E+00  0.00000000000E+00  0.45593999997E+02  0.45594000000E+02  0.51100000000E-03 0.  1.
         11   -1    0    0    0    0 -0.00000000000E+00 -0.00000000000E+00 -0.45593999997E+02  0.45594000000E+02  0.51100000000E-03 0. -1.
    9900012    2    1    2    0    0  0.38167971705E+02 -0.64644296559E+01 -0.19622438177E+02  0.47787274259E+02  0.20000014655E+02 0.  0.
        -12    1    1    2    0    0 -0.38167971705E+02  0.64644296559E+01  0.19622438177E+02  0.43400725741E+02  0.00000000000E+00 0.  1.
         11    1    3    3    0    0  0.30595373237E+02 -0.37677544940E+01 -0.14075720499E+02  0.33888032479E+02  0.51100000000E-03 0. -1.
        -11    1    3    3    0    0 -0.26859526889E+00 -0.92836135113E+00  0.24053950236E+01  0.25922815621E+01  0.51100000000E-03 0.  1.
         12    1    3    3    0    0  0.78411937369E+01 -0.17683138108E+01 -0.79521127016E+01  0.11306960218E+02  0.00000000000E+00 0. -1.
</event>
<event>
 7    1  0.2598019E-009  0.4778727E+02  0.7816164E-02  0.1312668E+00
        -11   -1    0    0    0    0  0.00000000000E+00  0.00000000000E+00  0.45593999997E+02  0.45594000000E+02  0.51100000000E-03 0. -1.
         11   -1    0    0    0    0 -0.00000000000E+00 -0.00000000000E+00 -0.45593999997E+02  0.45594000000E+02  0.51100000000E-03 0.  1.
    9900012    2    1    2    0    0 -0.26495173144E+02  0.32586413454E+02  0.10943244273E+02  0.47787272622E+02  0.20000007195E+02 0.  0.
        -12    1    1    2    0    0  0.26495173144E+02 -0.32586413454E+02 -0.10943244273E+02  0.43400727378E+02  0.00000000000E+00 0.  1.
         11    1    3    3    0    0 -0.25779198317E+01  0.90552329947E+01  0.34281242428E+01  0.10019728107E+02  0.51100000000E-03 0. -1.
        -11    1    3    3    0    0  0.22144691885E+01  0.75971703108E+00  0.26518895382E+00  0.23561343758E+01  0.51100000000E-03 0.  1.
        -12    1    3    3    0    0 -0.26131722501E+02  0.22771463428E+02  0.72499310759E+01  0.35411410140E+02  0.00000000000E+00 0.  1.
</event>
<event>
 7    1  0.2598019E-009  0.4778727E+02  0.7816164E-02  0.1312668E+00
        -11   -1    0    0    0    0  0.00000000000E+00  0.00000000000E+00  0.45593999997E+02  0.45594000000E+02  0.51100000000E-03 0. -1.
         11   -1    0    0    0    0 -0.00000000000E+00 -0.00000000000E+00 -0.45593999997E+02  0.45594000000E+02  0.51100000000E-03 0.  1.
    9900012    2    1    2    0    0  0.39107219768E+02 -0.13246764059E+02  0.13370557699E+02  0.47787271790E+02  0.20000003397E+02 0.  0.
        -12    1    1    2    0    0 -0.39107219768E+02  0.13246764059E+02 -0.13370557699E+02  0.43400728210E+02  0.00000000000E+00 0.  1.
         11    1    3    3    0    0  0.10769752077E+02  0.25789010519E+01  0.21269595137E+01  0.11276623940E+02  0.51100000000E-03 0. -1.
        -11    1    3    3    0    0  0.58496516472E+01  0.34685072719E+00 -0.14571013664E+01  0.60383668714E+01  0.51100000000E-03 0.  1.
         12    1    3    3    0    0  0.22487816043E+02 -0.16172515838E+02  0.12700699551E+02  0.30472280978E+02  0.00000000000E+00 0. -1.
</event>
<event>
 7    1  0.2598019E-009  0.4778727E+02  0.7816164E-02  0.1312668E+00
        -11   -1    0    0    0    0  0.00000000000E+00  0.00000000000E+00  0.45593999997E+02  0.45594000000E+02  0.51100000000E-03 0.  1.
         11   -1    0    0    0    0 -0.00000000000E+00 -0.00000000000E+00 -0.45593999997E+02  0.45594000000E+02  0.51100000000E-03 0. -1.
    9900012    2    1    2    0    0 -0.41934529921E+02  0.24872122308E+01 -0.10905617601E+02  0.47787268213E+02  0.19999987092E+02 0.  0.
        -12    1    1    2    0    0  0.41934529921E+02 -0.24872122308E+01  0.10905617601E+02  0.43400731787E+02  0.00000000000E+00 0.  1.
         11    1    3    3    0    0 -0.48259477850E+01  0.62518606027E+01 -0.37555372555E+01  0.87452611943E+01  0.51100000000E-03 0.  1.
        -11    1    3    3    0    0  0.40969245785E+00  0.13128828428E+00  0.38431723043E+00  0.57687478566E+00  0.51100000000E-03 0. -1.
         12    1    3    3    0    0 -0.37518274594E+02 -0.38959366562E+01 -0.75343975757E+01  0.38465132233E+02  0.00000000000E+00 0. -1.
</event>
<event>
 7    1  0.2598019E-009  0.4778729E+02  0.7816164E-02  0.1312668E+00
        -11   -1    0    0    0    0  0.00000000000E+00  0.00000000000E+00  0.45593999997E+02  0.45594000000E+02  0.51100000000E-03 0. -1.
         11   -1    0    0    0    0 -0.00000000000E+00 -0.00000000000E+00 -0.45593999997E+02  0.45594000000E+02  0.51100000000E-03 0.  1.
    9900012    2    1    2    0    0 -0.33986212668E+02  0.18827815690E+02  0.19340953269E+02  0.47787288387E+02  0.20000079071E+02 0.  0.
        -12    1    1    2    0    0  0.33986212668E+02 -0.18827815690E+02 -0.19340953269E+02  0.43400711613E+02  0.00000000000E+00 0.  1.
         11    1    3    3    0    0 -0.10574599660E+02 -0.21788770987E+01  0.84196793193E+01  0.13691627496E+02  0.51100000000E-03 0. -1.
        -11    1    3    3    0    0 -0.14767097306E+02  0.17545086983E+02  0.86606431495E+01  0.24513342900E+02  0.51100000000E-03 0.  1.
         12    1    3    3    0    0 -0.86445157017E+01  0.34616058055E+01  0.22606308006E+01  0.95823179913E+01  0.00000000000E+00 0. -1.
</event>
<event>
 7    1  0.2598019E-009  0.4778727E+02  0.7816164E-02  0.1312668E+00
        -11   -1    0    0    0    0  0.00000000000E+00  0.00000000000E+00  0.45593999997E+02  0.45594000000E+02  0.51100000000E-03 0.  1.
         11   -1    0    0    0    0 -0.00000000000E+00 -0.00000000000E+00 -0.45593999997E+02  0.45594000000E+02  0.51100000000E-03 0. -1.
    9900012    2    1    2    0    0  0.27258265276E+02  0.10951015167E+02 -0.31948172483E+02  0.47787268623E+02  0.19999988960E+02 0.  0.
        -12    1    1    2    0    0 -0.27258265276E+02 -0.10951015167E+02  0.31948172483E+02  0.43400731377E+02  0.00000000000E+00 0.  1.
         11    1    3    3    0    0  0.91568913540E+01  0.56532560262E+01 -0.71291812572E+01  0.12908647823E+02  0.51100000000E-03 0. -1.
        -11    1    3    3    0    0  0.12107557044E+01 -0.47077391363E+01 -0.44769292472E+01  0.66084516263E+01  0.51100000000E-03 0.  1.
        -12    1    3    3    0    0  0.16890618218E+02  0.10005498277E+02 -0.20342061979E+02  0.28270169173E+02  0.00000000000E+00 0.  1.
</event>
<event>
 7    1  0.2598019E-009  0.4778731E+02  0.7816164E-02  0.1312668E+00
        -11   -1    0    0    0    0  0.00000000000E+00  0.00000000000E+00  0.45593999997E+02  0.45594000000E+02  0.51100000000E-03 0. -1.
         11   -1    0    0    0    0 -0.00000000000E+00 -0.00000000000E+00 -0.45593999997E+02  0.45594000000E+02  0.51100000000E-03 0.  1.
    9900012    2    1    2    0    0  0.25870722645E+02 -0.23087122265E+02  0.26101927357E+02  0.47787307421E+02  0.20000165854E+02 0.  0.
        -12    1    1    2    0    0 -0.25870722645E+02  0.23087122265E+02 -0.26101927357E+02  0.43400692579E+02  0.00000000000E+00 0.  1.
         11    1    3    3    0    0  0.56110766826E+01 -0.75331674077E+01  0.71821430028E+01  0.11824380369E+02  0.51100000000E-03 0. -1.
        -11    1    3    3    0    0  0.85334142403E+01  0.26405411590E+01  0.52213446034E+01  0.10346692995E+02  0.51100000000E-03 0.  1.
        -12    1    3    3    0    0  0.11726231722E+02 -0.18194496016E+02  0.13698439750E+02  0.25616234057E+02  0.00000000000E+00 0.  1.
</event>
<event>
 7    1  0.2598019E-009  0.4778727E+02  0.7816164E-02  0.1312668E+00
        -11   -1    0    0    0    0  0.00000000000E+00  0.00000000000E+00  0.45593999997E+02  0.45594000000E+02  0.51100000000E-03 0. -1.
         11   -1    0    0    0    0 -0.00000000000E+00 -0.00000000000E+00 -0.45593999997E+02  0.45594000000E+02  0.51100000000E-03 0.  1.
    9900012    2    1    2    0    0  0.47265452411E+01 -0.23925503283E+02  0.35900608877E+02  0.47787266654E+02  0.19999979982E+02 0.  0.
        -12    1    1    2    0    0 -0.47265452411E+01  0.23925503283E+02 -0.35900608877E+02  0.43400733346E+02  0.00000000000E+00 0.  1.
         11    1    3    3    0    0 -0.18982750773E+01  0.11696138394E+01 -0.16971260061E+00  0.22361233039E+01  0.51100000000E-03 0.  1.
        -11    1    3    3    0    0  0.64357169575E+01 -0.19733679601E+02  0.20881457835E+02  0.29442687461E+02  0.51100000000E-03 0. -1.
         12    1    3    3    0    0  0.18910336088E+00 -0.53614375209E+01  0.15188863642E+02  0.16108455889E+02  0.00000000000E+00 0. -1.
</event>
<event>
 7    1  0.2598019E-009  0.4778727E+02  0.7816164E-02  0.1312668E+00
        -11   -1    0    0    0    0  0.00000000000E+00  0.00000000000E+00  0.45593999997E+02  0.45594000000E+02  0.51100000000E-03 0.  1.
         11   -1    0    0    0    0 -0.00000000000E+00 -0.00000000000E+00 -0.45593999997E+02  0.45594000000E+02  0.51100000000E-03 0. -1.
    9900012    2    1    2    0    0  0.32026159370E+02  0.27049960575E+02 -0.11236015021E+02  0.47787270920E+02  0.19999999434E+02 0.  0.
        -12    1    1    2    0    0 -0.32026159370E+02 -0.27049960575E+02  0.11236015021E+02  0.43400729080E+02  0.00000000000E+00 0.  1.
         11    1    3    3    0    0  0.26571526281E+02  0.10514430482E+02 -0.81973302405E+01  0.29728697930E+02  0.51100000000E-03 0. -1.
        -11    1    3    3    0    0  0.75424801094E+00  0.69513673938E+01 -0.22900344300E+01  0.73576257487E+01  0.51100000000E-03 0.  1.
         12    1    3    3    0    0  0.47003850777E+01  0.95841626991E+01 -0.74865035073E+00  0.10700947242E+02  0.00000000000E+00 0. -1.
</event>
<event>
 7    1  0.2598019E-009  0.4778727E+02  0.7816164E-02  0.1312668E+00
        -11   -1    0    0    0    0  0.00000000000E+00  0.00000000000E+00  0.45593999997E+02  0.45594000000E+02  0.51100000000E-03 0.  1.
         11   -1    0    0    0    0 -0.00000000000E+00 -0.00000000000E+00 -0.45593999997E+02  0.45594000000E+02  0.51100000000E-03 0. -1.
    9900012    2    1    2    0    0 -0.41576297223E+02  0.14106326813E+00 -0.12450497237E+02  0.47787271077E+02  0.20000000149E+02 0.  0.
        -12    1    1    2    0    0  0.41576297223E+02 -0.14106326813E+00  0.12450497237E+02  0.43400728923E+02  0.00000000000E+00 0.  1.
         11    1    3    3    0    0 -0.12022457311E+02 -0.23392105253E+01 -0.56283406822E+01  0.13479228641E+02  0.51100000000E-03 0. -1.
        -11    1    3    3    0    0 -0.62089108308E+01  0.29479263054E+01 -0.84611173054E+01  0.10900979292E+02  0.51100000000E-03 0.  1.
        -12    1    3    3    0    0 -0.23344929081E+02 -0.46765251198E+00  0.16389607504E+01  0.23407063144E+02  0.00000000000E+00 0.  1.
</event>
<event>
 7    1  0.2598019E-009  0.4778727E+02  0.7816164E-02  0.1312668E+00
        -11   -1    0    0    0    0  0.00000000000E+00  0.00000000000E+00  0.45593999997E+02  0.45594000000E+02  0.51100000000E-03 0.  1.
         11   -1    0    0    0    0 -0.00000000000E+00 -0.00000000000E+00 -0.45593999997E+02  0.45594000000E+02  0.51100000000E-03 0. -1.
    9900012    2    1    2    0    0  0.48896801375E+01 -0.21546411207E+01 -0.43070546993E+02  0.47787268802E+02  0.19999989776E+02 0.  0.
        -12    1    1    2    0    0 -0.48896801375E+01  0.21546411207E+01  0.43070546993E+02  0.43400731198E+02  0.00000000000E+00 0.  1.
         11    1    3    3    0    0  0.72547549973E+01 -0.44467563101E+01 -0.16968815935E+02  0.18982777095E+02  0.51100000000E-03 0. -1.
        -11    1    3    3    0    0 -0.68883875221E+01  0.71705603467E+00 -0.19138134871E+02  0.20352696593E+02  0.51100000000E-03 0.  1.
        -12    1    3    3    0    0  0.45233126622E+01  0.15750591547E+01 -0.69635961877E+01  0.84517951138E+01  0.00000000000E+00 0.  1.
</event>
<event>
 7    1  0.2598019E-009  0.4778727E+02  0.7816164E-02  0.1312668E+00
        -11   -1    0    0    0    0  0.00000000000E+00  0.00000000000E+00  0.45593999997E+02  0.45594000000E+02  0.51100000000E-03 0. -1.
         11   -1    0    0    0    0 -0.00000000000E+00 -0.00000000000E+00 -0.45593999997E+02  0.45594000000E+02  0.51100000000E-03 0.  1.
    9900012    2    1    2    0    0  0.25499706234E+02  0.32014151995E+02  0.14438920065E+02  0.47787270068E+02  0.19999995548E+02 0.  0.
        -12    1    1    2    0    0 -0.25499706234E+02 -0.32014151995E+02 -0.14438920065E+02  0.43400729932E+02  0.00000000000E+00 0.  1.
         11    1    3    3    0    0 -0.45125527029E+00  0.57158974030E+01  0.76702607990E+01  0.95764302026E+01  0.51100000000E-03 0. -1.
        -11    1    3    3    0    0  0.94550638975E+01  0.10564973940E+02 -0.77504909241E+00  0.14199211563E+02  0.51100000000E-03 0.  1.
         12    1    3    3    0    0  0.16495897607E+02  0.15733280652E+02  0.75437083588E+01  0.24011628302E+02  0.00000000000E+00 0. -1.
</event>
<event>
 7    1  0.2598019E-009  0.4778727E+02  0.7816164E-02  0.1312668E+00
        -11   -1    0    0    0    0  0.00000000000E+00  0.00000000000E+00  0.45593999997E+02  0.45594000000E+02  0.51100000000E-03 0.  1.
         11   -1    0    0    0    0 -0.00000000000E+00 -0.00000000000E+00 -0.45593999997E+02  0.45594000000E+02  0.51100000000E-03 0. -1.
    9900012    2    1    2    0    0 -0.43077512539E+02  0.52148038945E+01 -0.87005783531E+00  0.47787271125E+02  0.20000000369E+02 0.  0.
        -12    1    1    2    0    0  0.43077512539E+02 -0.52148038945E+01  0.87005783531E+00  0.43400728875E+02  0.00000000000E+00 0.  1.
         11    1    3    3    0    0 -0.11159992624E+02 -0.20967171604E+00 -0.23857505398E+01  0.11414079178E+02  0.51100000000E-03 0. -1.
        -11    1    3    3    0    0 -0.39383107992E+01  0.46948162634E+01 -0.46754770623E+01  0.77078971010E+01  0.51100000000E-03 0.  1.
        -12    1    3    3    0    0 -0.27979209116E+02  0.72965934715E+00  0.61911697669E+01  0.28665294846E+02  0.00000000000E+00 0.  1.
</event>
<event>
 7    1  0.2598019E-009  0.4778727E+02  0.7816164E-02  0.1312668E+00
        -11   -1    0    0    0    0  0.00000000000E+00  0.00000000000E+00  0.45593999997E+02  0.45594000000E+02  0.51100000000E-03 0.  1.
         11   -1    0    0    0    0 -0.00000000000E+00 -0.00000000000E+00 -0.45593999997E+02  0.45594000000E+02  0.51100000000E-03 0. -1.
    9900012    2    1    2    0    0  0.11413070719E+02 -0.37365597717E+02 -0.18899132142E+02  0.47787271069E+02  0.20000000113E+02 0.  0.
        -12    1    1    2    0    0 -0.11413070719E+02  0.37365597717E+02  0.18899132142E+02  0.43400728931E+02  0.00000000000E+00 0.  1.
         11    1    3    3    0    0 -0.66192937793E+00 -0.12017320189E+01 -0.22229705177E+01  0.26122611910E+01  0.51100000000E-03 0. -1.
        -11    1    3    3    0    0 -0.39281964056E+01 -0.26680227838E+01 -0.86983309473E+00  0.48275959286E+01  0.51100000000E-03 0.  1.
        -12    1    3    3    0    0  0.16003196503E+02 -0.33495842915E+02 -0.15806328529E+02  0.40347413950E+02  0.00000000000E+00 0.  1.
</event>
<event>
 7    1  0.2598019E-009  0.4778727E+02  0.7816164E-02  0.1312668E+00
        -11   -1    0    0    0    0  0.00000000000E+00  0.00000000000E+00  0.45593999997E+02  0.45594000000E+02  0.51100000000E-03 0. -1.
         11   -1    0    0    0    0 -0.00000000000E+00 -0.00000000000E+00 -0.45593999997E+02  0.45594000000E+02  0.51100000000E-03 0.  1.
    9900012    2    1    2    0    0  0.32849527420E+02  0.20297672901E+02  0.19812529197E+02  0.47787270858E+02  0.19999999149E+02 0.  0.
        -12    1    1    2    0    0 -0.32849527420E+02 -0.20297672901E+02 -0.19812529197E+02  0.43400729142E+02  0.00000000000E+00 0.  1.
         11    1    3    3    0    0 -0.68572113894E+00 -0.11771107280E+01  0.23928398665E+01  0.27534498423E+01  0.51100000000E-03 0. -1.
        -11    1    3    3    0    0  0.29446603802E+02  0.16070369232E+02  0.18278378131E+02  0.38202857879E+02  0.51100000000E-03 0.  1.
        -12    1    3    3    0    0  0.40886447566E+01  0.54044143967E+01 -0.85868880066E+00  0.68309631366E+01  0.00000000000E+00 0.  1.
</event>
<event>
 7    1  0.2598019E-009  0.4778727E+02  0.7816164E-02  0.1312668E+00
        -11   -1    0    0    0    0  0.00000000000E+00  0.00000000000E+00  0.45593999997E+02  0.45594000000E+02  0.51100000000E-03 0.  1.
         11   -1    0    0    0    0 -0.00000000000E+00 -0.00000000000E+00 -0.45593999997E+02  0.45594000000E+02  0.51100000000E-03 0. -1.
    9900012    2    1    2    0    0 -0.29868333944E+02 -0.12751777506E+01 -0.31462357695E+02  0.47787269562E+02  0.19999993241E+02 0.  0.
        -12    1    1    2    0    0  0.29868333944E+02  0.12751777506E+01  0.31462357695E+02  0.43400730438E+02  0.00000000000E+00 0.  1.
         11    1    3    3    0    0 -0.17097329030E+02 -0.79464544386E+01 -0.23984705574E+02  0.30507882586E+02  0.51100000000E-03 0. -1.
        -11    1    3    3    0    0 -0.32868779537E+01  0.28742466113E+01  0.39179047168E+00  0.43838750324E+01  0.51100000000E-03 0.  1.
         12    1    3    3    0    0 -0.94841269595E+01  0.37970300767E+01 -0.78694425921E+01  0.12895511944E+02  0.00000000000E+00 0. -1.
</event>
<event>
 7    1  0.2598019E-009  0.4778727E+02  0.7816164E-02  0.1312668E+00
        -11   -1    0    0    0    0  0.00000000000E+00  0.00000000000E+00  0.45593999997E+02  0.45594000000E+02  0.51100000000E-03 0. -1.
         11   -1    0    0    0    0 -0.00000000000E+00 -0.00000000000E+00 -0.45593999997E+02  0.45594000000E+02  0.51100000000E-03 0.  1.
    9900012    2    1    2    0    0 -0.30158669635E+02 -0.30953042546E+02  0.39983583212E+01  0.47787273437E+02  0.20000010907E+02 0.  0.
        -12    1    1    2    0    0  0.30158669635E+02  0.30953042546E+02 -0.39983583212E+01  0.43400726563E+02  0.00000000000E+00 0.  1.
         11    1    3    3    0    0 -0.12089073257E+02 -0.12034508432E+02  0.47306343214E+01  0.17701807444E+02  0.51100000000E-03 0. -1.
        -11    1    3    3    0    0 -0.33667853952E+01 -0.25937354336E+01 -0.61329373689E+01  0.74616103107E+01  0.51100000000E-03 0.  1.
        -12    1    3    3    0    0 -0.14702810982E+02 -0.16324798680E+02  0.54006613687E+01  0.22623855682E+02  0.00000000000E+00 0.  1.
</event>
<event>
 7    1  0.2598019E-009  0.4778727E+02  0.7816164E-02  0.1312668E+00
        -11   -1    0    0    0    0  0.00000000000E+00  0.00000000000E+00  0.45593999997E+02  0.45594000000E+02  0.51100000000E-03 0.  1.
         11   -1    0    0    0    0 -0.00000000000E+00 -0.00000000000E+00 -0.45593999997E+02  0.45594000000E+02  0.51100000000E-03 0. -1.
    9900012    2    1    2    0    0  0.33846351431E+02  0.26359415632E+02 -0.65748628967E+01  0.47787272820E+02  0.20000008094E+02 0.  0.
        -12    1    1    2    0    0 -0.33846351431E+02 -0.26359415632E+02  0.65748628967E+01  0.43400727180E+02  0.00000000000E+00 0.  1.
         11    1    3    3    0    0  0.81435669120E+01  0.13016479135E+02 -0.53945330806E+01  0.16274132804E+02  0.51100000000E-03 0. -1.
        -11    1    3    3    0    0  0.13809814882E+02  0.11541760705E+01 -0.35860186773E+01  0.14314420690E+02  0.51100000000E-03 0.  1.
        -12    1    3    3    0    0  0.11892969637E+02  0.12188760426E+02  0.24056888611E+01  0.17198719325E+02  0.00000000000E+00 0.  1.
</event>
<event>
 7    1  0.2598019E-009  0.4778727E+02  0.7816164E-02  0.1312668E+00
        -11   -1    0    0    0    0  0.00000000000E+00  0.00000000000E+00  0.45593999997E+02  0.45594000000E+02  0.51100000000E-03 0.  1.
         11   -1    0    0    0    0 -0.00000000000E+00 -0.00000000000E+00 -0.45593999997E+02  0.45594000000E+02  0.51100000000E-03 0. -1.
    9900012    2    1    2    0    0 -0.18049617067E+02  0.20655470947E+02 -0.33633106588E+02  0.47787274026E+02  0.20000013595E+02 0.  0.
        -12    1    1    2    0    0  0.18049617067E+02 -0.20655470947E+02  0.33633106588E+02  0.43400725974E+02  0.00000000000E+00 0.  1.
         11    1    3    3    0    0 -0.59688768366E+01  0.20676274803E+02 -0.23962210245E+02  0.32207504568E+02  0.51100000000E-03 0. -1.
        -11    1    3    3    0    0 -0.32981131401E+01 -0.72973369422E+00 -0.22359434530E+01  0.40508647145E+01  0.51100000000E-03 0.  1.
         12    1    3    3    0    0 -0.87826270901E+01  0.70892983891E+00 -0.74349528898E+01  0.11528904744E+02  0.00000000000E+00 0. -1.
</event>
<event>
 7    1  0.2598019E-009  0.4778727E+02  0.7816164E-02  0.1312668E+00
        -11   -1    0    0    0    0  0.00000000000E+00  0.00000000000E+00  0.45593999997E+02  0.45594000000E+02  0.51100000000E-03 0.  1.
         11   -1    0    0    0    0 -0.00000000000E+00 -0.00000000000E+00 -0.45593999997E+02  0.45594000000E+02  0.51100000000E-03 0. -1.
    9900012    2    1    2    0    0 -0.42657967220E+02 -0.35891521004E+01 -0.71441774659E+01  0.47787268994E+02  0.19999990652E+02 0.  0.
        -12    1    1    2    0    0  0.42657967220E+02  0.35891521004E+01  0.71441774659E+01  0.43400731006E+02  0.00000000000E+00 0.  1.
         11    1    3    3    0    0 -0.22684950345E+02 -0.67343293756E+00  0.41091886291E+01  0.23063952729E+02  0.51100000000E-03 0. -1.
        -11    1    3    3    0    0 -0.13519107989E+02 -0.60538268505E+01 -0.81249793476E+01  0.16894685259E+02  0.51100000000E-03 0.  1.
        -12    1    3    3    0    0 -0.64539088872E+01  0.31381076876E+01 -0.31283867474E+01  0.78286310057E+01  0.00000000000E+00 0.  1.
</event>
<event>
 7    1  0.2598019E-009  0.4778723E+02  0.7816164E-02  0.1312668E+00
        -11   -1    0    0    0    0  0.00000000000E+00  0.00000000000E+00  0.45593999997E+02  0.45594000000E+02  0.51100000000E-03 0.  1.
         11   -1    0    0    0    0 -0.00000000000E+00 -0.00000000000E+00 -0.45593999997E+02  0.45594000000E+02  0.51100000000E-03 0. -1.
    9900012    2    1    2    0    0 -0.31848784572E+02  0.28570141491E+02 -0.72820778578E+01  0.47787231326E+02  0.19999818909E+02 0.  0.
        -12    1    1    2    0    0  0.31848784572E+02 -0.28570141491E+02  0.72820778578E+01  0.43400768674E+02  0.00000000000E+00 0.  1.
         11    1    3    3    0    0 -0.70280643735E+01  0.89270102979E+01 -0.20816614039E+01  0.11550693319E+02  0.51100000000E-03 0. -1.
        -11    1    3    3    0    0 -0.24261374510E+02  0.15898535647E+02  0.94107834750E+00  0.29021773853E+02  0.51100000000E-03 0.  1.
        -12    1    3    3    0    0 -0.55934568819E+00  0.37445955461E+01 -0.61414948013E+01  0.72147641540E+01  0.00000000000E+00 0.  1.
</event>
<event>
 7    1  0.2598019E-009  0.4778727E+02  0.7816164E-02  0.1312668E+00
        -11   -1    0    0    0    0  0.00000000000E+00  0.00000000000E+00  0.45593999997E+02  0.45594000000E+02  0.51100000000E-03 0.  1.
         11   -1    0    0    0    0 -0.00000000000E+00 -0.00000000000E+00 -0.45593999997E+02  0.45594000000E+02  0.51100000000E-03 0. -1.
    9900012    2    1    2    0    0 -0.13846503381E+02 -0.40118157500E+02  0.90791455727E+01  0.47787273031E+02  0.20000009057E+02 0.  0.
        -12    1    1    2    0    0  0.13846503381E+02  0.40118157500E+02 -0.90791455727E+01  0.43400726969E+02  0.00000000000E+00 0.  1.
         11    1    3    3    0    0 -0.21851768087E+01 -0.16018938659E+02 -0.36622719417E+01  0.16576900479E+02  0.51100000000E-03 0. -1.
        -11    1    3    3    0    0 -0.30967676972E+01 -0.24329876100E+01  0.55937250825E+01  0.68409911153E+01  0.51100000000E-03 0.  1.
         12    1    3    3    0    0 -0.85645588755E+01 -0.21666231231E+02  0.71476924319E+01  0.24369381437E+02  0.00000000000E+00 0. -1.
</event>
<event>
 7    1  0.2598019E-009  0.4778727E+02  0.7816164E-02  0.1312668E+00
        -11   -1    0    0    0    0  0.00000000000E+00  0.00000000000E+00  0.45593999997E+02  0.45594000000E+02  0.51100000000E-03 0.  1.
         11   -1    0    0    0    0 -0.00000000000E+00 -0.00000000000E+00 -0.45593999997E+02  0.45594000000E+02  0.51100000000E-03 0. -1.
    9900012    2    1    2    0    0  0.29857499062E+02  0.13312305477E+02 -0.28547071721E+02  0.47787273840E+02  0.20000012747E+02 0.  0.
        -12    1    1    2    0    0 -0.29857499062E+02 -0.13312305477E+02  0.28547071721E+02  0.43400726160E+02  0.00000000000E+00 0.  1.
         11    1    3    3    0    0  0.97651203054E+01  0.27262394319E+01 -0.59161735952E+01  0.11738443947E+02  0.51100000000E-03 0. -1.
        -11    1    3    3    0    0  0.11503350068E+02  0.14644825231E+01 -0.17924588018E+01  0.11733911567E+02  0.51100000000E-03 0.  1.
        -12    1    3    3    0    0  0.85890286887E+01  0.91215835221E+01 -0.20838439324E+02  0.24314918327E+02  0.00000000000E+00 0.  1.
</event>
<event>
 7    1  0.2598019E-009  0.4778727E+02  0.7816164E-02  0.1312668E+00
        -11   -1    0    0    0    0  0.00000000000E+00  0.00000000000E+00  0.45593999997E+02  0.45594000000E+02  0.51100000000E-03 0.  1.
         11   -1    0    0    0    0 -0.00000000000E+00 -0.00000000000E+00 -0.45593999997E+02  0.45594000000E+02  0.51100000000E-03 0. -1.
    9900012    2    1    2    0    0 -0.16415263340E+02 -0.38532027384E+02 -0.11377407909E+02  0.47787269412E+02  0.19999992558E+02 0.  0.
        -12    1    1    2    0    0  0.16415263340E+02  0.38532027384E+02  0.11377407909E+02  0.43400730588E+02  0.00000000000E+00 0.  1.
         11    1    3    3    0    0 -0.15139329900E+02 -0.27827497786E+02 -0.59553494020E+01  0.32234067841E+02  0.51100000000E-03 0. -1.
        -11    1    3    3    0    0  0.30916905255E+01 -0.45064291098E+01 -0.57900957074E+01  0.79618881046E+01  0.51100000000E-03 0.  1.
         12    1    3    3    0    0 -0.43676239658E+01 -0.61981004884E+01  0.36803720014E+00  0.75913134668E+01  0.00000000000E+00 0. -1.
</event>
<event>
 7    1  0.2598019E-009  0.4778726E+02  0.7816164E-02  0.1312668E+00
        -11   -1    0    0    0    0  0.00000000000E+00  0.00000000000E+00  0.45593999997E+02  0.45594000000E+02  0.51100000000E-03 0. -1.
         11   -1    0    0    0    0 -0.00000000000E+00 -0.00000000000E+00 -0.45593999997E+02  0.45594000000E+02  0.51100000000E-03 0.  1.
    9900012    2    1    2    0    0 -0.42645297808E+02  0.64272622393E+01 -0.48675654541E+01  0.47787259010E+02  0.19999945129E+02 0.  0.
        -12    1    1    2    0    0  0.42645297808E+02 -0.64272622393E+01  0.48675654541E+01  0.43400740990E+02  0.00000000000E+00 0.  1.
         11    1    3    3    0    0 -0.21557742685E+02  0.81495512610E+01  0.10007328761E+01  0.23068439956E+02  0.51100000000E-03 0. -1.
        -11    1    3    3    0    0 -0.38910350232E+01 -0.43526379245E+01 -0.43016748976E+01  0.72518975199E+01  0.51100000000E-03 0.  1.
        -12    1    3    3    0    0 -0.17196520100E+02  0.26303489028E+01 -0.15666234326E+01  0.17466921534E+02  0.00000000000E+00 0.  1.
</event>
<event>
 7    1  0.2598019E-009  0.4778727E+02  0.7816164E-02  0.1312668E+00
        -11   -1    0    0    0    0  0.00000000000E+00  0.00000000000E+00  0.45593999997E+02  0.45594000000E+02  0.51100000000E-03 0.  1.
         11   -1    0    0    0    0 -0.00000000000E+00 -0.00000000000E+00 -0.45593999997E+02  0.45594000000E+02  0.51100000000E-03 0. -1.
    9900012    2    1    2    0    0 -0.10027716152E+02  0.29486014295E+02 -0.30226533991E+02  0.47787268585E+02  0.19999988785E+02 0.  0.
        -12    1    1    2    0    0  0.10027716152E+02 -0.29486014295E+02  0.30226533991E+02  0.43400731415E+02  0.00000000000E+00 0.  1.
         11    1    3    3    0    0  0.14698702526E+01  0.11852432147E+01 -0.65804299121E+01  0.68459753232E+01  0.51100000000E-03 0. -1.
        -11    1    3    3    0    0 -0.30045192543E+01  0.17714734268E+02 -0.65757775098E+01  0.19133211865E+02  0.51100000000E-03 0.  1.
        -12    1    3    3    0    0 -0.84930671507E+01  0.10586036813E+02 -0.17070326569E+02  0.21808081397E+02  0.00000000000E+00 0.  1.
</event>
<event>
 7    1  0.2598019E-009  0.4778726E+02  0.7816164E-02  0.1312668E+00
        -11   -1    0    0    0    0  0.00000000000E+00  0.00000000000E+00  0.45593999997E+02  0.45594000000E+02  0.51100000000E-03 0. -1.
         11   -1    0    0    0    0 -0.00000000000E+00 -0.00000000000E+00 -0.45593999997E+02  0.45594000000E+02  0.51100000000E-03 0.  1.
    9900012    2    1    2    0    0 -0.45105674465E+01  0.41738525827E+02  0.11007938548E+02  0.47787257287E+02  0.19999937275E+02 0.  0.
        -12    1    1    2    0    0  0.45105674465E+01 -0.41738525827E+02 -0.11007938548E+02  0.43400742713E+02  0.00000000000E+00 0.  1.
         11    1    3    3    0    0 -0.69407755896E+01  0.26146390801E+02  0.16219398536E+01  0.27100531486E+02  0.51100000000E-03 0. -1.
        -11    1    3    3    0    0 -0.13879791301E+01 -0.74421305402E+00  0.13962464631E+01  0.21047193595E+01  0.51100000000E-03 0.  1.
         12    1    3    3    0    0  0.38181872731E+01  0.16336348081E+02  0.79897522316E+01  0.18582006441E+02  0.00000000000E+00 0. -1.
</event>
<event>
 7    1  0.2598019E-009  0.4778727E+02  0.7816164E-02  0.1312668E+00
        -11   -1    0    0    0    0  0.00000000000E+00  0.00000000000E+00  0.45593999997E+02  0.45594000000E+02  0.51100000000E-03 0. -1.
         11   -1    0    0    0    0 -0.00000000000E+00 -0.00000000000E+00 -0.45593999997E+02  0.45594000000E+02  0.51100000000E-03 0.  1.
    9900012    2    1    2    0    0  0.24934537992E+02 -0.28242060727E+02  0.21547111543E+02  0.47787271955E+02  0.20000004151E+02 0.  0.
        -12    1    1    2    0    0 -0.24934537992E+02  0.28242060727E+02 -0.21547111543E+02  0.43400728045E+02  0.00000000000E+00 0.  1.
         11    1    3    3    0    0  0.16030668674E+02 -0.14316680198E+02  0.17179657172E+02  0.27515273774E+02  0.51100000000E-03 0. -1.
        -11    1    3    3    0    0  0.97140619614E+01 -0.12847210056E+02  0.43227241802E+00  0.16112127908E+02  0.51100000000E-03 0.  1.
        -12    1    3    3    0    0 -0.81019264325E+00 -0.10781704727E+01  0.39351819530E+01  0.41598702733E+01  0.00000000000E+00 0.  1.
</event>
<event>
 7    1  0.2598019E-009  0.4778727E+02  0.7816164E-02  0.1312668E+00
        -11   -1    0    0    0    0  0.00000000000E+00  0.00000000000E+00  0.45593999997E+02  0.45594000000E+02  0.51100000000E-03 0.  1.
         11   -1    0    0    0    0 -0.00000000000E+00 -0.00000000000E+00 -0.45593999997E+02  0.45594000000E+02  0.51100000000E-03 0. -1.
    9900012    2    1    2    0    0  0.31129623923E+01  0.43195111850E+02 -0.28487233253E+01  0.47787269048E+02  0.19999990896E+02 0.  0.
        -12    1    1    2    0    0 -0.31129623923E+01 -0.43195111850E+02  0.28487233253E+01  0.43400730952E+02  0.00000000000E+00 0.  1.
         11    1    3    3    0    0 -0.15722067311E+01  0.26973528540E+02  0.29255041471E+01  0.27177226692E+02  0.51100000000E-03 0. -1.
        -11    1    3    3    0    0  0.73383333843E+01  0.14840600077E+02 -0.60023516686E+01  0.17610303045E+02  0.51100000000E-03 0.  1.
        -12    1    3    3    0    0 -0.26531642609E+01  0.13809832336E+01  0.22812419612E+00  0.29997393113E+01  0.00000000000E+00 0.  1.
</event>
<event>
 7    1  0.2598019E-009  0.4778728E+02  0.7816164E-02  0.1312668E+00
        -11   -1    0    0    0    0  0.00000000000E+00  0.00000000000E+00  0.45593999997E+02  0.45594000000E+02  0.51100000000E-03 0.  1.
         11   -1    0    0    0    0 -0.00000000000E+00 -0.00000000000E+00 -0.45593999997E+02  0.45594000000E+02  0.51100000000E-03 0. -1.
    9900012    2    1    2    0    0  0.29872516880E+02 -0.30982931999E+02 -0.55958321054E+01  0.47787277921E+02  0.20000031355E+02 0.  0.
        -12    1    1    2    0    0 -0.29872516880E+02  0.30982931999E+02  0.55958321054E+01  0.43400722079E+02  0.00000000000E+00 0.  1.
         11    1    3    3    0    0  0.12291461498E+02 -0.16953014624E+02 -0.68205917601E+00  0.20951132083E+02  0.51100000000E-03 0. -1.
        -11    1    3    3    0    0  0.17704491598E+02 -0.15085823216E+02 -0.71715974468E+01  0.24340560697E+02  0.51100000000E-03 0.  1.
        -12    1    3    3    0    0 -0.12343621633E+00  0.10559058408E+01  0.22578245174E+01  0.24955851409E+01  0.00000000000E+00 0.  1.
</event>
<event>
 7    1  0.2598019E-009  0.4778727E+02  0.7816164E-02  0.1312668E+00
        -11   -1    0    0    0    0  0.00000000000E+00  0.00000000000E+00  0.45593999997E+02  0.45594000000E+02  0.51100000000E-03 0.  1.
         11   -1    0    0    0    0 -0.00000000000E+00 -0.00000000000E+00 -0.45593999997E+02  0.45594000000E+02  0.51100000000E-03 0. -1.
    9900012    2    1    2    0    0 -0.61675560350E+01  0.11778010967E+02 -0.41314198389E+02  0.47787270993E+02  0.19999999768E+02 0.  0.
        -12    1    1    2    0    0  0.61675560350E+01 -0.11778010967E+02  0.41314198389E+02  0.43400729007E+02  0.00000000000E+00 0.  1.
         11    1    3    3    0    0 -0.22919221447E+01  0.70468006425E+01 -0.18042890033E+02  0.19505286140E+02  0.51100000000E-03 0. -1.
        -11    1    3    3    0    0 -0.54705331607E+01  0.94361450842E+01 -0.13831177659E+02  0.17614455507E+02  0.51100000000E-03 0.  1.
        -12    1    3    3    0    0  0.15948992703E+01 -0.47049347597E+01 -0.94401306974E+01  0.10667529347E+02  0.00000000000E+00 0.  1.
</event>
<event>
 7    1  0.2598019E-009  0.4778727E+02  0.7816164E-02  0.1312668E+00
        -11   -1    0    0    0    0  0.00000000000E+00  0.00000000000E+00  0.45593999997E+02  0.45594000000E+02  0.51100000000E-03 0.  1.
         11   -1    0    0    0    0 -0.00000000000E+00 -0.00000000000E+00 -0.45593999997E+02  0.45594000000E+02  0.51100000000E-03 0. -1.
    9900012    2    1    2    0    0  0.14308604848E+02 -0.23981324951E+02 -0.33223233076E+02  0.47787270339E+02  0.19999996783E+02 0.  0.
        -12    1    1    2    0    0 -0.14308604848E+02  0.23981324951E+02  0.33223233076E+02  0.43400729661E+02  0.00000000000E+00 0.  1.
         11    1    3    3    0    0  0.10877848753E+02 -0.81207261282E+01 -0.12196160590E+02  0.18248838860E+02  0.51100000000E-03 0. -1.
        -11    1    3    3    0    0 -0.35756491180E+01 -0.98118669340E+01 -0.64609702063E+01  0.12280152101E+02  0.51100000000E-03 0.  1.
        -12    1    3    3    0    0  0.70064052126E+01 -0.60487318884E+01 -0.14566102280E+02  0.17258279378E+02  0.00000000000E+00 0.  1.
</event>
<event>
 7    1  0.2598019E-009  0.4778729E+02  0.7816164E-02  0.1312668E+00
        -11   -1    0    0    0    0  0.00000000000E+00  0.00000000000E+00  0.45593999997E+02  0.45594000000E+02  0.51100000000E-03 0. -1.
         11   -1    0    0    0    0 -0.00000000000E+00 -0.00000000000E+00 -0.45593999997E+02  0.45594000000E+02  0.51100000000E-03 0.  1.
    9900012    2    1    2    0    0 -0.30397738657E+02  0.17852794168E+02  0.25315538056E+02  0.47787294451E+02  0.20000106720E+02 0.  0.
        -12    1    1    2    0    0  0.30397738657E+02 -0.17852794168E+02 -0.25315538056E+02  0.43400705549E+02  0.00000000000E+00 0.  1.
         11    1    3    3    0    0 -0.14201882088E+02  0.43811553826E+01  0.12056224960E+02  0.19137411995E+02  0.51100000000E-03 0. -1.
        -11    1    3    3    0    0 -0.15247800549E+02  0.15887186225E+02  0.92726889419E+01  0.23893113406E+02  0.51100000000E-03 0.  1.
        -12    1    3    3    0    0 -0.94805602000E+00 -0.24155474397E+01  0.39866241548E+01  0.47567690507E+01  0.00000000000E+00 0.  1.
</event>
<event>
 7    1  0.2598019E-009  0.4778727E+02  0.7816164E-02  0.1312668E+00
        -11   -1    0    0    0    0  0.00000000000E+00  0.00000000000E+00  0.45593999997E+02  0.45594000000E+02  0.51100000000E-03 0.  1.
         11   -1    0    0    0    0 -0.00000000000E+00 -0.00000000000E+00 -0.45593999997E+02  0.45594000000E+02  0.51100000000E-03 0. -1.
    9900012    2    1    2    0    0  0.30503545593E+02  0.30252276579E+01 -0.30724659454E+02  0.47787274261E+02  0.20000014666E+02 0.  0.
        -12    1    1    2    0    0 -0.30503545593E+02 -0.30252276579E+01  0.30724659454E+02  0.43400725739E+02  0.00000000000E+00 0.  1.
         11    1    3    3    0    0  0.11289116472E+02  0.50702472725E+01 -0.21456790408E+02  0.24769848869E+02  0.51100000000E-03 0. -1.
        -11    1    3    3    0    0  0.18737533678E+02 -0.22120219267E+01 -0.61290303491E+01  0.19838175890E+02  0.51100000000E-03 0.  1.
        -12    1    3    3    0    0  0.47689544253E+00  0.16700231216E+00 -0.31388386963E+01  0.31792495022E+01  0.00000000000E+00 0.  1.
</event>
<event>
 7    1  0.2598019E-009  0.4778727E+02  0.7816164E-02  0.1312668E+00
        -11   -1    0    0    0    0  0.00000000000E+00  0.00000000000E+00  0.45593999997E+02  0.45594000000E+02  0.51100000000E-03 0.  1.
         11   -1    0    0    0    0 -0.00000000000E+00 -0.00000000000E+00 -0.45593999997E+02  0.45594000000E+02  0.51100000000E-03 0. -1.
    9900012    2    1    2    0    0  0.39513493344E+02  0.11602241286E+02 -0.13700196234E+02  0.47787268025E+02  0.19999986233E+02 0.  0.
        -12    1    1    2    0    0 -0.39513493344E+02 -0.11602241286E+02  0.13700196234E+02  0.43400731975E+02  0.00000000000E+00 0.  1.
         11    1    3    3    0    0  0.22366571151E+02  0.84961970396E+01 -0.87044859236E+01  0.25460104961E+02  0.51100000000E-03 0. -1.
        -11    1    3    3    0    0  0.44954825026E+01 -0.50046000619E+01 -0.13059143281E+01  0.68527948462E+01  0.51100000000E-03 0.  1.
        -12    1    3    3    0    0  0.12651439691E+02  0.81106443086E+01 -0.36897959820E+01  0.15474368218E+02  0.00000000000E+00 0.  1.
</event>
<event>
 7    1  0.2598019E-009  0.4778727E+02  0.7816164E-02  0.1312668E+00
        -11   -1    0    0    0    0  0.00000000000E+00  0.00000000000E+00  0.45593999997E+02  0.45594000000E+02  0.51100000000E-03 0.  1.
         11   -1    0    0    0    0 -0.00000000000E+00 -0.00000000000E+00 -0.45593999997E+02  0.45594000000E+02  0.51100000000E-03 0. -1.
    9900012    2    1    2    0    0  0.21046780637E+02 -0.14528936135E+02 -0.35065175858E+02  0.47787268228E+02  0.19999987158E+02 0.  0.
        -12    1    1    2    0    0 -0.21046780637E+02  0.14528936135E+02  0.35065175858E+02  0.43400731772E+02  0.00000000000E+00 0.  1.
         11    1    3    3    0    0  0.11937837040E+02 -0.30320133949E+01 -0.24299695846E+02  0.27242985829E+02  0.51100000000E-03 0. -1.
        -11    1    3    3    0    0  0.94850004807E+01 -0.10367896550E+02 -0.12249832026E+02  0.18641805114E+02  0.51100000000E-03 0.  1.
         12    1    3    3    0    0 -0.37605688399E+00 -0.11290261905E+01  0.14843520135E+01  0.19024772847E+01  0.00000000000E+00 0. -1.
</event>
<event>
 7    1  0.2598019E-009  0.4778727E+02  0.7816164E-02  0.1312668E+00
        -11   -1    0    0    0    0  0.00000000000E+00  0.00000000000E+00  0.45593999997E+02  0.45594000000E+02  0.51100000000E-03 0.  1.
         11   -1    0    0    0    0 -0.00000000000E+00 -0.00000000000E+00 -0.45593999997E+02  0.45594000000E+02  0.51100000000E-03 0. -1.
    9900012    2    1    2    0    0  0.31032605238E+01 -0.41096649735E+02 -0.13603617393E+02  0.47787271303E+02  0.20000001178E+02 0.  0.
        -12    1    1    2    0    0 -0.31032605238E+01  0.41096649735E+02  0.13603617393E+02  0.43400728697E+02  0.00000000000E+00 0.  1.
         11    1    3    3    0    0 -0.24791926959E+01 -0.16939086251E+02 -0.11901603722E+02  0.20850112970E+02  0.51100000000E-03 0. -1.
        -11    1    3    3    0    0  0.52448708431E+01 -0.72325508201E+01  0.29024408047E+01  0.93937545429E+01  0.51100000000E-03 0.  1.
        -12    1    3    3    0    0  0.33758237657E+00 -0.16925012663E+02 -0.46044544749E+01  0.17543403789E+02  0.00000000000E+00 0.  1.
</event>
<event>
 7    1  0.2598019E-009  0.4778727E+02  0.7816164E-02  0.1312668E+00
        -11   -1    0    0    0    0  0.00000000000E+00  0.00000000000E+00  0.45593999997E+02  0.45594000000E+02  0.51100000000E-03 0.  1.
         11   -1    0    0    0    0 -0.00000000000E+00 -0.00000000000E+00 -0.45593999997E+02  0.45594000000E+02  0.51100000000E-03 0. -1.
    9900012    2    1    2    0    0  0.37912980690E+02  0.20178817931E+02  0.62485593857E+01  0.47787270832E+02  0.19999999032E+02 0.  0.
        -12    1    1    2    0    0 -0.37912980690E+02 -0.20178817931E+02 -0.62485593857E+01  0.43400729168E+02  0.00000000000E+00 0.  1.
         11    1    3    3    0    0  0.12121859506E+02  0.51795458613E+01  0.11150648856E+01  0.13229155043E+02  0.51100000000E-03 0. -1.
        -11    1    3    3    0    0  0.13399280526E+02 -0.16234267243E+00 -0.23323134989E+01  0.13601719019E+02  0.51100000000E-03 0.  1.
        -12    1    3    3    0    0  0.12391840659E+02  0.15161614742E+02  0.74658079990E+01  0.20956396770E+02  0.00000000000E+00 0.  1.
</event>
<event>
 7    1  0.2598019E-009  0.4778727E+02  0.7816164E-02  0.1312668E+00
        -11   -1    0    0    0    0  0.00000000000E+00  0.00000000000E+00  0.45593999997E+02  0.45594000000E+02  0.51100000000E-03 0. -1.
         11   -1    0    0    0    0 -0.00000000000E+00 -0.00000000000E+00 -0.45593999997E+02  0.45594000000E+02  0.51100000000E-03 0.  1.
    9900012    2    1    2    0    0 -0.22589553408E+02 -0.67574469443E+00  0.37052374905E+02  0.47787273737E+02  0.20000012275E+02 0.  0.
        -12    1    1    2    0    0  0.22589553408E+02  0.67574469443E+00 -0.37052374905E+02  0.43400726263E+02  0.00000000000E+00 0.  1.
         11    1    3    3    0    0 -0.21562599348E+02 -0.39816050547E+01  0.27165515903E+02  0.34910802397E+02  0.51100000000E-03 0. -1.
        -11    1    3    3    0    0  0.29946249077E+01 -0.74156120392E-01  0.35176994619E+01  0.46203341040E+01  0.51100000000E-03 0.  1.
        -12    1    3    3    0    0 -0.40215789680E+01  0.33800164807E+01  0.63691595404E+01  0.82561372358E+01  0.00000000000E+00 0.  1.
</event>
<event>
 7    1  0.2598019E-009  0.4778727E+02  0.7816164E-02  0.1312668E+00
        -11   -1    0    0    0    0  0.00000000000E+00  0.00000000000E+00  0.45593999997E+02  0.45594000000E+02  0.51100000000E-03 0.  1.
         11   -1    0    0    0    0 -0.00000000000E+00 -0.00000000000E+00 -0.45593999997E+02  0.45594000000E+02  0.51100000000E-03 0. -1.
    9900012    2    1    2    0    0 -0.24205135337E+02  0.36016420257E+02  0.74300598847E+00  0.47787272325E+02  0.20000005839E+02 0.  0.
        -12    1    1    2    0    0  0.24205135337E+02 -0.36016420257E+02 -0.74300598847E+00  0.43400727675E+02  0.00000000000E+00 0.  1.
         11    1    3    3    0    0 -0.15282733998E+02  0.30102035272E+02 -0.61298833335E+01  0.34311367736E+02  0.51100000000E-03 0. -1.
        -11    1    3    3    0    0 -0.66120981877E+01  0.27412624672E+01  0.24570570717E+01  0.75677930781E+01  0.51100000000E-03 0.  1.
         12    1    3    3    0    0 -0.23103031515E+01  0.31731225180E+01  0.44158322503E+01  0.59081115112E+01  0.00000000000E+00 0. -1.
</event>
<event>
 7    1 -0.2598019E-009  0.4778727E+02  0.7816164E-02  0.1312668E+00
        -11   -1    0    0    0    0  0.00000000000E+00  0.00000000000E+00  0.45593999997E+02  0.45594000000E+02  0.51100000000E-03 0.  1.
         11   -1    0    0    0    0 -0.00000000000E+00 -0.00000000000E+00 -0.45593999997E+02  0.45594000000E+02  0.51100000000E-03 0. -1.
    9900012    2    1    2    0    0 -0.27332737008E+02  0.20897972601E+02 -0.26454097977E+02  0.47787273383E+02  0.20000010661E+02 0.  0.
        -12    1    1    2    0    0  0.27332737008E+02 -0.20897972601E+02  0.26454097977E+02  0.43400726617E+02  0.00000000000E+00 0.  1.
         11    1    3    3    0    0 -0.12023587188E+02  0.75385430973E+01 -0.10235230831E+01  0.14228277502E+02  0.51100000000E-03 0. -1.
        -11    1    3    3    0    0 -0.55092686526E+01  0.23044479190E+00 -0.64384642719E+01  0.84769669299E+01  0.51100000000E-03 0.  1.
         12    1    3    3    0    0 -0.97998811666E+01  0.13128984711E+02 -0.18992110622E+02  0.25082028951E+02  0.00000000000E+00 0. -1.
</event>
<event>
 7    1  0.2598019E-009  0.4778727E+02  0.7816164E-02  0.1312668E+00
        -11   -1    0    0    0    0  0.00000000000E+00  0.00000000000E+00  0.45593999997E+02  0.45594000000E+02  0.51100000000E-03 0.  1.
         11   -1    0    0    0    0 -0.00000000000E+00 -0.00000000000E+00 -0.45593999997E+02  0.45594000000E+02  0.51100000000E-03 0. -1.
    9900012    2    1    2    0    0  0.40105509582E+01  0.39271692873E+02  0.18035331436E+02  0.47787267747E+02  0.19999984967E+02 0.  0.
        -12    1    1    2    0    0 -0.40105509582E+01 -0.39271692873E+02 -0.18035331436E+02  0.43400732253E+02  0.00000000000E+00 0.  1.
         11    1    3    3    0    0  0.77157262304E+01  0.29636403229E+02  0.12285473326E+02  0.32996691997E+02  0.51100000000E-03 0. -1.
        -11    1    3    3    0    0 -0.10424726502E+00  0.48511900975E+01 -0.17814492187E+01  0.51689916264E+01  0.51100000000E-03 0.  1.
         12    1    3    3    0    0 -0.36009280072E+01  0.47840995458E+01  0.75313073287E+01  0.96215841241E+01  0.00000000000E+00 0. -1.
</event>
<event>
 7    1 -0.2598019E-009  0.4778727E+02  0.7816164E-02  0.1312668E+00
        -11   -1    0    0    0    0  0.00000000000E+00  0.00000000000E+00  0.45593999997E+02  0.45594000000E+02  0.51100000000E-03 0.  1.
         11   -1    0    0    0    0 -0.00000000000E+00 -0.00000000000E+00 -0.45593999997E+02  0.45594000000E+02  0.51100000000E-03 0. -1.
    9900012    2    1    2    0    0  0.34754116952E+02  0.25992889736E+02  0.37976897627E+00  0.47787272052E+02  0.20000004595E+02 0.  0.
        -12    1    1    2    0    0 -0.34754116952E+02 -0.25992889736E+02 -0.37976897627E+00  0.43400727948E+02  0.00000000000E+00 0.  1.
         11    1    3    3    0    0  0.18606123488E+02  0.14194542518E+02  0.24746163179E+00  0.23403719920E+02  0.51100000000E-03 0. -1.
        -11    1    3    3    0    0  0.18429975846E+01  0.88996994620E+01 -0.27716412248E+01  0.95017517307E+01  0.51100000000E-03 0.  1.
        -12    1    3    3    0    0  0.14304995879E+02  0.28986477561E+01  0.29039485693E+01  0.14881800402E+02  0.00000000000E+00 0.  1.
</event>
<event>
 7    1  0.2598019E-009  0.4778727E+02  0.7816164E-02  0.1312668E+00
        -11   -1    0    0    0    0  0.00000000000E+00  0.00000000000E+00  0.45593999997E+02  0.45594000000E+02  0.51100000000E-03 0. -1.
         11   -1    0    0    0    0 -0.00000000000E+00 -0.00000000000E+00 -0.45593999997E+02  0.45594000000E+02  0.51100000000E-03 0.  1.
    9900012    2    1    2    0    0 -0.33282702145E+01 -0.24190424779E+01  0.43205255686E+02  0.47787271112E+02  0.20000000306E+02 0.  0.
        -12    1    1    2    0    0  0.33282702145E+01  0.24190424779E+01 -0.43205255686E+02  0.43400728888E+02  0.00000000000E+00 0.  1.
         11    1    3    3    0    0 -0.69729659709E+01 -0.82111930256E+01  0.18557929418E+02  0.21457928369E+02  0.51100000000E-03 0.  1.
        -11    1    3    3    0    0  0.43513818235E+01  0.10646192521E+01  0.11920482518E+02  0.12734435270E+02  0.51100000000E-03 0. -1.
         12    1    3    3    0    0 -0.70668606708E+00  0.47275312957E+01  0.12726843750E+02  0.13594907473E+02  0.00000000000E+00 0. -1.
</event>
<event>
 7    1  0.2598019E-009  0.4778729E+02  0.7816164E-02  0.1312668E+00
        -11   -1    0    0    0    0  0.00000000000E+00  0.00000000000E+00  0.45593999997E+02  0.45594000000E+02  0.51100000000E-03 0.  1.
         11   -1    0    0    0    0 -0.00000000000E+00 -0.00000000000E+00 -0.45593999997E+02  0.45594000000E+02  0.51100000000E-03 0. -1.
    9900012    2    1    2    0    0  0.33422103558E+02  0.64087174375E+01 -0.26935353670E+02  0.47787286380E+02  0.20000069920E+02 0.  0.
        -12    1    1    2    0    0 -0.33422103558E+02 -0.64087174375E+01  0.26935353670E+02  0.43400713620E+02  0.00000000000E+00 0.  1.
         11    1    3    3    0    0  0.19379134325E+02 -0.46107003801E+01 -0.13749712825E+02  0.24204627826E+02  0.51100000000E-03 0. -1.
        -11    1    3    3    0    0  0.14781951715E+02  0.92976496651E+01 -0.12845104665E+02  0.21678309434E+02  0.51100000000E-03 0.  1.
         12    1    3    3    0    0 -0.73898248211E+00  0.17217681525E+01 -0.34053618037E+00  0.19043491198E+01  0.00000000000E+00 0. -1.
</event>
<event>
 7    1  0.2598019E-009  0.4778727E+02  0.7816164E-02  0.1312668E+00
        -11   -1    0    0    0    0  0.00000000000E+00  0.00000000000E+00  0.45593999997E+02  0.45594000000E+02  0.51100000000E-03 0.  1.
         11   -1    0    0    0    0 -0.00000000000E+00 -0.00000000000E+00 -0.45593999997E+02  0.45594000000E+02  0.51100000000E-03 0. -1.
    9900012    2    1    2    0    0  0.89275724896E+01  0.20035462686E+02 -0.37449995139E+02  0.47787268998E+02  0.19999990667E+02 0.  0.
        -12    1    1    2    0    0 -0.89275724896E+01 -0.20035462686E+02  0.37449995139E+02  0.43400731002E+02  0.00000000000E+00 0.  1.
         11    1    3    3    0    0 -0.22038684751E+01  0.92482391130E+01 -0.24544214207E+02  0.26321197052E+02  0.51100000000E-03 0. -1.
        -11    1    3    3    0    0  0.10224660569E+02  0.98077969313E+01 -0.13864077867E+02  0.19822946798E+02  0.51100000000E-03 0.  1.
        -12    1    3    3    0    0  0.90678039610E+00  0.97942664196E+00  0.95829693515E+00  0.16431251473E+01  0.00000000000E+00 0.  1.
</event>
<event>
 7    1  0.2598019E-009  0.4778727E+02  0.7816164E-02  0.1312668E+00
        -11   -1    0    0    0    0  0.00000000000E+00  0.00000000000E+00  0.45593999997E+02  0.45594000000E+02  0.51100000000E-03 0. -1.
         11   -1    0    0    0    0 -0.00000000000E+00 -0.00000000000E+00 -0.45593999997E+02  0.45594000000E+02  0.51100000000E-03 0.  1.
    9900012    2    1    2    0    0 -0.90973645188E+01  0.42004443006E+02  0.60405573794E+01  0.47787267208E+02  0.19999982510E+02 0.  0.
        -12    1    1    2    0    0  0.90973645188E+01 -0.42004443006E+02 -0.60405573794E+01  0.43400732792E+02  0.00000000000E+00 0.  1.
         11    1    3    3    0    0  0.47220546968E+01  0.66482452157E+01 -0.25602522444E+00  0.81585853054E+01  0.51100000000E-03 0.  1.
        -11    1    3    3    0    0 -0.48434113195E+01  0.24765230688E+02  0.36814328832E+01  0.25501533926E+02  0.51100000000E-03 0. -1.
         12    1    3    3    0    0 -0.89760078961E+01  0.10590967102E+02  0.26151497207E+01  0.14127147977E+02  0.00000000000E+00 0. -1.
</event>
<event>
 7    1  0.2598019E-009  0.4778727E+02  0.7816164E-02  0.1312668E+00
        -11   -1    0    0    0    0  0.00000000000E+00  0.00000000000E+00  0.45593999997E+02  0.45594000000E+02  0.51100000000E-03 0. -1.
         11   -1    0    0    0    0 -0.00000000000E+00 -0.00000000000E+00 -0.45593999997E+02  0.45594000000E+02  0.51100000000E-03 0.  1.
    9900012    2    1    2    0    0 -0.27629695213E+02 -0.25081431070E+02  0.22161789707E+02  0.47787272297E+02  0.20000005713E+02 0.  0.
        -12    1    1    2    0    0  0.27629695213E+02  0.25081431070E+02 -0.22161789707E+02  0.43400727703E+02  0.00000000000E+00 0.  1.
         11    1    3    3    0    0 -0.54279874699E+01 -0.14609346214E+02  0.14360215790E+02  0.21192259025E+02  0.51100000000E-03 0. -1.
        -11    1    3    3    0    0 -0.16405012588E+02 -0.10619868726E+02  0.50938375067E+01  0.20195376465E+02  0.51100000000E-03 0.  1.
         12    1    3    3    0    0 -0.57966951559E+01  0.14778387014E+00  0.27077364105E+01  0.63996368078E+01  0.00000000000E+00 0. -1.
</event>
<event>
 7    1  0.2598019E-009  0.4778727E+02  0.7816164E-02  0.1312668E+00
        -11   -1    0    0    0    0  0.00000000000E+00  0.00000000000E+00  0.45593999997E+02  0.45594000000E+02  0.51100000000E-03 0.  1.
         11   -1    0    0    0    0 -0.00000000000E+00 -0.00000000000E+00 -0.45593999997E+02  0.45594000000E+02  0.51100000000E-03 0. -1.
    9900012    2    1    2    0    0  0.10687900754E+02 -0.17138696384E+02 -0.38414280112E+02  0.47787273591E+02  0.20000011612E+02 0.  0.
        -12    1    1    2    0    0 -0.10687900754E+02  0.17138696384E+02  0.38414280112E+02  0.43400726409E+02  0.00000000000E+00 0.  1.
         11    1    3    3    0    0  0.60169447853E+01 -0.67569138347E+01 -0.31849805544E+02  0.33109962588E+02  0.51100000000E-03 0. -1.
        -11    1    3    3    0    0  0.47250733955E+01 -0.38715246571E+01 -0.11640350522E+01  0.62185206944E+01  0.51100000000E-03 0.  1.
        -12    1    3    3    0    0 -0.54117427026E-01 -0.65102578925E+01 -0.54004395156E+01  0.84587903086E+01  0.00000000000E+00 0.  1.
</event>
<event>
 7    1  0.2598019E-009  0.4778727E+02  0.7816164E-02  0.1312668E+00
        -11   -1    0    0    0    0  0.00000000000E+00  0.00000000000E+00  0.45593999997E+02  0.45594000000E+02  0.51100000000E-03 0. -1.
         11   -1    0    0    0    0 -0.00000000000E+00 -0.00000000000E+00 -0.45593999997E+02  0.45594000000E+02  0.51100000000E-03 0.  1.
    9900012    2    1    2    0    0 -0.16604233540E+02  0.38100023204E+02  0.12502442131E+02  0.47787269605E+02  0.19999993435E+02 0.  0.
        -12    1    1    2    0    0  0.16604233540E+02 -0.38100023204E+02 -0.12502442131E+02  0.43400730395E+02  0.00000000000E+00 0.  1.
         11    1    3    3    0    0  0.33332761567E+00  0.47239854423E+01  0.37639765871E+00  0.47506653447E+01  0.51100000000E-03 0. -1.
        -11    1    3    3    0    0  0.14427235233E+01  0.15601827542E+02  0.35248210537E+01  0.16059976262E+02  0.51100000000E-03 0.  1.
        -12    1    3    3    0    0 -0.18380284679E+02  0.17774210219E+02  0.86012234190E+01  0.26976627997E+02  0.00000000000E+00 0.  1.
</event>
<event>
 7    1  0.2598019E-009  0.4778727E+02  0.7816164E-02  0.1312668E+00
        -11   -1    0    0    0    0  0.00000000000E+00  0.00000000000E+00  0.45593999997E+02  0.45594000000E+02  0.51100000000E-03 0. -1.
         11   -1    0    0    0    0 -0.00000000000E+00 -0.00000000000E+00 -0.45593999997E+02  0.45594000000E+02  0.51100000000E-03 0.  1.
    9900012    2    1    2    0    0 -0.25112805949E+02 -0.28636897429E+02  0.20806210319E+02  0.47787270688E+02  0.19999998374E+02 0.  0.
        -12    1    1    2    0    0  0.25112805949E+02  0.28636897429E+02 -0.20806210319E+02  0.43400729312E+02  0.00000000000E+00 0.  1.
         11    1    3    3    0    0 -0.16019791821E+02 -0.98588172994E+01  0.40608874228E+01  0.19243721455E+02  0.51100000000E-03 0. -1.
        -11    1    3    3    0    0 -0.89321346108E+01 -0.19921531440E+02  0.15148898282E+02  0.26573286644E+02  0.51100000000E-03 0.  1.
         12    1    3    3    0    0 -0.16087951775E+00  0.11434513109E+01  0.15964246142E+01  0.19702625887E+01  0.00000000000E+00 0. -1.
</event>
<event>
 7    1  0.2598019E-009  0.4778727E+02  0.7816164E-02  0.1312668E+00
        -11   -1    0    0    0    0  0.00000000000E+00  0.00000000000E+00  0.45593999997E+02  0.45594000000E+02  0.51100000000E-03 0.  1.
         11   -1    0    0    0    0 -0.00000000000E+00 -0.00000000000E+00 -0.45593999997E+02  0.45594000000E+02  0.51100000000E-03 0. -1.
    9900012    2    1    2    0    0 -0.22569207952E+02  0.28223406995E+02 -0.24035251722E+02  0.47787272180E+02  0.20000005175E+02 0.  0.
        -12    1    1    2    0    0  0.22569207952E+02 -0.28223406995E+02  0.24035251722E+02  0.43400727820E+02  0.00000000000E+00 0.  1.
         11    1    3    3    0    0 -0.14861105394E+02  0.20355274101E+02 -0.10543832041E+02  0.27319627224E+02  0.51100000000E-03 0. -1.
        -11    1    3    3    0    0  0.10119424862E+01 -0.14786671468E+01  0.11883284088E+00  0.17957186950E+01  0.51100000000E-03 0.  1.
        -12    1    3    3    0    0 -0.87200450438E+01  0.93468000409E+01 -0.13610252522E+02  0.18671926261E+02  0.00000000000E+00 0.  1.
</event>
<event>
 7    1  0.2598019E-009  0.4778725E+02  0.7816164E-02  0.1312668E+00
        -11   -1    0    0    0    0  0.00000000000E+00  0.00000000000E+00  0.45593999997E+02  0.45594000000E+02  0.51100000000E-03 0. -1.
         11   -1    0    0    0    0 -0.00000000000E+00 -0.00000000000E+00 -0.45593999997E+02  0.45594000000E+02  0.51100000000E-03 0.  1.
    9900012    2    1    2    0    0  0.16611646029E+02 -0.54468740444E+01  0.39724172757E+02  0.47787249754E+02  0.19999902930E+02 0.  0.
        -12    1    1    2    0    0 -0.16611646029E+02  0.54468740444E+01 -0.39724172757E+02  0.43400750246E+02  0.00000000000E+00 0.  1.
         11    1    3    3    0    0  0.10789027311E+02 -0.33098098417E+00  0.30370821520E+02  0.32231963310E+02  0.51100000000E-03 0. -1.
        -11    1    3    3    0    0 -0.11307423651E+01 -0.15273126747E+00 -0.14098948969E+01  0.18137555010E+01  0.51100000000E-03 0.  1.
        -12    1    3    3    0    0  0.69533610833E+01 -0.49631617928E+01  0.10763246134E+02  0.13741530944E+02  0.00000000000E+00 0.  1.
</event>
<event>
 7    1  0.2598019E-009  0.4778728E+02  0.7816164E-02  0.1312668E+00
        -11   -1    0    0    0    0  0.00000000000E+00  0.00000000000E+00  0.45593999997E+02  0.45594000000E+02  0.51100000000E-03 0.  1.
         11   -1    0    0    0    0 -0.00000000000E+00 -0.00000000000E+00 -0.45593999997E+02  0.45594000000E+02  0.51100000000E-03 0. -1.
    9900012    2    1    2    0    0  0.17301880950E+02 -0.25314699957E+02 -0.30715359521E+02  0.47787280780E+02  0.20000044388E+02 0.  0.
        -12    1    1    2    0    0 -0.17301880950E+02  0.25314699957E+02  0.30715359521E+02  0.43400719220E+02  0.00000000000E+00 0.  1.
         11    1    3    3    0    0 -0.18438172237E+01 -0.61850816804E+01 -0.83952717534E+00  0.65084332590E+01  0.51100000000E-03 0. -1.
        -11    1    3    3    0    0  0.18626862127E+01 -0.44020281717E+01 -0.16578206145E+01  0.50592313055E+01  0.51100000000E-03 0.  1.
         12    1    3    3    0    0  0.17283011961E+02 -0.14727590105E+02 -0.28218011731E+02  0.36219616215E+02  0.00000000000E+00 0. -1.
</event>
<event>
 7    1  0.2598019E-009  0.4778727E+02  0.7816164E-02  0.1312668E+00
        -11   -1    0    0    0    0  0.00000000000E+00  0.00000000000E+00  0.45593999997E+02  0.45594000000E+02  0.51100000000E-03 0.  1.
         11   -1    0    0    0    0 -0.00000000000E+00 -0.00000000000E+00 -0.45593999997E+02  0.45594000000E+02  0.51100000000E-03 0. -1.
    9900012    2    1    2    0    0  0.67732863758E+01 -0.11743733452E+02 -0.41229002022E+02  0.47787270842E+02  0.19999999079E+02 0.  0.
        -12    1    1    2    0    0 -0.67732863758E+01  0.11743733452E+02  0.41229002022E+02  0.43400729158E+02  0.00000000000E+00 0.  1.
         11    1    3    3    0    0  0.11125598116E+01 -0.71734446475E+01 -0.27617518126E+02  0.28555619502E+02  0.51100000000E-03 0. -1.
        -11    1    3    3    0    0  0.95040389088E-01  0.32743810974E+01 -0.11111607935E+01  0.34590869918E+01  0.51100000000E-03 0.  1.
        -12    1    3    3    0    0  0.55656861751E+01 -0.78446699019E+01 -0.12500323102E+02  0.15772564349E+02  0.00000000000E+00 0.  1.
</event>
<event>
 7    1  0.2598019E-009  0.4778727E+02  0.7816164E-02  0.1312668E+00
        -11   -1    0    0    0    0  0.00000000000E+00  0.00000000000E+00  0.45593999997E+02  0.45594000000E+02  0.51100000000E-03 0.  1.
         11   -1    0    0    0    0 -0.00000000000E+00 -0.00000000000E+00 -0.45593999997E+02  0.45594000000E+02  0.51100000000E-03 0. -1.
    9900012    2    1    2    0    0  0.30798997633E+02  0.27692323151E+02 -0.12968440755E+02  0.47787268759E+02  0.19999989578E+02 0.  0.
        -12    1    1    2    0    0 -0.30798997633E+02 -0.27692323151E+02  0.12968440755E+02  0.43400731241E+02  0.00000000000E+00 0.  1.
         11    1    3    3    0    0  0.18784704622E+02  0.16465399896E+02 -0.13748182800E+02  0.28512927805E+02  0.51100000000E-03 0. -1.
        -11    1    3    3    0    0  0.11182100699E+02  0.10153776704E+02  0.41305008521E+01  0.15658850371E+02  0.51100000000E-03 0.  1.
        -12    1    3    3    0    0  0.83219231176E+00  0.10731465504E+01 -0.33507588072E+01  0.36154905817E+01  0.00000000000E+00 0.  1.
</event>
<event>
 7    1  0.2598019E-009  0.4778727E+02  0.7816164E-02  0.1312668E+00
        -11   -1    0    0    0    0  0.00000000000E+00  0.00000000000E+00  0.45593999997E+02  0.45594000000E+02  0.51100000000E-03 0.  1.
         11   -1    0    0    0    0 -0.00000000000E+00 -0.00000000000E+00 -0.45593999997E+02  0.45594000000E+02  0.51100000000E-03 0. -1.
    9900012    2    1    2    0    0 -0.23085039610E+02  0.98793955230E+01 -0.35399175627E+02  0.47787272532E+02  0.20000006781E+02 0.  0.
        -12    1    1    2    0    0  0.23085039610E+02 -0.98793955230E+01  0.35399175627E+02  0.43400727468E+02  0.00000000000E+00 0.  1.
         11    1    3    3    0    0 -0.87981886165E+01  0.77048204619E+01 -0.25033520639E+02  0.27630590604E+02  0.51100000000E-03 0. -1.
        -11    1    3    3    0    0 -0.15529773894E+02  0.11159156560E+01 -0.87515037683E+01  0.17860794031E+02  0.51100000000E-03 0.  1.
         12    1    3    3    0    0  0.12429229005E+01  0.10586594051E+01 -0.16141512191E+01  0.22958878960E+01  0.00000000000E+00 0. -1.
</event>
<event>
 7    1  0.2598019E-009  0.4778727E+02  0.7816164E-02  0.1312668E+00
        -11   -1    0    0    0    0  0.00000000000E+00  0.00000000000E+00  0.45593999997E+02  0.45594000000E+02  0.51100000000E-03 0.  1.
         11   -1    0    0    0    0 -0.00000000000E+00 -0.00000000000E+00 -0.45593999997E+02  0.45594000000E+02  0.51100000000E-03 0. -1.
    9900012    2    1    2    0    0  0.28451536495E+02 -0.16682846890E+02 -0.28210210461E+02  0.47787270933E+02  0.19999999492E+02 0.  0.
        -12    1    1    2    0    0 -0.28451536495E+02  0.16682846890E+02  0.28210210461E+02  0.43400729067E+02  0.00000000000E+00 0.  1.
         11    1    3    3    0    0  0.21455780338E+01 -0.90066673235E+01 -0.36664015731E+01  0.99582158106E+01  0.51100000000E-03 0.  1.
        -11    1    3    3    0    0  0.21466785246E+02 -0.93924091003E+01 -0.21814383683E+02  0.32014177379E+02  0.51100000000E-03 0. -1.
        -12    1    3    3    0    0  0.48391732155E+01  0.17162295343E+01 -0.27294252048E+01  0.58148777435E+01  0.00000000000E+00 0.  1.
</event>
<event>
 7    1  0.2598019E-009  0.4778732E+02  0.7816164E-02  0.1312668E+00
        -11   -1    0    0    0    0  0.00000000000E+00  0.00000000000E+00  0.45593999997E+02  0.45594000000E+02  0.51100000000E-03 0. -1.
         11   -1    0    0    0    0 -0.00000000000E+00 -0.00000000000E+00 -0.45593999997E+02  0.45594000000E+02  0.51100000000E-03 0.  1.
    9900012    2    1    2    0    0  0.41927353676E+02 -0.36699942626E+00  0.11206306464E+02  0.47787320519E+02  0.20000225573E+02 0.  0.
        -12    1    1    2    0    0 -0.41927353676E+02  0.36699942626E+00 -0.11206306464E+02  0.43400679481E+02  0.00000000000E+00 0.  1.
         11    1    3    3    0    0  0.91572426699E+01 -0.12000783776E+01  0.11775296294E+02  0.14965055446E+02  0.51100000000E-03 0. -1.
        -11    1    3    3    0    0  0.25352089363E+02  0.24483439384E+00  0.72295960920E-01  0.25353374646E+02  0.51100000000E-03 0.  1.
         12    1    3    3    0    0  0.74180216427E+01  0.58824455753E+00 -0.64128579057E+00  0.74688904274E+01  0.00000000000E+00 0. -1.
</event>
<event>
 7    1  0.2598019E-009  0.4778727E+02  0.7816164E-02  0.1312668E+00
        -11   -1    0    0    0    0  0.00000000000E+00  0.00000000000E+00  0.45593999997E+02  0.45594000000E+02  0.51100000000E-03 0. -1.
         11   -1    0    0    0    0 -0.00000000000E+00 -0.00000000000E+00 -0.45593999997E+02  0.45594000000E+02  0.51100000000E-03 0.  1.
    9900012    2    1    2    0    0  0.85825914671E+01  0.39327147029E+01  0.42361493857E+02  0.47787270939E+02  0.19999999521E+02 0.  0.
        -12    1    1    2    0    0 -0.85825914671E+01 -0.39327147029E+01 -0.42361493857E+02  0.43400729061E+02  0.00000000000E+00 0.  1.
         11    1    3    3    0    0 -0.91576685478E+00 -0.58422520586E+01  0.61011281705E+01  0.84967230897E+01  0.51100000000E-03 0. -1.
        -11    1    3    3    0    0  0.35678026503E+01  0.62385586972E+01  0.11291886936E+02  0.13384899746E+02  0.51100000000E-03 0.  1.
         12    1    3    3    0    0  0.59305556715E+01  0.35364080644E+01  0.24968478750E+02  0.25905648104E+02  0.00000000000E+00 0. -1.
</event>
<event>
 7    1  0.2598019E-009  0.4778727E+02  0.7816164E-02  0.1312668E+00
        -11   -1    0    0    0    0  0.00000000000E+00  0.00000000000E+00  0.45593999997E+02  0.45594000000E+02  0.51100000000E-03 0.  1.
         11   -1    0    0    0    0 -0.00000000000E+00 -0.00000000000E+00 -0.45593999997E+02  0.45594000000E+02  0.51100000000E-03 0. -1.
    9900012    2    1    2    0    0  0.24043596107E+02 -0.36046718994E+02  0.24825344102E+01  0.47787269118E+02  0.19999991218E+02 0.  0.
        -12    1    1    2    0    0 -0.24043596107E+02  0.36046718994E+02 -0.24825344102E+01  0.43400730882E+02  0.00000000000E+00 0.  1.
         11    1    3    3    0    0  0.53638558757E+01 -0.11494831094E+02  0.13092673698E+01  0.12752108572E+02  0.51100000000E-03 0. -1.
        -11    1    3    3    0    0  0.33963806079E+01 -0.14823345071E+02 -0.48192599414E+01  0.15952812510E+02  0.51100000000E-03 0.  1.
        -12    1    3    3    0    0  0.15283359623E+02 -0.97285428286E+01  0.59925269817E+01  0.19082348036E+02  0.00000000000E+00 0.  1.
</event>
<event>
 7    1  0.2598019E-009  0.4778727E+02  0.7816164E-02  0.1312668E+00
        -11   -1    0    0    0    0  0.00000000000E+00  0.00000000000E+00  0.45593999997E+02  0.45594000000E+02  0.51100000000E-03 0.  1.
         11   -1    0    0    0    0 -0.00000000000E+00 -0.00000000000E+00 -0.45593999997E+02  0.45594000000E+02  0.51100000000E-03 0. -1.
    9900012    2    1    2    0    0  0.23489849536E+02 -0.19210387714E+02 -0.31029199536E+02  0.47787271305E+02  0.20000001189E+02 0.  0.
        -12    1    1    2    0    0 -0.23489849536E+02  0.19210387714E+02  0.31029199536E+02  0.43400728695E+02  0.00000000000E+00 0.  1.
         11    1    3    3    0    0  0.10576879868E+01 -0.17934744971E+01  0.57113397241E+00  0.21590388891E+01  0.51100000000E-03 0. -1.
        -11    1    3    3    0    0  0.13596928049E+01  0.12062955540E+01 -0.10010341299E+02  0.10174028045E+02  0.51100000000E-03 0.  1.
        -12    1    3    3    0    0  0.21072468745E+02 -0.18623208771E+02 -0.21589992210E+02  0.35454204371E+02  0.00000000000E+00 0.  1.
</event>
<event>
 7    1  0.2598019E-009  0.4778728E+02  0.7816164E-02  0.1312668E+00
        -11   -1    0    0    0    0  0.00000000000E+00  0.00000000000E+00  0.45593999997E+02  0.45594000000E+02  0.51100000000E-03 0.  1.
         11   -1    0    0    0    0 -0.00000000000E+00 -0.00000000000E+00 -0.45593999997E+02  0.45594000000E+02  0.51100000000E-03 0. -1.
    9900012    2    1    2    0    0 -0.39823315716E+02 -0.15764373370E+02 -0.70150529271E+01  0.47787275238E+02  0.20000019118E+02 0.  0.
        -12    1    1    2    0    0  0.39823315716E+02  0.15764373370E+02  0.70150529271E+01  0.43400724762E+02  0.00000000000E+00 0.  1.
         11    1    3    3    0    0 -0.32432996743E+02 -0.16370245839E+02 -0.12389220383E+02  0.38384593374E+02  0.51100000000E-03 0. -1.
        -11    1    3    3    0    0 -0.41819850887E+01  0.13327519324E+01  0.35210912734E+01  0.56270161730E+01  0.51100000000E-03 0.  1.
         12    1    3    3    0    0 -0.32083338843E+01 -0.72687946369E+00  0.18530761827E+01  0.37756656906E+01  0.00000000000E+00 0. -1.
</event>
<event>
 7    1  0.2598019E-009  0.4778727E+02  0.7816164E-02  0.1312668E+00
        -11   -1    0    0    0    0  0.00000000000E+00  0.00000000000E+00  0.45593999997E+02  0.45594000000E+02  0.51100000000E-03 0.  1.
         11   -1    0    0    0    0 -0.00000000000E+00 -0.00000000000E+00 -0.45593999997E+02  0.45594000000E+02  0.51100000000E-03 0. -1.
    9900012    2    1    2    0    0  0.97319147257E+01  0.32054390541E+02 -0.27594009907E+02  0.47787268441E+02  0.19999988128E+02 0.  0.
        -12    1    1    2    0    0 -0.97319147257E+01 -0.32054390541E+02  0.27594009907E+02  0.43400731559E+02  0.00000000000E+00 0.  1.
         11    1    3    3    0    0  0.50076912152E+01  0.22105874222E+02 -0.16036469312E+02  0.27765356016E+02  0.51100000000E-03 0. -1.
        -11    1    3    3    0    0  0.70350915057E+01  0.32128450035E+01 -0.17974039965E+01  0.79401225997E+01  0.51100000000E-03 0.  1.
         12    1    3    3    0    0 -0.23108679951E+01  0.67356713149E+01 -0.97601365988E+01  0.12081789825E+02  0.00000000000E+00 0. -1.
</event>
<event>
 7    1  0.2598019E-009  0.4778727E+02  0.7816164E-02  0.1312668E+00
        -11   -1    0    0    0    0  0.00000000000E+00  0.00000000000E+00  0.45593999997E+02  0.45594000000E+02  0.51100000000E-03 0.  1.
         11   -1    0    0    0    0 -0.00000000000E+00 -0.00000000000E+00 -0.45593999997E+02  0.45594000000E+02  0.51100000000E-03 0. -1.
    9900012    2    1    2    0    0 -0.13715032150E+02  0.12873650935E+02 -0.39112535130E+02  0.47787269596E+02  0.19999993397E+02 0.  0.
        -12    1    1    2    0    0  0.13715032150E+02 -0.12873650935E+02  0.39112535130E+02  0.43400730404E+02  0.00000000000E+00 0.  1.
         11    1    3    3    0    0  0.47410364989E+00 -0.65455692383E+00 -0.11146340200E+02  0.11175603749E+02  0.51100000000E-03 0. -1.
        -11    1    3    3    0    0 -0.52460755270E+01  0.13708360659E+02 -0.16983755062E+02  0.22447458579E+02  0.51100000000E-03 0.  1.
        -12    1    3    3    0    0 -0.89430602732E+01 -0.18015280010E+00 -0.10982439868E+02  0.14164207268E+02  0.00000000000E+00 0.  1.
</event>
<event>
 7    1  0.2598019E-009  0.4778726E+02  0.7816164E-02  0.1312668E+00
        -11   -1    0    0    0    0  0.00000000000E+00  0.00000000000E+00  0.45593999997E+02  0.45594000000E+02  0.51100000000E-03 0. -1.
         11   -1    0    0    0    0 -0.00000000000E+00 -0.00000000000E+00 -0.45593999997E+02  0.45594000000E+02  0.51100000000E-03 0.  1.
    9900012    2    1    2    0    0 -0.33714383265E+02  0.14724397518E+02 -0.23025123863E+02  0.47787264406E+02  0.19999969732E+02 0.  0.
        -12    1    1    2    0    0  0.33714383265E+02 -0.14724397518E+02  0.23025123863E+02  0.43400735594E+02  0.00000000000E+00 0.  1.
         11    1    3    3    0    0 -0.25501701002E+02  0.15290202253E+02 -0.98132794084E+01  0.31311778805E+02  0.51100000000E-03 0. -1.
        -11    1    3    3    0    0 -0.13378123164E+01 -0.22196654218E+01 -0.50534356085E+01  0.56792489019E+01  0.51100000000E-03 0.  1.
         12    1    3    3    0    0 -0.68748699466E+01  0.16538606865E+01 -0.81584088461E+01  0.10796236699E+02  0.00000000000E+00 0. -1.
</event>
<event>
 7    1  0.2598019E-009  0.4778727E+02  0.7816164E-02  0.1312668E+00
        -11   -1    0    0    0    0  0.00000000000E+00  0.00000000000E+00  0.45593999997E+02  0.45594000000E+02  0.51100000000E-03 0. -1.
         11   -1    0    0    0    0 -0.00000000000E+00 -0.00000000000E+00 -0.45593999997E+02  0.45594000000E+02  0.51100000000E-03 0.  1.
    9900012    2    1    2    0    0 -0.89381028593E+01  0.29204936382E+02  0.30835131855E+02  0.47787270186E+02  0.19999996087E+02 0.  0.
        -12    1    1    2    0    0  0.89381028593E+01 -0.29204936382E+02 -0.30835131855E+02  0.43400729814E+02  0.00000000000E+00 0.  1.
         11    1    3    3    0    0 -0.57744853516E+01  0.15155750147E+02  0.13495974435E+02  0.21099354725E+02  0.51100000000E-03 0. -1.
        -11    1    3    3    0    0 -0.44256520871E+01  0.13526591108E+02  0.62994124337E+01  0.15563986015E+02  0.51100000000E-03 0.  1.
         12    1    3    3    0    0  0.12620345794E+01  0.52259512704E+00  0.11039744987E+02  0.11123929446E+02  0.00000000000E+00 0. -1.
</event>
<event>
 7    1  0.2598019E-009  0.4778727E+02  0.7816164E-02  0.1312668E+00
        -11   -1    0    0    0    0  0.00000000000E+00  0.00000000000E+00  0.45593999997E+02  0.45594000000E+02  0.51100000000E-03 0.  1.
         11   -1    0    0    0    0 -0.00000000000E+00 -0.00000000000E+00 -0.45593999997E+02  0.45594000000E+02  0.51100000000E-03 0. -1.
    9900012    2    1    2    0    0  0.40946249284E+02 -0.62658408123E+01 -0.12952498180E+02  0.47787270737E+02  0.19999998598E+02 0.  0.
        -12    1    1    2    0    0 -0.40946249284E+02  0.62658408123E+01  0.12952498180E+02  0.43400729263E+02  0.00000000000E+00 0.  1.
         11    1    3    3    0    0 -0.15048771719E+01  0.23941049773E+00 -0.37704938360E+00  0.15697576844E+01  0.51100000000E-03 0. -1.
        -11    1    3    3    0    0  0.44509630784E+01 -0.90078951058E-01  0.21730341797E+01  0.49539140435E+01  0.51100000000E-03 0.  1.
         12    1    3    3    0    0  0.38000163377E+02 -0.64151723590E+01 -0.14748482976E+02  0.41263599009E+02  0.00000000000E+00 0. -1.
</event>
<event>
 7    1  0.2598019E-009  0.4778726E+02  0.7816164E-02  0.1312668E+00
        -11   -1    0    0    0    0  0.00000000000E+00  0.00000000000E+00  0.45593999997E+02  0.45594000000E+02  0.51100000000E-03 0.  1.
         11   -1    0    0    0    0 -0.00000000000E+00 -0.00000000000E+00 -0.45593999997E+02  0.45594000000E+02  0.51100000000E-03 0. -1.
    9900012    2    1    2    0    0  0.19456904975E+02 -0.82897783104E+01 -0.37898984597E+02  0.47787255662E+02  0.19999929863E+02 0.  0.
        -12    1    1    2    0    0 -0.19456904975E+02  0.82897783104E+01  0.37898984597E+02  0.43400744338E+02  0.00000000000E+00 0.  1.
         11    1    3    3    0    0  0.16805380398E+02 -0.11868609079E+02 -0.22616665309E+02  0.30574470425E+02  0.51100000000E-03 0. -1.
        -11    1    3    3    0    0  0.40781454676E+00 -0.18064825295E+01 -0.57092181144E+01  0.60020716068E+01  0.51100000000E-03 0.  1.
         12    1    3    3    0    0  0.22437100300E+01  0.53853132977E+01 -0.95731011736E+01  0.11210713630E+02  0.00000000000E+00 0. -1.
</event>
<event>
 7    1  0.2598019E-009  0.4778727E+02  0.7816164E-02  0.1312668E+00
        -11   -1    0    0    0    0  0.00000000000E+00  0.00000000000E+00  0.45593999997E+02  0.45594000000E+02  0.51100000000E-03 0.  1.
         11   -1    0    0    0    0 -0.00000000000E+00 -0.00000000000E+00 -0.45593999997E+02  0.45594000000E+02  0.51100000000E-03 0. -1.
    9900012    2    1    2    0    0  0.24572239619E+02  0.11566366070E+02 -0.33853327674E+02  0.47787267535E+02  0.19999983997E+02 0.  0.
        -12    1    1    2    0    0 -0.24572239619E+02 -0.11566366070E+02  0.33853327674E+02  0.43400732465E+02  0.00000000000E+00 0.  1.
         11    1    3    3    0    0 -0.13932184479E+01  0.66529892376E+00 -0.38559460801E+01  0.41535527847E+01  0.51100000000E-03 0. -1.
        -11    1    3    3    0    0  0.27531348909E+02  0.88984477185E+01 -0.26016378862E+02  0.38910275171E+02  0.51100000000E-03 0.  1.
        -12    1    3    3    0    0 -0.15658908424E+01  0.20026194277E+01 -0.39810027318E+01  0.47234395787E+01  0.00000000000E+00 0.  1.
</event>
<event>
 7    1  0.2598019E-009  0.4778727E+02  0.7816164E-02  0.1312668E+00
        -11   -1    0    0    0    0  0.00000000000E+00  0.00000000000E+00  0.45593999997E+02  0.45594000000E+02  0.51100000000E-03 0.  1.
         11   -1    0    0    0    0 -0.00000000000E+00 -0.00000000000E+00 -0.45593999997E+02  0.45594000000E+02  0.51100000000E-03 0. -1.
    9900012    2    1    2    0    0 -0.23351289775E+02 -0.36474259783E+02 -0.28229902455E+01  0.47787266886E+02  0.19999981042E+02 0.  0.
        -12    1    1    2    0    0  0.23351289775E+02  0.36474259783E+02  0.28229902455E+01  0.43400733114E+02  0.00000000000E+00 0.  1.
         11    1    3    3    0    0 -0.23699979010E+01 -0.12837409694E+01  0.63165811304E+00  0.27683701270E+01  0.51100000000E-03 0. -1.
        -11    1    3    3    0    0 -0.13587202031E+02 -0.87185258376E+01 -0.64211932006E+01  0.17374017215E+02  0.51100000000E-03 0.  1.
        -12    1    3    3    0    0 -0.73940898432E+01 -0.26471992976E+02  0.29665448421E+01  0.27644879544E+02  0.00000000000E+00 0.  1.
</event>
<event>
 7    1  0.2598019E-009  0.4778727E+02  0.7816164E-02  0.1312668E+00
        -11   -1    0    0    0    0  0.00000000000E+00  0.00000000000E+00  0.45593999997E+02  0.45594000000E+02  0.51100000000E-03 0.  1.
         11   -1    0    0    0    0 -0.00000000000E+00 -0.00000000000E+00 -0.45593999997E+02  0.45594000000E+02  0.51100000000E-03 0. -1.
    9900012    2    1    2    0    0 -0.37268616861E+02 -0.22190918538E+02  0.14956678967E+01  0.47787266241E+02  0.19999978101E+02 0.  0.
        -12    1    1    2    0    0  0.37268616861E+02  0.22190918538E+02 -0.14956678967E+01  0.43400733759E+02  0.00000000000E+00 0.  1.
         11    1    3    3    0    0 -0.21466074066E+02 -0.11145366645E+02  0.86064593508E+01  0.25672605560E+02  0.51100000000E-03 0. -1.
        -11    1    3    3    0    0 -0.16508896751E+02 -0.90847742031E+01 -0.66296959917E+01  0.19975726857E+02  0.51100000000E-03 0.  1.
        -12    1    3    3    0    0  0.70635395526E+00 -0.19607776904E+01 -0.48109546249E+00  0.21389338244E+01  0.00000000000E+00 0.  1.
</event>
<event>
 7    1  0.2598019E-009  0.4778727E+02  0.7816164E-02  0.1312668E+00
        -11   -1    0    0    0    0  0.00000000000E+00  0.00000000000E+00  0.45593999997E+02  0.45594000000E+02  0.51100000000E-03 0.  1.
         11   -1    0    0    0    0 -0.00000000000E+00 -0.00000000000E+00 -0.45593999997E+02  0.45594000000E+02  0.51100000000E-03 0. -1.
    9900012    2    1    2    0    0  0.45299047825E+01  0.19542028893E+02 -0.38486524237E+02  0.47787268687E+02  0.19999989253E+02 0.  0.
        -12    1    1    2    0    0 -0.45299047825E+01 -0.19542028893E+02  0.38486524237E+02  0.43400731313E+02  0.00000000000E+00 0.  1.
         11    1    3    3    0    0 -0.23398361977E+01  0.11230634126E+02 -0.24471145005E+02  0.27026633427E+02  0.51100000000E-03 0. -1.
        -11    1    3    3    0    0  0.15948749405E+01  0.67422066388E+01 -0.15001034758E+01  0.70888142264E+01  0.51100000000E-03 0.  1.
        -12    1    3    3    0    0  0.52748660396E+01  0.15691881288E+01 -0.12515275757E+02  0.13671821034E+02  0.00000000000E+00 0.  1.
</event>
<event>
 7    1  0.2598019E-009  0.4778729E+02  0.7816164E-02  0.1312668E+00
        -11   -1    0    0    0    0  0.00000000000E+00  0.00000000000E+00  0.45593999997E+02  0.45594000000E+02  0.51100000000E-03 0. -1.
         11   -1    0    0    0    0 -0.00000000000E+00 -0.00000000000E+00 -0.45593999997E+02  0.45594000000E+02  0.51100000000E-03 0.  1.
    9900012    2    1    2    0    0 -0.28722517212E+02  0.10730997870E+02 -0.30716192839E+02  0.47787287877E+02  0.20000076744E+02 0.  0.
        -12    1    1    2    0    0  0.28722517212E+02 -0.10730997870E+02  0.30716192839E+02  0.43400712123E+02  0.00000000000E+00 0.  1.
         11    1    3    3    0    0 -0.44220818283E+01  0.18860513425E+01 -0.11789570134E+00  0.48089392823E+01  0.51100000000E-03 0. -1.
        -11    1    3    3    0    0 -0.20254220974E+02  0.63131987733E+01 -0.31638694970E+02  0.38093266671E+02  0.51100000000E-03 0.  1.
        -12    1    3    3    0    0 -0.40462144105E+01  0.25317477540E+01  0.10403978326E+01  0.48850819232E+01  0.00000000000E+00 0.  1.
</event>
<event>
 7    1  0.2598019E-009  0.4778727E+02  0.7816164E-02  0.1312668E+00
        -11   -1    0    0    0    0  0.00000000000E+00  0.00000000000E+00  0.45593999997E+02  0.45594000000E+02  0.51100000000E-03 0.  1.
         11   -1    0    0    0    0 -0.00000000000E+00 -0.00000000000E+00 -0.45593999997E+02  0.45594000000E+02  0.51100000000E-03 0. -1.
    9900012    2    1    2    0    0  0.24917427568E+01 -0.40835426498E+02 -0.14487309428E+02  0.47787274503E+02  0.20000015769E+02 0.  0.
        -12    1    1    2    0    0 -0.24917427568E+01  0.40835426498E+02  0.14487309428E+02  0.43400725497E+02  0.00000000000E+00 0.  1.
         11    1    3    3    0    0 -0.49312142818E+01 -0.27467676111E+02 -0.16073678227E+02  0.32204863565E+02  0.51100000000E-03 0. -1.
        -11    1    3    3    0    0  0.50856408641E+01 -0.65685887628E+01  0.66253256355E+00  0.83336097216E+01  0.51100000000E-03 0.  1.
         12    1    3    3    0    0  0.23373161744E+01 -0.67991616237E+01  0.92383623551E+00  0.72488012163E+01  0.00000000000E+00 0. -1.
</event>
<event>
 7    1  0.2598019E-009  0.4778728E+02  0.7816164E-02  0.1312668E+00
        -11   -1    0    0    0    0  0.00000000000E+00  0.00000000000E+00  0.45593999997E+02  0.45594000000E+02  0.51100000000E-03 0. -1.
         11   -1    0    0    0    0 -0.00000000000E+00 -0.00000000000E+00 -0.45593999997E+02  0.45594000000E+02  0.51100000000E-03 0.  1.
    9900012    2    1    2    0    0  0.24211261441E+02 -0.13997448025E+02  0.33188987436E+02  0.47787278592E+02  0.20000034411E+02 0.  0.
        -12    1    1    2    0    0 -0.24211261441E+02  0.13997448025E+02 -0.33188987436E+02  0.43400721408E+02  0.00000000000E+00 0.  1.
         11    1    3    3    0    0  0.13071930691E+02  0.48046619453E+00  0.16811060032E+02  0.21300656314E+02  0.51100000000E-03 0. -1.
        -11    1    3    3    0    0 -0.11872477522E+01  0.36160178827E+00  0.22697525403E+01  0.25869074072E+01  0.51100000000E-03 0.  1.
         12    1    3    3    0    0  0.12326578502E+02 -0.14839516008E+02  0.14108174863E+02  0.23899714870E+02  0.00000000000E+00 0. -1.
</event>
<event>
 7    1  0.2598019E-009  0.4778727E+02  0.7816164E-02  0.1312668E+00
        -11   -1    0    0    0    0  0.00000000000E+00  0.00000000000E+00  0.45593999997E+02  0.45594000000E+02  0.51100000000E-03 0.  1.
         11   -1    0    0    0    0 -0.00000000000E+00 -0.00000000000E+00 -0.45593999997E+02  0.45594000000E+02  0.51100000000E-03 0. -1.
    9900012    2    1    2    0    0 -0.31825454407E+02  0.17281285231E+01 -0.29458057817E+02  0.47787272509E+02  0.20000006679E+02 0.  0.
        -12    1    1    2    0    0  0.31825454407E+02 -0.17281285231E+01  0.29458057817E+02  0.43400727491E+02  0.00000000000E+00 0.  1.
         11    1    3    3    0    0 -0.14973882469E+02  0.63737795737E+01 -0.99698517960E+01  0.19085077085E+02  0.51100000000E-03 0. -1.
        -11    1    3    3    0    0 -0.12492518332E+02 -0.75576340059E+01 -0.18146249551E+02  0.23290925680E+02  0.51100000000E-03 0.  1.
        -12    1    3    3    0    0 -0.43590536057E+01  0.29119829553E+01 -0.13419564703E+01  0.54112697436E+01  0.00000000000E+00 0.  1.
</event>
<event>
 7    1  0.2598019E-009  0.4778727E+02  0.7816164E-02  0.1312668E+00
        -11   -1    0    0    0    0  0.00000000000E+00  0.00000000000E+00  0.45593999997E+02  0.45594000000E+02  0.51100000000E-03 0. -1.
         11   -1    0    0    0    0 -0.00000000000E+00 -0.00000000000E+00 -0.45593999997E+02  0.45594000000E+02  0.51100000000E-03 0.  1.
    9900012    2    1    2    0    0  0.92182914991E+01  0.62510675332E+01  0.41947231955E+02  0.47787274060E+02  0.20000013748E+02 0.  0.
        -12    1    1    2    0    0 -0.92182914991E+01 -0.62510675332E+01 -0.41947231955E+02  0.43400725940E+02  0.00000000000E+00 0.  1.
         11    1    3    3    0    0 -0.47380967527E+00  0.89207432801E+01  0.26258916982E+02  0.27736886589E+02  0.51100000000E-03 0. -1.
        -11    1    3    3    0    0 -0.11036442191E+01  0.35616215270E+00  0.78392314452E+00  0.13997920556E+01  0.51100000000E-03 0.  1.
         12    1    3    3    0    0  0.10795745393E+02 -0.30258378996E+01  0.14904391828E+02  0.18650595416E+02  0.00000000000E+00 0. -1.
</event>
<event>
 7    1  0.2598019E-009  0.4778729E+02  0.7816164E-02  0.1312668E+00
        -11   -1    0    0    0    0  0.00000000000E+00  0.00000000000E+00  0.45593999997E+02  0.45594000000E+02  0.51100000000E-03 0.  1.
         11   -1    0    0    0    0 -0.00000000000E+00 -0.00000000000E+00 -0.45593999997E+02  0.45594000000E+02  0.51100000000E-03 0. -1.
    9900012    2    1    2    0    0  0.31377974407E+02 -0.15048812761E+02 -0.25934103848E+02  0.47787288188E+02  0.20000078162E+02 0.  0.
        -12    1    1    2    0    0 -0.31377974407E+02  0.15048812761E+02  0.25934103848E+02  0.43400711812E+02  0.00000000000E+00 0.  1.
         11    1    3    3    0    0  0.24570906586E+02 -0.25090750605E+01 -0.15406533874E+02  0.29109898563E+02  0.51100000000E-03 0. -1.
        -11    1    3    3    0    0  0.74373575511E+01 -0.90530816121E+01 -0.68554684541E+01  0.13574609461E+02  0.51100000000E-03 0.  1.
        -12    1    3    3    0    0 -0.63028972968E+00 -0.34866560889E+01 -0.36721015199E+01  0.51027801636E+01  0.00000000000E+00 0.  1.
</event>
<event>
 7    1  0.2598019E-009  0.4778727E+02  0.7816164E-02  0.1312668E+00
        -11   -1    0    0    0    0  0.00000000000E+00  0.00000000000E+00  0.45593999997E+02  0.45594000000E+02  0.51100000000E-03 0.  1.
         11   -1    0    0    0    0 -0.00000000000E+00 -0.00000000000E+00 -0.45593999997E+02  0.45594000000E+02  0.51100000000E-03 0. -1.
    9900012    2    1    2    0    0 -0.20643173111E+02 -0.57128031395E+00 -0.38172718667E+02  0.47787269503E+02  0.19999992971E+02 0.  0.
        -12    1    1    2    0    0  0.20643173111E+02  0.57128031395E+00  0.38172718667E+02  0.43400730497E+02  0.00000000000E+00 0.  1.
         11    1    3    3    0    0 -0.66956436730E+01 -0.88549399739E+01 -0.15125658656E+02  0.18762386740E+02  0.51100000000E-03 0. -1.
        -11    1    3    3    0    0 -0.95864247610E+01  0.57217472690E+01 -0.98371549582E+01  0.14879769805E+02  0.51100000000E-03 0.  1.
         12    1    3    3    0    0 -0.43611046766E+01  0.25619123910E+01 -0.13209905053E+02  0.14145112959E+02  0.00000000000E+00 0. -1.
</event>
<event>
 7    1  0.2598019E-009  0.4778727E+02  0.7816164E-02  0.1312668E+00
        -11   -1    0    0    0    0  0.00000000000E+00  0.00000000000E+00  0.45593999997E+02  0.45594000000E+02  0.51100000000E-03 0.  1.
         11   -1    0    0    0    0 -0.00000000000E+00 -0.00000000000E+00 -0.45593999997E+02  0.45594000000E+02  0.51100000000E-03 0. -1.
    9900012    2    1    2    0    0 -0.21365223918E+02  0.33075194479E+02 -0.18253275309E+02  0.47787270254E+02  0.19999996398E+02 0.  0.
        -12    1    1    2    0    0  0.21365223918E+02 -0.33075194479E+02  0.18253275309E+02  0.43400729746E+02  0.00000000000E+00 0.  1.
         11    1    3    3    0    0 -0.15370246150E+02  0.18842870877E+02 -0.51753779189E+01  0.24861270814E+02  0.51100000000E-03 0. -1.
        -11    1    3    3    0    0 -0.22496112914E+01 -0.13474075989E+01 -0.30541732041E+01  0.40254481019E+01  0.51100000000E-03 0.  1.
        -12    1    3    3    0    0 -0.37453664769E+01  0.15579731201E+02 -0.10023724186E+02  0.18900551339E+02  0.00000000000E+00 0.  1.
</event>
<event>
 7    1  0.2598019E-009  0.4778727E+02  0.7816164E-02  0.1312668E+00
        -11   -1    0    0    0    0  0.00000000000E+00  0.00000000000E+00  0.45593999997E+02  0.45594000000E+02  0.51100000000E-03 0. -1.
         11   -1    0    0    0    0 -0.00000000000E+00 -0.00000000000E+00 -0.45593999997E+02  0.45594000000E+02  0.51100000000E-03 0.  1.
    9900012    2    1    2    0    0 -0.27740384140E+02  0.32479022345E+02 -0.76946237301E+01  0.47787273749E+02  0.20000012333E+02 0.  0.
        -12    1    1    2    0    0  0.27740384140E+02 -0.32479022345E+02  0.76946237301E+01  0.43400726251E+02  0.00000000000E+00 0.  1.
         11    1    3    3    0    0 -0.63370284385E+01  0.57725028067E+01  0.44991841179E+01  0.96810317669E+01  0.51100000000E-03 0. -1.
        -11    1    3    3    0    0 -0.99586095497E+01  0.66069392122E+01 -0.85428516045E+01  0.14690332321E+02  0.51100000000E-03 0.  1.
        -12    1    3    3    0    0 -0.11444746152E+02  0.20099580326E+02 -0.36509562436E+01  0.23415909661E+02  0.00000000000E+00 0.  1.
</event>
<event>
 7    1  0.2598019E-009  0.4778727E+02  0.7816164E-02  0.1312668E+00
        -11   -1    0    0    0    0  0.00000000000E+00  0.00000000000E+00  0.45593999997E+02  0.45594000000E+02  0.51100000000E-03 0.  1.
         11   -1    0    0    0    0 -0.00000000000E+00 -0.00000000000E+00 -0.45593999997E+02  0.45594000000E+02  0.51100000000E-03 0. -1.
    9900012    2    1    2    0    0 -0.85199865401E+01 -0.85161896323E+01 -0.41695412061E+02  0.47787273699E+02  0.20000012103E+02 0.  0.
        -12    1    1    2    0    0  0.85199865401E+01  0.85161896323E+01  0.41695412061E+02  0.43400726301E+02  0.00000000000E+00 0.  1.
         11    1    3    3    0    0 -0.63899321888E+01 -0.48904220639E+01 -0.36997715543E+02  0.37862625596E+02  0.51100000000E-03 0. -1.
        -11    1    3    3    0    0  0.21026226055E+01  0.10080012560E+01 -0.53094105452E+00  0.23914403646E+01  0.51100000000E-03 0.  1.
        -12    1    3    3    0    0 -0.42326769567E+01 -0.46337688243E+01 -0.41667554641E+01  0.75332077387E+01  0.00000000000E+00 0.  1.
</event>
<event>
 7    1  0.2598019E-009  0.4778727E+02  0.7816164E-02  0.1312668E+00
        -11   -1    0    0    0    0  0.00000000000E+00  0.00000000000E+00  0.45593999997E+02  0.45594000000E+02  0.51100000000E-03 0. -1.
         11   -1    0    0    0    0 -0.00000000000E+00 -0.00000000000E+00 -0.45593999997E+02  0.45594000000E+02  0.51100000000E-03 0.  1.
    9900012    2    1    2    0    0 -0.22707106645E+02  0.89578119303E+01  0.35885493020E+02  0.47787266180E+02  0.19999977822E+02 0.  0.
        -12    1    1    2    0    0  0.22707106645E+02 -0.89578119303E+01 -0.35885493020E+02  0.43400733820E+02  0.00000000000E+00 0.  1.
         11    1    3    3    0    0 -0.14608154262E+02  0.42889823076E+01  0.29078943658E+02  0.32823444437E+02  0.51100000000E-03 0. -1.
        -11    1    3    3    0    0  0.15209738239E+01 -0.73583398064E+00  0.27103099561E+01  0.31938367741E+01  0.51100000000E-03 0.  1.
         12    1    3    3    0    0 -0.96199262078E+01  0.54046636033E+01  0.40962394060E+01  0.11769984969E+02  0.00000000000E+00 0. -1.
</event>
<event>
 7    1  0.2598019E-009  0.4778727E+02  0.7816164E-02  0.1312668E+00
        -11   -1    0    0    0    0  0.00000000000E+00  0.00000000000E+00  0.45593999997E+02  0.45594000000E+02  0.51100000000E-03 0.  1.
         11   -1    0    0    0    0 -0.00000000000E+00 -0.00000000000E+00 -0.45593999997E+02  0.45594000000E+02  0.51100000000E-03 0. -1.
    9900012    2    1    2    0    0  0.64732674600E+01 -0.37353951311E+02 -0.21128229452E+02  0.47787274777E+02  0.20000017017E+02 0.  0.
        -12    1    1    2    0    0 -0.64732674600E+01  0.37353951311E+02  0.21128229452E+02  0.43400725223E+02  0.00000000000E+00 0.  1.
         11    1    3    3    0    0  0.25558499025E+00 -0.16014503931E+01  0.27912685604E+01  0.32281802128E+01  0.51100000000E-03 0. -1.
        -11    1    3    3    0    0  0.63737923475E+00 -0.12451828857E+02 -0.31728893140E+01  0.12865516742E+02  0.51100000000E-03 0.  1.
         12    1    3    3    0    0  0.55803032350E+01 -0.23300672060E+02 -0.20746608699E+02  0.31693577822E+02  0.00000000000E+00 0. -1.
</event>
<event>
 7    1  0.2598019E-009  0.4778728E+02  0.7816164E-02  0.1312668E+00
        -11   -1    0    0    0    0  0.00000000000E+00  0.00000000000E+00  0.45593999997E+02  0.45594000000E+02  0.51100000000E-03 0.  1.
         11   -1    0    0    0    0 -0.00000000000E+00 -0.00000000000E+00 -0.45593999997E+02  0.45594000000E+02  0.51100000000E-03 0. -1.
    9900012    2    1    2    0    0  0.25372022563E+02 -0.23776339048E+02 -0.25972464965E+02  0.47787276921E+02  0.20000026792E+02 0.  0.
        -12    1    1    2    0    0 -0.25372022563E+02  0.23776339048E+02  0.25972464965E+02  0.43400723079E+02  0.00000000000E+00 0.  1.
         11    1    3    3    0    0  0.13083702656E+02 -0.20746658869E+02 -0.81606460129E+01  0.25849628102E+02  0.51100000000E-03 0. -1.
        -11    1    3    3    0    0  0.60457105637E+01 -0.24922148254E+01 -0.92511721343E+01  0.11328986586E+02  0.51100000000E-03 0.  1.
         12    1    3    3    0    0  0.62426093433E+01 -0.53746535343E+00 -0.85606468173E+01  0.10608662232E+02  0.00000000000E+00 0. -1.
</event>
<event>
 7    1  0.2598019E-009  0.4778727E+02  0.7816164E-02  0.1312668E+00
        -11   -1    0    0    0    0  0.00000000000E+00  0.00000000000E+00  0.45593999997E+02  0.45594000000E+02  0.51100000000E-03 0. -1.
         11   -1    0    0    0    0 -0.00000000000E+00 -0.00000000000E+00 -0.45593999997E+02  0.45594000000E+02  0.51100000000E-03 0.  1.
    9900012    2    1    2    0    0  0.90471537423E+01 -0.38975515844E+02  0.16813131644E+02  0.47787271644E+02  0.20000002733E+02 0.  0.
        -12    1    1    2    0    0 -0.90471537423E+01  0.38975515844E+02 -0.16813131644E+02  0.43400728356E+02  0.00000000000E+00 0.  1.
         11    1    3    3    0    0 -0.19661011908E+01 -0.18145653483E+02  0.57908977422E+01  0.19148493182E+02  0.51100000000E-03 0. -1.
        -11    1    3    3    0    0  0.11398114795E+02 -0.99332099501E+01  0.88572874981E+01  0.17522477647E+02  0.51100000000E-03 0.  1.
        -12    1    3    3    0    0 -0.38485986187E+00 -0.10896652411E+02  0.21649464039E+01  0.11116300816E+02  0.00000000000E+00 0.  1.
</event>
<event>
 7    1  0.2598019E-009  0.4778728E+02  0.7816164E-02  0.1312668E+00
        -11   -1    0    0    0    0  0.00000000000E+00  0.00000000000E+00  0.45593999997E+02  0.45594000000E+02  0.51100000000E-03 0. -1.
         11   -1    0    0    0    0 -0.00000000000E+00 -0.00000000000E+00 -0.45593999997E+02  0.45594000000E+02  0.51100000000E-03 0.  1.
    9900012    2    1    2    0    0  0.35544467093E+02 -0.10124076588E+02  0.22753374924E+02  0.47787284129E+02  0.20000059656E+02 0.  0.
        -12    1    1    2    0    0 -0.35544467093E+02  0.10124076588E+02 -0.22753374924E+02  0.43400715871E+02  0.00000000000E+00 0.  1.
         11    1    3    3    0    0  0.72027311677E+01 -0.10670279383E+02  0.90607158897E+01  0.15742641807E+02  0.51100000000E-03 0. -1.
        -11    1    3    3    0    0  0.20174323333E+02  0.18505107469E+01  0.12174093050E+02  0.23635487171E+02  0.51100000000E-03 0.  1.
        -12    1    3    3    0    0  0.81674125923E+01 -0.13043079519E+01  0.15185659845E+01  0.84091551499E+01  0.00000000000E+00 0.  1.
</event>
<event>
 7    1  0.2598019E-009  0.4778727E+02  0.7816164E-02  0.1312668E+00
        -11   -1    0    0    0    0  0.00000000000E+00  0.00000000000E+00  0.45593999997E+02  0.45594000000E+02  0.51100000000E-03 0.  1.
         11   -1    0    0    0    0 -0.00000000000E+00 -0.00000000000E+00 -0.45593999997E+02  0.45594000000E+02  0.51100000000E-03 0. -1.
    9900012    2    1    2    0    0  0.32875756573E+02 -0.18458221925E+02 -0.21496551659E+02  0.47787273507E+02  0.20000011229E+02 0.  0.
        -12    1    1    2    0    0 -0.32875756573E+02  0.18458221925E+02  0.21496551659E+02  0.43400726493E+02  0.00000000000E+00 0.  1.
         11    1    3    3    0    0  0.17478299237E+02 -0.12278691224E+02 -0.72272549418E+01  0.22549732075E+02  0.51100000000E-03 0. -1.
        -11    1    3    3    0    0  0.19487448839E+01  0.34565270151E+01 -0.45987194502E+01  0.60739942766E+01  0.51100000000E-03 0.  1.
        -12    1    3    3    0    0  0.13448712452E+02 -0.96360577164E+01 -0.96705772666E+01  0.19163547156E+02  0.00000000000E+00 0.  1.
</event>
<event>
 7    1  0.2598019E-009  0.4778727E+02  0.7816164E-02  0.1312668E+00
        -11   -1    0    0    0    0  0.00000000000E+00  0.00000000000E+00  0.45593999997E+02  0.45594000000E+02  0.51100000000E-03 0.  1.
         11   -1    0    0    0    0 -0.00000000000E+00 -0.00000000000E+00 -0.45593999997E+02  0.45594000000E+02  0.51100000000E-03 0. -1.
    9900012    2    1    2    0    0  0.15797270411E+00  0.91298457026E+01 -0.42429288849E+02  0.47787267401E+02  0.19999983388E+02 0.  0.
        -12    1    1    2    0    0 -0.15797270411E+00 -0.91298457026E+01  0.42429288849E+02  0.43400732599E+02  0.00000000000E+00 0.  1.
         11    1    3    3    0    0 -0.75173690081E+01  0.79101375222E+01 -0.17398976288E+02  0.20537903704E+02  0.51100000000E-03 0. -1.
        -11    1    3    3    0    0  0.47386506511E+01 -0.87113117523E+00 -0.22055053004E+02  0.22575186440E+02  0.51100000000E-03 0.  1.
         12    1    3    3    0    0  0.29366910611E+01  0.20908393557E+01 -0.29752595561E+01  0.46741772566E+01  0.00000000000E+00 0. -1.
</event>
<event>
 7    1  0.2598019E-009  0.4778727E+02  0.7816164E-02  0.1312668E+00
        -11   -1    0    0    0    0  0.00000000000E+00  0.00000000000E+00  0.45593999997E+02  0.45594000000E+02  0.51100000000E-03 0. -1.
         11   -1    0    0    0    0 -0.00000000000E+00 -0.00000000000E+00 -0.45593999997E+02  0.45594000000E+02  0.51100000000E-03 0.  1.
    9900012    2    1    2    0    0 -0.80517098098E+01  0.19660208624E+02  0.37845336468E+02  0.47787270439E+02  0.19999997241E+02 0.  0.
        -12    1    1    2    0    0  0.80517098098E+01 -0.19660208624E+02 -0.37845336468E+02  0.43400729561E+02  0.00000000000E+00 0.  1.
         11    1    3    3    0    0 -0.39170320041E+01  0.31042582734E+01  0.48515275371E+01  0.69654058642E+01  0.51100000000E-03 0. -1.
        -11    1    3    3    0    0 -0.47731344729E+01  0.13105560062E+02  0.90594692681E+01  0.16631671621E+02  0.51100000000E-03 0.  1.
        -12    1    3    3    0    0  0.63845666713E+00  0.34503902892E+01  0.23934339663E+02  0.24190192954E+02  0.00000000000E+00 0.  1.
</event>
<event>
 7    1  0.2598019E-009  0.4778727E+02  0.7816164E-02  0.1312668E+00
        -11   -1    0    0    0    0  0.00000000000E+00  0.00000000000E+00  0.45593999997E+02  0.45594000000E+02  0.51100000000E-03 0.  1.
         11   -1    0    0    0    0 -0.00000000000E+00 -0.00000000000E+00 -0.45593999997E+02  0.45594000000E+02  0.51100000000E-03 0. -1.
    9900012    2    1    2    0    0  0.29500267958E+02 -0.26887926047E+02 -0.17041049216E+02  0.47787265731E+02  0.19999975774E+02 0.  0.
        -12    1    1    2    0    0 -0.29500267958E+02  0.26887926047E+02  0.17041049216E+02  0.43400734269E+02  0.00000000000E+00 0.  1.
         11    1    3    3    0    0  0.17820906813E+02 -0.23951342985E+02 -0.85190373530E+01  0.31045539907E+02  0.51100000000E-03 0. -1.
        -11    1    3    3    0    0  0.97667164477E+01 -0.11198454553E+01 -0.97377232775E+01  0.13837126107E+02  0.51100000000E-03 0.  1.
        -12    1    3    3    0    0  0.19126446979E+01 -0.18167376066E+01  0.12157114149E+01  0.29045997170E+01  0.00000000000E+00 0.  1.
</event>
<event>
 7    1  0.2598019E-009  0.4778727E+02  0.7816164E-02  0.1312668E+00
        -11   -1    0    0    0    0  0.00000000000E+00  0.00000000000E+00  0.45593999997E+02  0.45594000000E+02  0.51100000000E-03 0. -1.
         11   -1    0    0    0    0 -0.00000000000E+00 -0.00000000000E+00 -0.45593999997E+02  0.45594000000E+02  0.51100000000E-03 0.  1.
    9900012    2    1    2    0    0  0.18861621171E+02 -0.34151870790E+02  0.19013477066E+02  0.47787270262E+02  0.19999996433E+02 0.  0.
        -12    1    1    2    0    0 -0.18861621171E+02  0.34151870790E+02 -0.19013477066E+02  0.43400729738E+02  0.00000000000E+00 0.  1.
         11    1    3    3    0    0  0.75827048369E+00 -0.78393594314E+01  0.11898335660E+02  0.14268879499E+02  0.51100000000E-03 0. -1.
        -11    1    3    3    0    0  0.88872150021E+00 -0.26995272379E+00  0.15519415776E+01  0.18086523435E+01  0.51100000000E-03 0.  1.
         12    1    3    3    0    0  0.17214629187E+02 -0.26042558635E+02  0.55631998280E+01  0.31709738419E+02  0.00000000000E+00 0. -1.
</event>
<event>
 7    1  0.2598019E-009  0.4778727E+02  0.7816164E-02  0.1312668E+00
        -11   -1    0    0    0    0  0.00000000000E+00  0.00000000000E+00  0.45593999997E+02  0.45594000000E+02  0.51100000000E-03 0.  1.
         11   -1    0    0    0    0 -0.00000000000E+00 -0.00000000000E+00 -0.45593999997E+02  0.45594000000E+02  0.51100000000E-03 0. -1.
    9900012    2    1    2    0    0  0.20203941254E+02 -0.38410333335E+02 -0.26468227690E+00  0.47787274133E+02  0.20000014081E+02 0.  0.
        -12    1    1    2    0    0 -0.20203941254E+02  0.38410333335E+02  0.26468227690E+00  0.43400725867E+02  0.00000000000E+00 0.  1.
         11    1    3    3    0    0  0.16361793576E+02 -0.30096981142E+02  0.13233029946E+01  0.34282469193E+02  0.51100000000E-03 0. -1.
        -11    1    3    3    0    0 -0.20026247457E+01 -0.65303066223E+01 -0.26044031459E+01  0.73101522871E+01  0.51100000000E-03 0.  1.
        -12    1    3    3    0    0  0.58447724237E+01 -0.17830455704E+01  0.10164178744E+01  0.61946526526E+01  0.00000000000E+00 0.  1.
</event>
<event>
 7    1  0.2598019E-009  0.4778725E+02  0.7816164E-02  0.1312668E+00
        -11   -1    0    0    0    0  0.00000000000E+00  0.00000000000E+00  0.45593999997E+02  0.45594000000E+02  0.51100000000E-03 0.  1.
         11   -1    0    0    0    0 -0.00000000000E+00 -0.00000000000E+00 -0.45593999997E+02  0.45594000000E+02  0.51100000000E-03 0. -1.
    9900012    2    1    2    0    0 -0.32748684872E+02  0.74893992426E+01 -0.27478308674E+02  0.47787252202E+02  0.19999914088E+02 0.  0.
        -12    1    1    2    0    0  0.32748684872E+02 -0.74893992426E+01  0.27478308674E+02  0.43400747798E+02  0.00000000000E+00 0.  1.
         11    1    3    3    0    0 -0.58441115077E+01  0.88634709349E+01 -0.41912843813E+01  0.11414097483E+02  0.51100000000E-03 0. -1.
        -11    1    3    3    0    0 -0.17893020642E+02  0.21880479378E+00 -0.19508746483E+02  0.26472613260E+02  0.51100000000E-03 0.  1.
         12    1    3    3    0    0 -0.90115527216E+01 -0.15928764861E+01 -0.37782778106E+01  0.99005414584E+01  0.00000000000E+00 0. -1.
</event>
<event>
 7    1  0.2598019E-009  0.4778728E+02  0.7816164E-02  0.1312668E+00
        -11   -1    0    0    0    0  0.00000000000E+00  0.00000000000E+00  0.45593999997E+02  0.45594000000E+02  0.51100000000E-03 0.  1.
         11   -1    0    0    0    0 -0.00000000000E+00 -0.00000000000E+00 -0.45593999997E+02  0.45594000000E+02  0.51100000000E-03 0. -1.
    9900012    2    1    2    0    0 -0.20633481830E+01  0.42061933444E+02 -0.10495676286E+02  0.47787275681E+02  0.20000021138E+02 0.  0.
        -12    1    1    2    0    0  0.20633481830E+01 -0.42061933444E+02  0.10495676286E+02  0.43400724319E+02  0.00000000000E+00 0.  1.
         11    1    3    3    0    0 -0.65477140855E+00  0.11152441021E+02 -0.87937253825E+01  0.14217428484E+02  0.51100000000E-03 0. -1.
        -11    1    3    3    0    0 -0.62908654536E+00  0.10404704363E+02  0.55466532370E+01  0.11807581681E+02  0.51100000000E-03 0.  1.
        -12    1    3    3    0    0 -0.77949022912E+00  0.20504788060E+02 -0.72486041410E+01  0.21762265516E+02  0.00000000000E+00 0.  1.
</event>
<event>
 7    1  0.2598019E-009  0.4778728E+02  0.7816164E-02  0.1312668E+00
        -11   -1    0    0    0    0  0.00000000000E+00  0.00000000000E+00  0.45593999997E+02  0.45594000000E+02  0.51100000000E-03 0. -1.
         11   -1    0    0    0    0 -0.00000000000E+00 -0.00000000000E+00 -0.45593999997E+02  0.45594000000E+02  0.51100000000E-03 0.  1.
    9900012    2    1    2    0    0  0.49279828141E+01 -0.29448815211E+02  0.31497699563E+02  0.47787276392E+02  0.20000024381E+02 0.  0.
        -12    1    1    2    0    0 -0.49279828141E+01  0.29448815211E+02 -0.31497699563E+02  0.43400723608E+02  0.00000000000E+00 0.  1.
         11    1    3    3    0    0  0.99280643926E+01 -0.18845208887E+02  0.18389344145E+02  0.28140297420E+02  0.51100000000E-03 0. -1.
        -11    1    3    3    0    0  0.11327914604E+01 -0.54915124276E+01  0.91601162999E+01  0.10740002613E+02  0.51100000000E-03 0.  1.
         12    1    3    3    0    0 -0.61328730388E+01 -0.51120938972E+01  0.39482391179E+01  0.89069763588E+01  0.00000000000E+00 0. -1.
</event>
<event>
 7    1  0.2598019E-009  0.4778727E+02  0.7816164E-02  0.1312668E+00
        -11   -1    0    0    0    0  0.00000000000E+00  0.00000000000E+00  0.45593999997E+02  0.45594000000E+02  0.51100000000E-03 0. -1.
         11   -1    0    0    0    0 -0.00000000000E+00 -0.00000000000E+00 -0.45593999997E+02  0.45594000000E+02  0.51100000000E-03 0.  1.
    9900012    2    1    2    0    0 -0.64081443547E+01 -0.12710040461E+02  0.41000171596E+02  0.47787268284E+02  0.19999987416E+02 0.  0.
        -12    1    1    2    0    0  0.64081443547E+01  0.12710040461E+02 -0.41000171596E+02  0.43400731716E+02  0.00000000000E+00 0.  1.
         11    1    3    3    0    0 -0.80052973536E+01 -0.85169146000E+01  0.12895755195E+02  0.17404686792E+02  0.51100000000E-03 0. -1.
        -11    1    3    3    0    0 -0.82415421828E+00  0.33613400585E+01  0.10922662793E+02  0.11457853198E+02  0.51100000000E-03 0.  1.
         12    1    3    3    0    0  0.24213072171E+01 -0.75544659194E+01  0.17181753607E+02  0.18924728294E+02  0.00000000000E+00 0. -1.
</event>
<event>
 7    1  0.2598019E-009  0.4778727E+02  0.7816164E-02  0.1312668E+00
        -11   -1    0    0    0    0  0.00000000000E+00  0.00000000000E+00  0.45593999997E+02  0.45594000000E+02  0.51100000000E-03 0.  1.
         11   -1    0    0    0    0 -0.00000000000E+00 -0.00000000000E+00 -0.45593999997E+02  0.45594000000E+02  0.51100000000E-03 0. -1.
    9900012    2    1    2    0    0  0.42032348323E+01  0.17072664001E+02 -0.39679725322E+02  0.47787266818E+02  0.19999980729E+02 0.  0.
        -12    1    1    2    0    0 -0.42032348323E+01 -0.17072664001E+02  0.39679725322E+02  0.43400733182E+02  0.00000000000E+00 0.  1.
         11    1    3    3    0    0  0.19536856554E+01 -0.28765308824E+01 -0.68716814746E+01  0.77013845577E+01  0.51100000000E-03 0. -1.
        -11    1    3    3    0    0  0.70345293194E+00  0.19677445485E+02 -0.23555480262E+02  0.30701097008E+02  0.51100000000E-03 0.  1.
        -12    1    3    3    0    0  0.15460962450E+01  0.27174939862E+00 -0.92525635846E+01  0.93847852518E+01  0.00000000000E+00 0.  1.
</event>
<event>
 7    1  0.2598019E-009  0.4778725E+02  0.7816164E-02  0.1312668E+00
        -11   -1    0    0    0    0  0.00000000000E+00  0.00000000000E+00  0.45593999997E+02  0.45594000000E+02  0.51100000000E-03 0.  1.
         11   -1    0    0    0    0 -0.00000000000E+00 -0.00000000000E+00 -0.45593999997E+02  0.45594000000E+02  0.51100000000E-03 0. -1.
    9900012    2    1    2    0    0  0.21587230915E+02  0.13441848099E+02 -0.35170068297E+02  0.47787245135E+02  0.19999881866E+02 0.  0.
        -12    1    1    2    0    0 -0.21587230915E+02 -0.13441848099E+02  0.35170068297E+02  0.43400754865E+02  0.00000000000E+00 0.  1.
         11    1    3    3    0    0  0.27145725595E+01 -0.45390760873E+01 -0.45473171336E+01  0.69749701993E+01  0.51100000000E-03 0. -1.
        -11    1    3    3    0    0  0.30380482059E+01  0.22178802784E+01 -0.13707226367E+01  0.40034498421E+01  0.51100000000E-03 0.  1.
         12    1    3    3    0    0  0.15834610150E+02  0.15763043908E+02 -0.29252028526E+02  0.36808825093E+02  0.00000000000E+00 0. -1.
</event>
<event>
 7    1  0.2598019E-009  0.4778728E+02  0.7816164E-02  0.1312668E+00
        -11   -1    0    0    0    0  0.00000000000E+00  0.00000000000E+00  0.45593999997E+02  0.45594000000E+02  0.51100000000E-03 0.  1.
         11   -1    0    0    0    0 -0.00000000000E+00 -0.00000000000E+00 -0.45593999997E+02  0.45594000000E+02  0.51100000000E-03 0. -1.
    9900012    2    1    2    0    0 -0.88672608870E+01  0.19325843180E+02 -0.37835242810E+02  0.47787284237E+02  0.20000060150E+02 0.  0.
        -12    1    1    2    0    0  0.88672608870E+01 -0.19325843180E+02  0.37835242810E+02  0.43400715763E+02  0.00000000000E+00 0.  1.
         11    1    3    3    0    0 -0.11502674717E+01  0.53541812675E+01 -0.68751046673E+01  0.87896209673E+01  0.51100000000E-03 0. -1.
        -11    1    3    3    0    0  0.16013216338E+01  0.12211571920E+02 -0.24798848751E+02  0.27688799529E+02  0.51100000000E-03 0.  1.
        -12    1    3    3    0    0 -0.93183150490E+01  0.17600899921E+01 -0.61612893916E+01  0.11308863740E+02  0.00000000000E+00 0.  1.
</event>
<event>
 7    1  0.2598019E-009  0.4778727E+02  0.7816164E-02  0.1312668E+00
        -11   -1    0    0    0    0  0.00000000000E+00  0.00000000000E+00  0.45593999997E+02  0.45594000000E+02  0.51100000000E-03 0.  1.
         11   -1    0    0    0    0 -0.00000000000E+00 -0.00000000000E+00 -0.45593999997E+02  0.45594000000E+02  0.51100000000E-03 0. -1.
    9900012    2    1    2    0    0  0.28887927178E+02  0.27964896033E+02 -0.16342444169E+02  0.47787271570E+02  0.20000002397E+02 0.  0.
        -12    1    1    2    0    0 -0.28887927178E+02 -0.27964896033E+02  0.16342444169E+02  0.43400728430E+02  0.00000000000E+00 0.  1.
         11    1    3    3    0    0  0.55129242603E+01 -0.92628065921E+00 -0.51691456944E+01  0.76138293407E+01  0.51100000000E-03 0. -1.
        -11    1    3    3    0    0  0.14480863143E+01  0.13652555113E+01  0.17832781829E+01  0.26722570841E+01  0.51100000000E-03 0.  1.
         12    1    3    3    0    0  0.21926916604E+02  0.27525921181E+02 -0.12956576658E+02  0.37501185145E+02  0.00000000000E+00 0. -1.
</event>
<event>
 7    1  0.2598019E-009  0.4778728E+02  0.7816164E-02  0.1312668E+00
        -11   -1    0    0    0    0  0.00000000000E+00  0.00000000000E+00  0.45593999997E+02  0.45594000000E+02  0.51100000000E-03 0.  1.
         11   -1    0    0    0    0 -0.00000000000E+00 -0.00000000000E+00 -0.45593999997E+02  0.45594000000E+02  0.51100000000E-03 0. -1.
    9900012    2    1    2    0    0 -0.39956049704E+02  0.15143216049E+02 -0.76039436840E+01  0.47787275815E+02  0.20000021751E+02 0.  0.
        -12    1    1    2    0    0  0.39956049704E+02 -0.15143216049E+02  0.76039436840E+01  0.43400724185E+02  0.00000000000E+00 0.  1.
         11    1    3    3    0    0 -0.12907279094E+00  0.28532411207E+01 -0.18644258200E+01  0.34108252048E+01  0.51100000000E-03 0. -1.
        -11    1    3    3    0    0 -0.21378800860E+02  0.98238435992E+01  0.31720216207E+01  0.23740740315E+02  0.51100000000E-03 0.  1.
        -12    1    3    3    0    0 -0.18448176053E+02  0.24661313291E+01 -0.89115394846E+01  0.20635710296E+02  0.00000000000E+00 0.  1.
</event>
<event>
 7    1  0.2598019E-009  0.4778727E+02  0.7816164E-02  0.1312668E+00
        -11   -1    0    0    0    0  0.00000000000E+00  0.00000000000E+00  0.45593999997E+02  0.45594000000E+02  0.51100000000E-03 0. -1.
         11   -1    0    0    0    0 -0.00000000000E+00 -0.00000000000E+00 -0.45593999997E+02  0.45594000000E+02  0.51100000000E-03 0.  1.
    9900012    2    1    2    0    0  0.40198012652E+02  0.74269175799E+01 -0.14580256188E+02  0.47787271937E+02  0.20000004068E+02 0.  0.
        -12    1    1    2    0    0 -0.40198012652E+02 -0.74269175799E+01  0.14580256188E+02  0.43400728063E+02  0.00000000000E+00 0.  1.
         11    1    3    3    0    0  0.13198103059E+02  0.45297401968E+01 -0.12658219520E+02  0.18839824635E+02  0.51100000000E-03 0. -1.
        -11    1    3    3    0    0  0.78036888550E+01 -0.32670533131E+01  0.12028393254E+01  0.85450582093E+01  0.51100000000E-03 0.  1.
        -12    1    3    3    0    0  0.19196220738E+02  0.61642306961E+01 -0.31248759930E+01  0.20402389092E+02  0.00000000000E+00 0.  1.
</event>
<event>
 7    1  0.2598019E-009  0.4778727E+02  0.7816164E-02  0.1312668E+00
        -11   -1    0    0    0    0  0.00000000000E+00  0.00000000000E+00  0.45593999997E+02  0.45594000000E+02  0.51100000000E-03 0. -1.
         11   -1    0    0    0    0 -0.00000000000E+00 -0.00000000000E+00 -0.45593999997E+02  0.45594000000E+02  0.51100000000E-03 0.  1.
    9900012    2    1    2    0    0 -0.21484303242E+02 -0.20238335833E+02  0.31819141246E+02  0.47787271058E+02  0.20000000060E+02 0.  0.
        -12    1    1    2    0    0  0.21484303242E+02  0.20238335833E+02 -0.31819141246E+02  0.43400728942E+02  0.00000000000E+00 0.  1.
         11    1    3    3    0    0 -0.28183234876E+01 -0.93768057814E+01  0.28837255835E+01  0.10207022457E+02  0.51100000000E-03 0.  1.
        -11    1    3    3    0    0 -0.77956299415E+01 -0.73211291203E+01  0.21295711601E+02  0.23830193256E+02  0.51100000000E-03 0. -1.
         12    1    3    3    0    0 -0.10870349813E+02 -0.35404009309E+01  0.76397040618E+01  0.13750055344E+02  0.00000000000E+00 0. -1.
</event>
<event>
 7    1  0.2598019E-009  0.4778727E+02  0.7816164E-02  0.1312668E+00
        -11   -1    0    0    0    0  0.00000000000E+00  0.00000000000E+00  0.45593999997E+02  0.45594000000E+02  0.51100000000E-03 0.  1.
         11   -1    0    0    0    0 -0.00000000000E+00 -0.00000000000E+00 -0.45593999997E+02  0.45594000000E+02  0.51100000000E-03 0. -1.
    9900012    2    1    2    0    0  0.38794360458E+02 -0.13475937548E+02  0.14036382340E+02  0.47787270452E+02  0.19999997297E+02 0.  0.
        -12    1    1    2    0    0 -0.38794360458E+02  0.13475937548E+02 -0.14036382340E+02  0.43400729548E+02  0.00000000000E+00 0.  1.
         11    1    3    3    0    0  0.14716913944E+02 -0.15818243503E+01 -0.11753161022E+01  0.14848269008E+02  0.51100000000E-03 0. -1.
        -11    1    3    3    0    0  0.25038419537E+02 -0.12518349839E+02  0.14106051897E+02  0.31346646327E+02  0.51100000000E-03 0.  1.
        -12    1    3    3    0    0 -0.96097302301E+00  0.62423664100E+00  0.11056465450E+01  0.15923551166E+01  0.00000000000E+00 0.  1.
</event>
<event>
 7    1  0.2598019E-009  0.4778727E+02  0.7816164E-02  0.1312668E+00
        -11   -1    0    0    0    0  0.00000000000E+00  0.00000000000E+00  0.45593999997E+02  0.45594000000E+02  0.51100000000E-03 0.  1.
         11   -1    0    0    0    0 -0.00000000000E+00 -0.00000000000E+00 -0.45593999997E+02  0.45594000000E+02  0.51100000000E-03 0. -1.
    9900012    2    1    2    0    0  0.18243425421E+02  0.29515407005E+01 -0.39269438228E+02  0.47787274864E+02  0.20000017415E+02 0.  0.
        -12    1    1    2    0    0 -0.18243425421E+02 -0.29515407005E+01  0.39269438228E+02  0.43400725136E+02  0.00000000000E+00 0.  1.
         11    1    3    3    0    0  0.20821049900E+02  0.14083004811E+01 -0.34850293523E+02  0.40620713781E+02  0.51100000000E-03 0. -1.
        -11    1    3    3    0    0 -0.17698807263E+01  0.22371362333E+01 -0.24994218492E+00  0.28635166611E+01  0.51100000000E-03 0.  1.
         12    1    3    3    0    0 -0.80774375232E+00 -0.69389601391E+00 -0.41692025193E+01  0.43030444217E+01  0.00000000000E+00 0. -1.
</event>
<event>
 7    1  0.2598019E-009  0.4778727E+02  0.7816164E-02  0.1312668E+00
        -11   -1    0    0    0    0  0.00000000000E+00  0.00000000000E+00  0.45593999997E+02  0.45594000000E+02  0.51100000000E-03 0.  1.
         11   -1    0    0    0    0 -0.00000000000E+00 -0.00000000000E+00 -0.45593999997E+02  0.45594000000E+02  0.51100000000E-03 0. -1.
    9900012    2    1    2    0    0  0.78289539547E+01  0.21054165593E+02 -0.37135606803E+02  0.47787266118E+02  0.19999977539E+02 0.  0.
        -12    1    1    2    0    0 -0.78289539547E+01 -0.21054165593E+02  0.37135606803E+02  0.43400733882E+02  0.00000000000E+00 0.  1.
         11    1    3    3    0    0  0.68439392810E+01  0.66555310452E+00 -0.88986770085E+01  0.11245840057E+02  0.51100000000E-03 0. -1.
        -11    1    3    3    0    0  0.48135223420E+01  0.18054115001E+02 -0.23422318609E+02  0.29962077283E+02  0.51100000000E-03 0.  1.
         12    1    3    3    0    0 -0.38285076683E+01  0.23344974873E+01 -0.48146111858E+01  0.65793487790E+01  0.00000000000E+00 0. -1.
</event>
<event>
 7    1  0.2598019E-009  0.4778731E+02  0.7816164E-02  0.1312668E+00
        -11   -1    0    0    0    0  0.00000000000E+00  0.00000000000E+00  0.45593999997E+02  0.45594000000E+02  0.51100000000E-03 0.  1.
         11   -1    0    0    0    0 -0.00000000000E+00 -0.00000000000E+00 -0.45593999997E+02  0.45594000000E+02  0.51100000000E-03 0. -1.
    9900012    2    1    2    0    0  0.34457837512E+02  0.12818854124E+02 -0.23064137247E+02  0.47787308600E+02  0.20000171229E+02 0.  0.
        -12    1    1    2    0    0 -0.34457837512E+02 -0.12818854124E+02  0.23064137247E+02  0.43400691400E+02  0.00000000000E+00 0.  1.
         11    1    3    3    0    0  0.17132583625E+02  0.92012318791E+01 -0.16118887471E+01  0.19513745805E+02  0.51100000000E-03 0. -1.
        -11    1    3    3    0    0  0.17595381706E+01  0.15921509741E+01 -0.49992071824E+01  0.55338044790E+01  0.51100000000E-03 0.  1.
         12    1    3    3    0    0  0.15565715717E+02  0.20254712709E+01 -0.16453041318E+02  0.22739758316E+02  0.00000000000E+00 0. -1.
</event>
<event>
 7    1  0.2598019E-009  0.4778727E+02  0.7816164E-02  0.1312668E+00
        -11   -1    0    0    0    0  0.00000000000E+00  0.00000000000E+00  0.45593999997E+02  0.45594000000E+02  0.51100000000E-03 0.  1.
         11   -1    0    0    0    0 -0.00000000000E+00 -0.00000000000E+00 -0.45593999997E+02  0.45594000000E+02  0.51100000000E-03 0. -1.
    9900012    2    1    2    0    0 -0.15536100953E+02  0.16882342382E+02 -0.36840725082E+02  0.47787274872E+02  0.20000017450E+02 0.  0.
        -12    1    1    2    0    0  0.15536100953E+02 -0.16882342382E+02  0.36840725082E+02  0.43400725128E+02  0.00000000000E+00 0.  1.
         11    1    3    3    0    0 -0.12618892787E+02  0.17252338024E+02 -0.16001284052E+02  0.26700575163E+02  0.51100000000E-03 0. -1.
        -11    1    3    3    0    0 -0.75139106690E+00 -0.66097750401E+00 -0.80412715097E+01  0.81033034961E+01  0.51100000000E-03 0.  1.
         12    1    3    3    0    0 -0.21658170985E+01  0.29098186235E+00 -0.12798169520E+02  0.12983396213E+02  0.00000000000E+00 0. -1.
</event>
<event>
 7    1  0.2598019E-009  0.4778727E+02  0.7816164E-02  0.1312668E+00
        -11   -1    0    0    0    0  0.00000000000E+00  0.00000000000E+00  0.45593999997E+02  0.45594000000E+02  0.51100000000E-03 0.  1.
         11   -1    0    0    0    0 -0.00000000000E+00 -0.00000000000E+00 -0.45593999997E+02  0.45594000000E+02  0.51100000000E-03 0. -1.
    9900012    2    1    2    0    0 -0.67046715038E+01  0.27373594381E+02 -0.33005407290E+02  0.47787271899E+02  0.20000003896E+02 0.  0.
        -12    1    1    2    0    0  0.67046715038E+01 -0.27373594381E+02  0.33005407290E+02  0.43400728101E+02  0.00000000000E+00 0.  1.
         11    1    3    3    0    0  0.46000796402E+01  0.64871248381E+01 -0.59114660436E+01  0.99090338786E+01  0.51100000000E-03 0. -1.
        -11    1    3    3    0    0 -0.10334214211E+02  0.17094851078E+02 -0.27449161306E+02  0.33948289698E+02  0.51100000000E-03 0.  1.
         12    1    3    3    0    0 -0.97053693272E+00  0.37916184654E+01  0.35522005979E+00  0.39299483223E+01  0.00000000000E+00 0. -1.
</event>
<event>
 7    1  0.2598019E-009  0.4778728E+02  0.7816164E-02  0.1312668E+00
        -11   -1    0    0    0    0  0.00000000000E+00  0.00000000000E+00  0.45593999997E+02  0.45594000000E+02  0.51100000000E-03 0.  1.
         11   -1    0    0    0    0 -0.00000000000E+00 -0.00000000000E+00 -0.45593999997E+02  0.45594000000E+02  0.51100000000E-03 0. -1.
    9900012    2    1    2    0    0  0.27965087359E+02  0.32355514098E+02 -0.73957753449E+01  0.47787275392E+02  0.20000019824E+02 0.  0.
        -12    1    1    2    0    0 -0.27965087359E+02 -0.32355514098E+02  0.73957753449E+01  0.43400724608E+02  0.00000000000E+00 0.  1.
         11    1    3    3    0    0  0.21306149818E+02  0.21744720450E+02 -0.13672983475E+02  0.33372673925E+02  0.51100000000E-03 0. -1.
        -11    1    3    3    0    0  0.62552538219E+01  0.10648950790E+02  0.54620455905E+01  0.13504158456E+02  0.51100000000E-03 0.  1.
         12    1    3    3    0    0  0.40368371910E+00 -0.38157142189E-01  0.81516253948E+00  0.91044301213E+00  0.00000000000E+00 0. -1.
</event>
<event>
 7    1  0.2598019E-009  0.4778727E+02  0.7816164E-02  0.1312668E+00
        -11   -1    0    0    0    0  0.00000000000E+00  0.00000000000E+00  0.45593999997E+02  0.45594000000E+02  0.51100000000E-03 0.  1.
         11   -1    0    0    0    0 -0.00000000000E+00 -0.00000000000E+00 -0.45593999997E+02  0.45594000000E+02  0.51100000000E-03 0. -1.
    9900012    2    1    2    0    0 -0.15168779773E+02 -0.61651362140E+01 -0.40193563859E+02  0.47787270052E+02  0.19999995476E+02 0.  0.
        -12    1    1    2    0    0  0.15168779773E+02  0.61651362140E+01  0.40193563859E+02  0.43400729948E+02  0.00000000000E+00 0.  1.
         11    1    3    3    0    0 -0.13002187037E+02 -0.19826834760E+00 -0.30611781038E+02  0.33259244078E+02  0.51100000000E-03 0. -1.
        -11    1    3    3    0    0  0.87540266209E+00 -0.66497720143E+01 -0.32128529746E+01  0.74369497888E+01  0.51100000000E-03 0.  1.
        -12    1    3    3    0    0 -0.30419953978E+01  0.68290414791E+00 -0.63689298467E+01  0.70910761854E+01  0.00000000000E+00 0.  1.
</event>
<event>
 7    1  0.2598019E-009  0.4778727E+02  0.7816164E-02  0.1312668E+00
        -11   -1    0    0    0    0  0.00000000000E+00  0.00000000000E+00  0.45593999997E+02  0.45594000000E+02  0.51100000000E-03 0.  1.
         11   -1    0    0    0    0 -0.00000000000E+00 -0.00000000000E+00 -0.45593999997E+02  0.45594000000E+02  0.51100000000E-03 0. -1.
    9900012    2    1    2    0    0  0.13172395928E+02  0.12293288841E+02 -0.39483996538E+02  0.47787274803E+02  0.20000017139E+02 0.  0.
        -12    1    1    2    0    0 -0.13172395928E+02 -0.12293288841E+02  0.39483996538E+02  0.43400725197E+02  0.00000000000E+00 0.  1.
         11    1    3    3    0    0  0.75881418281E+01  0.76692236509E+01 -0.32720501940E+02  0.34453274667E+02  0.51100000000E-03 0. -1.
        -11    1    3    3    0    0 -0.18294811660E+00 -0.17367009871E+01 -0.39166234000E+01  0.42883026304E+01  0.51100000000E-03 0.  1.
         12    1    3    3    0    0  0.57672022160E+01  0.63607661768E+01 -0.28468711980E+01  0.90456975062E+01  0.00000000000E+00 0. -1.
</event>
<event>
 7    1  0.2598019E-009  0.4778727E+02  0.7816164E-02  0.1312668E+00
        -11   -1    0    0    0    0  0.00000000000E+00  0.00000000000E+00  0.45593999997E+02  0.45594000000E+02  0.51100000000E-03 0.  1.
         11   -1    0    0    0    0 -0.00000000000E+00 -0.00000000000E+00 -0.45593999997E+02  0.45594000000E+02  0.51100000000E-03 0. -1.
    9900012    2    1    2    0    0 -0.26708762357E+02  0.29540025013E+02 -0.17252607428E+02  0.47787268123E+02  0.19999986680E+02 0.  0.
        -12    1    1    2    0    0  0.26708762357E+02 -0.29540025013E+02  0.17252607428E+02  0.43400731877E+02  0.00000000000E+00 0.  1.
         11    1    3    3    0    0 -0.32816213950E+01  0.65957392242E+01 -0.28911500865E+01  0.79140106127E+01  0.51100000000E-03 0. -1.
        -11    1    3    3    0    0  0.19108376832E+01 -0.10497019541E+01 -0.12099575379E+00  0.21835327059E+01  0.51100000000E-03 0.  1.
        -12    1    3    3    0    0 -0.25337978645E+02  0.23993987742E+02 -0.14240461588E+02  0.37689724805E+02  0.00000000000E+00 0.  1.
</event>
<event>
 7    1  0.2598019E-009  0.4778727E+02  0.7816164E-02  0.1312668E+00
        -11   -1    0    0    0    0  0.00000000000E+00  0.00000000000E+00  0.45593999997E+02  0.45594000000E+02  0.51100000000E-03 0.  1.
         11   -1    0    0    0    0 -0.00000000000E+00 -0.00000000000E+00 -0.45593999997E+02  0.45594000000E+02  0.51100000000E-03 0. -1.
    9900012    2    1    2    0    0 -0.12252232066E+02  0.32603844193E+02 -0.25893925245E+02  0.47787271764E+02  0.20000003282E+02 0.  0.
        -12    1    1    2    0    0  0.12252232066E+02 -0.32603844193E+02  0.25893925245E+02  0.43400728236E+02  0.00000000000E+00 0.  1.
         11    1    3    3    0    0 -0.11190728489E+02  0.23746976110E+02 -0.25641664014E+02  0.36696678489E+02  0.51100000000E-03 0. -1.
        -11    1    3    3    0    0 -0.10029758682E+01  0.51678059089E+00  0.21354935067E+01  0.24152340568E+01  0.51100000000E-03 0.  1.
         12    1    3    3    0    0 -0.58527709166E-01  0.83400874927E+01 -0.23877547376E+01  0.86753592183E+01  0.00000000000E+00 0. -1.
</event>
<event>
 7    1  0.2598019E-009  0.4778728E+02  0.7816164E-02  0.1312668E+00
        -11   -1    0    0    0    0  0.00000000000E+00  0.00000000000E+00  0.45593999997E+02  0.45594000000E+02  0.51100000000E-03 0.  1.
         11   -1    0    0    0    0 -0.00000000000E+00 -0.00000000000E+00 -0.45593999997E+02  0.45594000000E+02  0.51100000000E-03 0. -1.
    9900012    2    1    2    0    0  0.16935068263E+02 -0.28372707650E+02 -0.28139209494E+02  0.47787283561E+02  0.20000057066E+02 0.  0.
        -12    1    1    2    0    0 -0.16935068263E+02  0.28372707650E+02  0.28139209494E+02  0.43400716439E+02  0.00000000000E+00 0.  1.
         11    1    3    3    0    0 -0.28896546630E+01 -0.49328301903E+01 -0.30620017593E+01  0.64852735326E+01  0.51100000000E-03 0. -1.
        -11    1    3    3    0    0  0.20643178741E+02 -0.20917867916E+02 -0.19921429385E+02  0.35504385302E+02  0.51100000000E-03 0.  1.
        -12    1    3    3    0    0 -0.81845581518E+00 -0.25220095436E+01 -0.51557783505E+01  0.57976247256E+01  0.00000000000E+00 0.  1.
</event>
<event>
 7    1  0.2598019E-009  0.4778727E+02  0.7816164E-02  0.1312668E+00
        -11   -1    0    0    0    0  0.00000000000E+00  0.00000000000E+00  0.45593999997E+02  0.45594000000E+02  0.51100000000E-03 0. -1.
         11   -1    0    0    0    0 -0.00000000000E+00 -0.00000000000E+00 -0.45593999997E+02  0.45594000000E+02  0.51100000000E-03 0.  1.
    9900012    2    1    2    0    0 -0.20027004693E+02 -0.17352999239E+02  0.34371731687E+02  0.47787269145E+02  0.19999991340E+02 0.  0.
        -12    1    1    2    0    0  0.20027004693E+02  0.17352999239E+02 -0.34371731687E+02  0.43400730855E+02  0.00000000000E+00 0.  1.
         11    1    3    3    0    0 -0.15495033345E+02 -0.59063904973E+01  0.17913995954E+02  0.24410914738E+02  0.51100000000E-03 0.  1.
        -11    1    3    3    0    0 -0.44579937519E+01 -0.13596177172E+02  0.15242000922E+02  0.20905701001E+02  0.51100000000E-03 0. -1.
        -12    1    3    3    0    0 -0.73977596137E-01  0.21495684298E+01  0.12157348113E+01  0.24706534055E+01  0.00000000000E+00 0.  1.
</event>
<event>
 7    1  0.2598019E-009  0.4778726E+02  0.7816164E-02  0.1312668E+00
        -11   -1    0    0    0    0  0.00000000000E+00  0.00000000000E+00  0.45593999997E+02  0.45594000000E+02  0.51100000000E-03 0. -1.
         11   -1    0    0    0    0 -0.00000000000E+00 -0.00000000000E+00 -0.45593999997E+02  0.45594000000E+02  0.51100000000E-03 0.  1.
    9900012    2    1    2    0    0 -0.18189999953E+02 -0.12419773662E+02  0.37396489580E+02  0.47787259119E+02  0.19999945626E+02 0.  0.
        -12    1    1    2    0    0  0.18189999953E+02  0.12419773662E+02 -0.37396489580E+02  0.43400740881E+02  0.00000000000E+00 0.  1.
         11    1    3    3    0    0 -0.34134178163E+01  0.33838184213E+00  0.30902191313E+01  0.46168580225E+01  0.51100000000E-03 0. -1.
        -11    1    3    3    0    0 -0.92156579192E+01  0.25455641352E+01  0.93553203404E+01  0.13376481846E+02  0.51100000000E-03 0.  1.
        -12    1    3    3    0    0 -0.55609242177E+01 -0.15303719639E+02  0.24950950109E+02  0.29793919250E+02  0.00000000000E+00 0.  1.
</event>
<event>
 7    1  0.2598019E-009  0.4778727E+02  0.7816164E-02  0.1312668E+00
        -11   -1    0    0    0    0  0.00000000000E+00  0.00000000000E+00  0.45593999997E+02  0.45594000000E+02  0.51100000000E-03 0. -1.
         11   -1    0    0    0    0 -0.00000000000E+00 -0.00000000000E+00 -0.45593999997E+02  0.45594000000E+02  0.51100000000E-03 0.  1.
    9900012    2    1    2    0    0  0.33573812141E+02 -0.13770218506E+02 -0.23807631941E+02  0.47787272840E+02  0.20000008189E+02 0.  0.
        -12    1    1    2    0    0 -0.33573812141E+02  0.13770218506E+02  0.23807631941E+02  0.43400727160E+02  0.00000000000E+00 0.  1.
         11    1    3    3    0    0  0.27529898098E+02 -0.31213339796E+01 -0.15559542350E+02  0.31776365014E+02  0.51100000000E-03 0. -1.
        -11    1    3    3    0    0  0.63130338470E+01 -0.10938402527E+02 -0.87556075783E+01  0.15367618896E+02  0.51100000000E-03 0.  1.
         12    1    3    3    0    0 -0.26911980431E+00  0.28951800065E+00  0.50751798708E+00  0.64328893118E+00  0.00000000000E+00 0. -1.
</event>
<event>
 7    1  0.2598019E-009  0.4778728E+02  0.7816164E-02  0.1312668E+00
        -11   -1    0    0    0    0  0.00000000000E+00  0.00000000000E+00  0.45593999997E+02  0.45594000000E+02  0.51100000000E-03 0.  1.
         11   -1    0    0    0    0 -0.00000000000E+00 -0.00000000000E+00 -0.45593999997E+02  0.45594000000E+02  0.51100000000E-03 0. -1.
    9900012    2    1    2    0    0 -0.40000309588E+02 -0.14472063522E+02  0.86114514861E+01  0.47787280117E+02  0.20000041365E+02 0.  0.
        -12    1    1    2    0    0  0.40000309588E+02  0.14472063522E+02 -0.86114514861E+01  0.43400719883E+02  0.00000000000E+00 0.  1.
         11    1    3    3    0    0 -0.60751663476E+01 -0.69486422359E+01 -0.41478110164E+01  0.10119071675E+02  0.51100000000E-03 0. -1.
        -11    1    3    3    0    0 -0.26221488054E+02 -0.38610205368E+01  0.71241101645E+01  0.27444978799E+02  0.51100000000E-03 0.  1.
         12    1    3    3    0    0 -0.77036551854E+01 -0.36624007490E+01  0.56351523379E+01  0.10223229643E+02  0.00000000000E+00 0. -1.
</event>
<event>
 7    1  0.2598019E-009  0.4778728E+02  0.7816164E-02  0.1312668E+00
        -11   -1    0    0    0    0  0.00000000000E+00  0.00000000000E+00  0.45593999997E+02  0.45594000000E+02  0.51100000000E-03 0. -1.
         11   -1    0    0    0    0 -0.00000000000E+00 -0.00000000000E+00 -0.45593999997E+02  0.45594000000E+02  0.51100000000E-03 0.  1.
    9900012    2    1    2    0    0 -0.32065555902E+02  0.11772937203E+02  0.26773502271E+02  0.47787281693E+02  0.20000048552E+02 0.  0.
        -12    1    1    2    0    0  0.32065555902E+02 -0.11772937203E+02 -0.26773502271E+02  0.43400718307E+02  0.00000000000E+00 0.  1.
         11    1    3    3    0    0 -0.22097993174E+01 -0.74719973588E+00  0.17511986611E+01  0.29168848932E+01  0.51100000000E-03 0. -1.
        -11    1    3    3    0    0 -0.28375982691E+02  0.10700738869E+02  0.13646751947E+02  0.33255616744E+02  0.51100000000E-03 0.  1.
        -12    1    3    3    0    0 -0.14797738929E+01  0.18193980693E+01  0.11375551663E+02  0.11614780056E+02  0.00000000000E+00 0.  1.
</event>
<event>
 7    1  0.2598019E-009  0.4778727E+02  0.7816164E-02  0.1312668E+00
        -11   -1    0    0    0    0  0.00000000000E+00  0.00000000000E+00  0.45593999997E+02  0.45594000000E+02  0.51100000000E-03 0. -1.
         11   -1    0    0    0    0 -0.00000000000E+00 -0.00000000000E+00 -0.45593999997E+02  0.45594000000E+02  0.51100000000E-03 0.  1.
    9900012    2    1    2    0    0  0.20767676509E+02 -0.31739011965E+02  0.21094117050E+02  0.47787273713E+02  0.20000012167E+02 0.  0.
        -12    1    1    2    0    0 -0.20767676509E+02  0.31739011965E+02 -0.21094117050E+02  0.43400726287E+02  0.00000000000E+00 0.  1.
         11    1    3    3    0    0  0.12369636763E+02 -0.14866030289E+02  0.10806502880E+02  0.22153719213E+02  0.51100000000E-03 0. -1.
        -11    1    3    3    0    0 -0.16704026581E+01 -0.10088353675E+02  0.86284836337E+01  0.13379680676E+02  0.51100000000E-03 0.  1.
        -12    1    3    3    0    0  0.10068442404E+02 -0.67846280018E+01  0.16591305363E+01  0.12253873824E+02  0.00000000000E+00 0.  1.
</event>
<event>
 7    1  0.2598019E-009  0.4778727E+02  0.7816164E-02  0.1312668E+00
        -11   -1    0    0    0    0  0.00000000000E+00  0.00000000000E+00  0.45593999997E+02  0.45594000000E+02  0.51100000000E-03 0. -1.
         11   -1    0    0    0    0 -0.00000000000E+00 -0.00000000000E+00 -0.45593999997E+02  0.45594000000E+02  0.51100000000E-03 0.  1.
    9900012    2    1    2    0    0 -0.36005094502E+02  0.14010365475E+02  0.19772863336E+02  0.47787270797E+02  0.19999998872E+02 0.  0.
        -12    1    1    2    0    0  0.36005094502E+02 -0.14010365475E+02 -0.19772863336E+02  0.43400729203E+02  0.00000000000E+00 0.  1.
         11    1    3    3    0    0 -0.24150946412E+02  0.63331738189E+01  0.12681522398E+02  0.28003541094E+02  0.51100000000E-03 0. -1.
        -11    1    3    3    0    0  0.13207154926E+01 -0.62041816079E-01  0.39753153022E+01  0.41894236611E+01  0.51100000000E-03 0.  1.
         12    1    3    3    0    0 -0.13174863583E+02  0.77392334723E+01  0.31160256355E+01  0.15594306042E+02  0.00000000000E+00 0. -1.
</event>
<event>
 7    1  0.2598019E-009  0.4778727E+02  0.7816164E-02  0.1312668E+00
        -11   -1    0    0    0    0  0.00000000000E+00  0.00000000000E+00  0.45593999997E+02  0.45594000000E+02  0.51100000000E-03 0. -1.
         11   -1    0    0    0    0 -0.00000000000E+00 -0.00000000000E+00 -0.45593999997E+02  0.45594000000E+02  0.51100000000E-03 0.  1.
    9900012    2    1    2    0    0  0.33323762937E+02 -0.14044788719E+02  0.23997793090E+02  0.47787270287E+02  0.19999996547E+02 0.  0.
        -12    1    1    2    0    0 -0.33323762937E+02  0.14044788719E+02 -0.23997793090E+02  0.43400729713E+02  0.00000000000E+00 0.  1.
         11    1    3    3    0    0  0.18040728466E+02 -0.12891099725E+02  0.12128677856E+02  0.25273566477E+02  0.51100000000E-03 0. -1.
        -11    1    3    3    0    0  0.15439579591E+02  0.21588122537E+01  0.11017337319E+02  0.19089861450E+02  0.51100000000E-03 0.  1.
        -12    1    3    3    0    0 -0.15654512036E+00 -0.33125012479E+01  0.85177791554E+00  0.34238423605E+01  0.00000000000E+00 0.  1.
</event>
<event>
 7    1  0.2598019E-009  0.4778727E+02  0.7816164E-02  0.1312668E+00
        -11   -1    0    0    0    0  0.00000000000E+00  0.00000000000E+00  0.45593999997E+02  0.45594000000E+02  0.51100000000E-03 0. -1.
         11   -1    0    0    0    0 -0.00000000000E+00 -0.00000000000E+00 -0.45593999997E+02  0.45594000000E+02  0.51100000000E-03 0.  1.
    9900012    2    1    2    0    0  0.33648044943E+02 -0.71374379766E+01  0.26466763584E+02  0.47787268164E+02  0.19999986866E+02 0.  0.
        -12    1    1    2    0    0 -0.33648044943E+02  0.71374379766E+01 -0.26466763584E+02  0.43400731836E+02  0.00000000000E+00 0.  1.
         11    1    3    3    0    0  0.11441911630E+02 -0.70239935850E+01  0.85495312586E+01  0.15916919069E+02  0.51100000000E-03 0. -1.
        -11    1    3    3    0    0  0.18295497977E+02  0.29107084851E+01  0.19284562588E+02  0.26741200882E+02  0.51100000000E-03 0.  1.
        -12    1    3    3    0    0  0.39106353353E+01 -0.30241528766E+01 -0.13673302631E+01  0.51291482134E+01  0.00000000000E+00 0.  1.
</event>
<event>
 7    1  0.2598019E-009  0.4778728E+02  0.7816164E-02  0.1312668E+00
        -11   -1    0    0    0    0  0.00000000000E+00  0.00000000000E+00  0.45593999997E+02  0.45594000000E+02  0.51100000000E-03 0. -1.
         11   -1    0    0    0    0 -0.00000000000E+00 -0.00000000000E+00 -0.45593999997E+02  0.45594000000E+02  0.51100000000E-03 0.  1.
    9900012    2    1    2    0    0 -0.95735484143E+01 -0.30143924241E+02  0.29720596632E+02  0.47787275789E+02  0.20000021631E+02 0.  0.
        -12    1    1    2    0    0  0.95735484143E+01  0.30143924241E+02 -0.29720596632E+02  0.43400724211E+02  0.00000000000E+00 0.  1.
         11    1    3    3    0    0 -0.33156556869E+01 -0.20330932373E+02  0.19088341036E+02  0.28083894808E+02  0.51100000000E-03 0. -1.
        -11    1    3    3    0    0  0.26802309800E+01 -0.18346985732E+01 -0.57403763435E+00  0.32983748160E+01  0.51100000000E-03 0.  1.
         12    1    3    3    0    0 -0.89381237074E+01 -0.79782932947E+01  0.11206293231E+02  0.16405006165E+02  0.00000000000E+00 0. -1.
</event>
<event>
 7    1  0.2598019E-009  0.4778727E+02  0.7816164E-02  0.1312668E+00
        -11   -1    0    0    0    0  0.00000000000E+00  0.00000000000E+00  0.45593999997E+02  0.45594000000E+02  0.51100000000E-03 0. -1.
         11   -1    0    0    0    0 -0.00000000000E+00 -0.00000000000E+00 -0.45593999997E+02  0.45594000000E+02  0.51100000000E-03 0.  1.
    9900012    2    1    2    0    0 -0.25064070431E+02  0.35331893265E+02 -0.26595049967E+01  0.47787271030E+02  0.19999999936E+02 0.  0.
        -12    1    1    2    0    0  0.25064070431E+02 -0.35331893265E+02  0.26595049967E+01  0.43400728970E+02  0.00000000000E+00 0.  1.
         11    1    3    3    0    0 -0.13051254561E+02  0.19844334913E+02 -0.77761076215E+01  0.24992013199E+02  0.51100000000E-03 0. -1.
        -11    1    3    3    0    0 -0.34169224419E+01  0.14746469301E+01  0.51524336888E+01  0.63559040050E+01  0.51100000000E-03 0.  1.
        -12    1    3    3    0    0 -0.85958934282E+01  0.14012911422E+02 -0.35831064021E-01  0.16439353826E+02  0.00000000000E+00 0.  1.
</event>
<event>
 7    1  0.2598019E-009  0.4778727E+02  0.7816164E-02  0.1312668E+00
        -11   -1    0    0    0    0  0.00000000000E+00  0.00000000000E+00  0.45593999997E+02  0.45594000000E+02  0.51100000000E-03 0. -1.
         11   -1    0    0    0    0 -0.00000000000E+00 -0.00000000000E+00 -0.45593999997E+02  0.45594000000E+02  0.51100000000E-03 0.  1.
    9900012    2    1    2    0    0  0.27989886041E+02 -0.70495186825E+01  0.32411320629E+02  0.47787272596E+02  0.20000007075E+02 0.  0.
        -12    1    1    2    0    0 -0.27989886041E+02  0.70495186825E+01 -0.32411320629E+02  0.43400727404E+02  0.00000000000E+00 0.  1.
         11    1    3    3    0    0  0.80329413753E+01 -0.10010233847E+02  0.17577257573E+02  0.21764487425E+02  0.51100000000E-03 0. -1.
        -11    1    3    3    0    0  0.19681267826E+02  0.13719644052E+01  0.14108503539E+02  0.24254576103E+02  0.51100000000E-03 0.  1.
         12    1    3    3    0    0  0.27567683979E+00  0.15887507594E+01  0.72555951755E+00  0.17682090682E+01  0.00000000000E+00 0. -1.
</event>
<event>
 7    1  0.2598019E-009  0.4778727E+02  0.7816164E-02  0.1312668E+00
        -11   -1    0    0    0    0  0.00000000000E+00  0.00000000000E+00  0.45593999997E+02  0.45594000000E+02  0.51100000000E-03 0.  1.
         11   -1    0    0    0    0 -0.00000000000E+00 -0.00000000000E+00 -0.45593999997E+02  0.45594000000E+02  0.51100000000E-03 0. -1.
    9900012    2    1    2    0    0  0.15185032179E+02 -0.77879517857E+01 -0.39904706227E+02  0.47787274495E+02  0.20000015732E+02 0.  0.
        -12    1    1    2    0    0 -0.15185032179E+02  0.77879517857E+01  0.39904706227E+02  0.43400725505E+02  0.00000000000E+00 0.  1.
         11    1    3    3    0    0  0.54334066038E+01 -0.10688998154E+02 -0.15600190047E+02  0.19675937554E+02  0.51100000000E-03 0. -1.
        -11    1    3    3    0    0  0.11673538741E+02  0.33271256397E+01 -0.21392555861E+02  0.24596396449E+02  0.51100000000E-03 0.  1.
        -12    1    3    3    0    0 -0.19219131657E+01 -0.42607927115E+00 -0.29119603188E+01  0.35149404917E+01  0.00000000000E+00 0.  1.
</event>
<event>
 7    1  0.2598019E-009  0.4778727E+02  0.7816164E-02  0.1312668E+00
        -11   -1    0    0    0    0  0.00000000000E+00  0.00000000000E+00  0.45593999997E+02  0.45594000000E+02  0.51100000000E-03 0.  1.
         11   -1    0    0    0    0 -0.00000000000E+00 -0.00000000000E+00 -0.45593999997E+02  0.45594000000E+02  0.51100000000E-03 0. -1.
    9900012    2    1    2    0    0 -0.28061335851E+02  0.21671857903E+02 -0.25030281720E+02  0.47787274226E+02  0.20000014505E+02 0.  0.
        -12    1    1    2    0    0  0.28061335851E+02 -0.21671857903E+02  0.25030281720E+02  0.43400725774E+02  0.00000000000E+00 0.  1.
         11    1    3    3    0    0 -0.17356219070E+02  0.90019093888E+01 -0.21272318101E+02  0.28892632811E+02  0.51100000000E-03 0. -1.
        -11    1    3    3    0    0 -0.30422591969E+01  0.35600930648E+01  0.26444597801E+01  0.53779895352E+01  0.51100000000E-03 0.  1.
         12    1    3    3    0    0 -0.76628575840E+01  0.91098554495E+01 -0.64024233993E+01  0.13516651880E+02  0.00000000000E+00 0. -1.
</event>
<event>
 7    1  0.2598019E-009  0.4778728E+02  0.7816164E-02  0.1312668E+00
        -11   -1    0    0    0    0  0.00000000000E+00  0.00000000000E+00  0.45593999997E+02  0.45594000000E+02  0.51100000000E-03 0.  1.
         11   -1    0    0    0    0 -0.00000000000E+00 -0.00000000000E+00 -0.45593999997E+02  0.45594000000E+02  0.51100000000E-03 0. -1.
    9900012    2    1    2    0    0  0.40794366098E+02  0.14812995589E+02  0.13075511472E+00  0.47787282948E+02  0.20000054275E+02 0.  0.
        -12    1    1    2    0    0 -0.40794366098E+02 -0.14812995589E+02 -0.13075511472E+00  0.43400717052E+02  0.00000000000E+00 0.  1.
         11    1    3    3    0    0  0.15482716576E+02 -0.23565682386E+01 -0.47336301215E+01  0.16360781791E+02  0.51100000000E-03 0. -1.
        -11    1    3    3    0    0  0.16879325678E+02  0.83689420067E+01  0.34939822364E+01  0.19161386635E+02  0.51100000000E-03 0.  1.
         12    1    3    3    0    0  0.84323238443E+01  0.88006218213E+01  0.13704029997E+01  0.12265114522E+02  0.00000000000E+00 0. -1.
</event>
<event>
 7    1  0.2598019E-009  0.4778727E+02  0.7816164E-02  0.1312668E+00
        -11   -1    0    0    0    0  0.00000000000E+00  0.00000000000E+00  0.45593999997E+02  0.45594000000E+02  0.51100000000E-03 0.  1.
         11   -1    0    0    0    0 -0.00000000000E+00 -0.00000000000E+00 -0.45593999997E+02  0.45594000000E+02  0.51100000000E-03 0. -1.
    9900012    2    1    2    0    0 -0.18003628476E+02  0.12279219772E+02 -0.37532828265E+02  0.47787273346E+02  0.20000010493E+02 0.  0.
        -12    1    1    2    0    0  0.18003628476E+02 -0.12279219772E+02  0.37532828265E+02  0.43400726654E+02  0.00000000000E+00 0.  1.
         11    1    3    3    0    0 -0.33587213242E+01 -0.19366349214E+01  0.27533201401E+00  0.38868202597E+01  0.51100000000E-03 0. -1.
        -11    1    3    3    0    0 -0.37067104032E+01  0.97364307715E+01 -0.15946600258E+02  0.19048145480E+02  0.51100000000E-03 0.  1.
         12    1    3    3    0    0 -0.10938196749E+02  0.44794239217E+01 -0.21861560021E+02  0.24852307606E+02  0.00000000000E+00 0. -1.
</event>
<event>
 7    1  0.2598019E-009  0.4778727E+02  0.7816164E-02  0.1312668E+00
        -11   -1    0    0    0    0  0.00000000000E+00  0.00000000000E+00  0.45593999997E+02  0.45594000000E+02  0.51100000000E-03 0.  1.
         11   -1    0    0    0    0 -0.00000000000E+00 -0.00000000000E+00 -0.45593999997E+02  0.45594000000E+02  0.51100000000E-03 0. -1.
    9900012    2    1    2    0    0  0.13575088987E+01  0.20111256458E+02 -0.38435893386E+02  0.47787269970E+02  0.19999995102E+02 0.  0.
        -12    1    1    2    0    0 -0.13575088987E+01 -0.20111256458E+02  0.38435893386E+02  0.43400730030E+02  0.00000000000E+00 0.  1.
         11    1    3    3    0    0  0.23740285557E+00  0.12520894300E+02 -0.33539453891E+02  0.35801174866E+02  0.51100000000E-03 0. -1.
        -11    1    3    3    0    0  0.11273813746E+01 -0.13361279988E+01  0.10972225517E+00  0.17516466617E+01  0.51100000000E-03 0.  1.
         12    1    3    3    0    0 -0.72753314303E-02  0.89264901572E+01 -0.50061617501E+01  0.10234448443E+02  0.00000000000E+00 0. -1.
</event>
<event>
 7    1  0.2598019E-009  0.4778728E+02  0.7816164E-02  0.1312668E+00
        -11   -1    0    0    0    0  0.00000000000E+00  0.00000000000E+00  0.45593999997E+02  0.45594000000E+02  0.51100000000E-03 0.  1.
         11   -1    0    0    0    0 -0.00000000000E+00 -0.00000000000E+00 -0.45593999997E+02  0.45594000000E+02  0.51100000000E-03 0. -1.
    9900012    2    1    2    0    0  0.55232980454E+01 -0.26098717006E+02 -0.34234088861E+02  0.47787277762E+02  0.20000030629E+02 0.  0.
        -12    1    1    2    0    0 -0.55232980454E+01  0.26098717006E+02  0.34234088861E+02  0.43400722238E+02  0.00000000000E+00 0.  1.
         11    1    3    3    0    0  0.88762205280E-01 -0.25785726535E+01 -0.18247891838E+01  0.31601853561E+01  0.51100000000E-03 0. -1.
        -11    1    3    3    0    0  0.10303425750E+02 -0.13905900883E+02 -0.28138285352E+02  0.33034796266E+02  0.51100000000E-03 0.  1.
        -12    1    3    3    0    0 -0.48688899094E+01 -0.96142434693E+01 -0.42710143252E+01  0.11592296140E+02  0.00000000000E+00 0.  1.
</event>
<event>
 7    1  0.2598019E-009  0.4778727E+02  0.7816164E-02  0.1312668E+00
        -11   -1    0    0    0    0  0.00000000000E+00  0.00000000000E+00  0.45593999997E+02  0.45594000000E+02  0.51100000000E-03 0.  1.
         11   -1    0    0    0    0 -0.00000000000E+00 -0.00000000000E+00 -0.45593999997E+02  0.45594000000E+02  0.51100000000E-03 0. -1.
    9900012    2    1    2    0    0  0.33233556477E+02 -0.21640165301E+02 -0.17631139592E+02  0.47787272890E+02  0.20000008415E+02 0.  0.
        -12    1    1    2    0    0 -0.33233556477E+02  0.21640165301E+02  0.17631139592E+02  0.43400727110E+02  0.00000000000E+00 0.  1.
         11    1    3    3    0    0  0.13655939322E+02 -0.42697348902E+01 -0.54361054646E+01  0.15305768771E+02  0.51100000000E-03 0. -1.
        -11    1    3    3    0    0  0.17750697292E+02 -0.91766476790E+01 -0.13314872344E+02  0.24012162393E+02  0.51100000000E-03 0.  1.
        -12    1    3    3    0    0  0.18269198634E+01 -0.81937827318E+01  0.11198382170E+01  0.84693417262E+01  0.00000000000E+00 0.  1.
</event>
<event>
 7    1  0.2598019E-009  0.4778727E+02  0.7816164E-02  0.1312668E+00
        -11   -1    0    0    0    0  0.00000000000E+00  0.00000000000E+00  0.45593999997E+02  0.45594000000E+02  0.51100000000E-03 0.  1.
         11   -1    0    0    0    0 -0.00000000000E+00 -0.00000000000E+00 -0.45593999997E+02  0.45594000000E+02  0.51100000000E-03 0. -1.
    9900012    2    1    2    0    0 -0.68412512772E+01  0.11127158625E+02 -0.41388484708E+02  0.47787273687E+02  0.20000012048E+02 0.  0.
        -12    1    1    2    0    0  0.68412512772E+01 -0.11127158625E+02  0.41388484708E+02  0.43400726313E+02  0.00000000000E+00 0.  1.
         11    1    3    3    0    0  0.12409950387E+01 -0.52491991456E+00 -0.16697327557E+02  0.16751607607E+02  0.51100000000E-03 0. -1.
        -11    1    3    3    0    0 -0.44161793919E+01  0.10167634759E+01 -0.76362142350E+00  0.45956029340E+01  0.51100000000E-03 0.  1.
        -12    1    3    3    0    0 -0.36660669240E+01  0.10635315064E+02 -0.23927535727E+02  0.26440063146E+02  0.00000000000E+00 0.  1.
</event>
<event>
 7    1  0.2598019E-009  0.4778727E+02  0.7816164E-02  0.1312668E+00
        -11   -1    0    0    0    0  0.00000000000E+00  0.00000000000E+00  0.45593999997E+02  0.45594000000E+02  0.51100000000E-03 0. -1.
         11   -1    0    0    0    0 -0.00000000000E+00 -0.00000000000E+00 -0.45593999997E+02  0.45594000000E+02  0.51100000000E-03 0.  1.
    9900012    2    1    2    0    0 -0.19306505544E+02 -0.18181011389E+02  0.34355976713E+02  0.47787268815E+02  0.19999989837E+02 0.  0.
        -12    1    1    2    0    0  0.19306505544E+02  0.18181011389E+02 -0.34355976713E+02  0.43400731185E+02  0.00000000000E+00 0.  1.
         11    1    3    3    0    0 -0.60564158322E+00 -0.87017390376E+01  0.31280610271E+01  0.92667054586E+01  0.51100000000E-03 0. -1.
        -11    1    3    3    0    0 -0.18109181762E+02 -0.62107100816E+01  0.27730590373E+02  0.33697196122E+02  0.51100000000E-03 0.  1.
        -12    1    3    3    0    0 -0.59168219944E+00 -0.32685622698E+01  0.34973253133E+01  0.48233672350E+01  0.00000000000E+00 0.  1.
</event>
<event>
 7    1  0.2598019E-009  0.4778727E+02  0.7816164E-02  0.1312668E+00
        -11   -1    0    0    0    0  0.00000000000E+00  0.00000000000E+00  0.45593999997E+02  0.45594000000E+02  0.51100000000E-03 0.  1.
         11   -1    0    0    0    0 -0.00000000000E+00 -0.00000000000E+00 -0.45593999997E+02  0.45594000000E+02  0.51100000000E-03 0. -1.
    9900012    2    1    2    0    0 -0.32907712612E+02  0.52349181846E+00 -0.28291899279E+02  0.47787272381E+02  0.20000006096E+02 0.  0.
        -12    1    1    2    0    0  0.32907712612E+02 -0.52349181846E+00  0.28291899279E+02  0.43400727619E+02  0.00000000000E+00 0.  1.
         11    1    3    3    0    0 -0.29057001259E+01 -0.47997018197E+01 -0.69729053638E+01  0.89499519694E+01  0.51100000000E-03 0. -1.
        -11    1    3    3    0    0 -0.11012849809E+02  0.65763814696E+01 -0.49965269282E+01  0.13765788599E+02  0.51100000000E-03 0.  1.
         12    1    3    3    0    0 -0.18989162677E+02 -0.12531878315E+01 -0.16322466987E+02  0.25071531813E+02  0.00000000000E+00 0. -1.
</event>
<event>
 7    1  0.2598019E-009  0.4778728E+02  0.7816164E-02  0.1312668E+00
        -11   -1    0    0    0    0  0.00000000000E+00  0.00000000000E+00  0.45593999997E+02  0.45594000000E+02  0.51100000000E-03 0. -1.
         11   -1    0    0    0    0 -0.00000000000E+00 -0.00000000000E+00 -0.45593999997E+02  0.45594000000E+02  0.51100000000E-03 0.  1.
    9900012    2    1    2    0    0  0.11916920044E+01 -0.43373019884E+02 -0.99173431550E+00  0.47787279722E+02  0.20000039565E+02 0.  0.
        -12    1    1    2    0    0 -0.11916920044E+01  0.43373019884E+02  0.99173431550E+00  0.43400720278E+02  0.00000000000E+00 0.  1.
         11    1    3    3    0    0  0.38928862111E+01 -0.19723385713E+02 -0.14712631896E+01  0.20157656676E+02  0.51100000000E-03 0. -1.
        -11    1    3    3    0    0 -0.59739087661E+01 -0.20221257042E+02  0.43273409030E+01  0.21524699808E+02  0.51100000000E-03 0.  1.
        -12    1    3    3    0    0  0.32727145595E+01 -0.34283771294E+01 -0.38478120289E+01  0.61049232377E+01  0.00000000000E+00 0.  1.
</event>
<event>
 7    1 -0.4352209E-009  0.4778727E+02  0.7816164E-02  0.1312668E+00
        -11   -1    0    0    0    0  0.00000000000E+00  0.00000000000E+00  0.45593999997E+02  0.45594000000E+02  0.51100000000E-03 0. -1.
         11   -1    0    0    0    0 -0.00000000000E+00 -0.00000000000E+00 -0.45593999997E+02  0.45594000000E+02  0.51100000000E-03 0.  1.
    9900012    2    1    2    0    0  0.99798923646E+00  0.15375561132E+00  0.43388978939E+02  0.47787272856E+02  0.20000008258E+02 0.  0.
        -12    1    1    2    0    0 -0.99798923646E+00 -0.15375561132E+00 -0.43388978939E+02  0.43400727144E+02  0.00000000000E+00 0.  1.
         11    1    3    3    0    0 -0.20460286282E+01  0.24377237459E+01  0.16578682942E+02  0.16881393857E+02  0.51100000000E-03 0. -1.
        -11    1    3    3    0    0 -0.37722446159E+01 -0.63876433568E+01  0.12998922585E+02  0.14966756687E+02  0.51100000000E-03 0.  1.
        -12    1    3    3    0    0  0.68162624806E+01  0.41036752223E+01  0.13811373412E+02  0.15939122312E+02  0.00000000000E+00 0.  1.
</event>
<event>
 7    1  0.2598019E-009  0.4778727E+02  0.7816164E-02  0.1312668E+00
        -11   -1    0    0    0    0  0.00000000000E+00  0.00000000000E+00  0.45593999997E+02  0.45594000000E+02  0.51100000000E-03 0. -1.
         11   -1    0    0    0    0 -0.00000000000E+00 -0.00000000000E+00 -0.45593999997E+02  0.45594000000E+02  0.51100000000E-03 0.  1.
    9900012    2    1    2    0    0  0.28762918247E+02  0.32144282176E+02  0.48023882157E+01  0.47787271029E+02  0.19999999930E+02 0.  0.
        -12    1    1    2    0    0 -0.28762918247E+02 -0.32144282176E+02 -0.48023882157E+01  0.43400728971E+02  0.00000000000E+00 0.  1.
         11    1    3    3    0    0  0.12704251013E+02  0.19144485992E+02  0.81152472223E+01  0.24367325980E+02  0.51100000000E-03 0. -1.
        -11    1    3    3    0    0  0.87006752855E+00  0.49071390671E+01  0.20571941876E+01  0.53915748641E+01  0.51100000000E-03 0.  1.
         12    1    3    3    0    0  0.15188599705E+02  0.80926571168E+01 -0.53700531942E+01  0.18028370185E+02  0.00000000000E+00 0. -1.
</event>
<event>
 7    1  0.2598019E-009  0.4778728E+02  0.7816164E-02  0.1312668E+00
        -11   -1    0    0    0    0  0.00000000000E+00  0.00000000000E+00  0.45593999997E+02  0.45594000000E+02  0.51100000000E-03 0.  1.
         11   -1    0    0    0    0 -0.00000000000E+00 -0.00000000000E+00 -0.45593999997E+02  0.45594000000E+02  0.51100000000E-03 0. -1.
    9900012    2    1    2    0    0 -0.38154223357E+02  0.20025158363E+02  0.51837354683E+01  0.47787276033E+02  0.20000022746E+02 0.  0.
        -12    1    1    2    0    0  0.38154223357E+02 -0.20025158363E+02 -0.51837354683E+01  0.43400723967E+02  0.00000000000E+00 0.  1.
         11    1    3    3    0    0 -0.12865743700E+02  0.57373830301E+01 -0.66329357400E+01  0.15570509362E+02  0.51100000000E-03 0. -1.
        -11    1    3    3    0    0 -0.21948214509E+02  0.14020306030E+02  0.12349593089E+02  0.28823697733E+02  0.51100000000E-03 0.  1.
        -12    1    3    3    0    0 -0.33402651481E+01  0.26746930297E+00 -0.53292188094E+00  0.33930689381E+01  0.00000000000E+00 0.  1.
</event>
<event>
 7    1  0.2598019E-009  0.4778728E+02  0.7816164E-02  0.1312668E+00
        -11   -1    0    0    0    0  0.00000000000E+00  0.00000000000E+00  0.45593999997E+02  0.45594000000E+02  0.51100000000E-03 0. -1.
         11   -1    0    0    0    0 -0.00000000000E+00 -0.00000000000E+00 -0.45593999997E+02  0.45594000000E+02  0.51100000000E-03 0.  1.
    9900012    2    1    2    0    0  0.42380452156E+02 -0.86909416773E+01 -0.34622100548E+01  0.47787284676E+02  0.20000062151E+02 0.  0.
        -12    1    1    2    0    0 -0.42380452156E+02  0.86909416773E+01  0.34622100548E+01  0.43400715324E+02  0.00000000000E+00 0.  1.
         11    1    3    3    0    0  0.18838712709E+02 -0.44005060128E+01  0.56825766989E+00  0.19354184735E+02  0.51100000000E-03 0. -1.
        -11    1    3    3    0    0  0.18253075906E+02 -0.85492666455E+00 -0.90325703934E+01  0.20383645597E+02  0.51100000000E-03 0.  1.
        -12    1    3    3    0    0  0.52886635408E+01 -0.34355089999E+01  0.50021026687E+01  0.80494543445E+01  0.00000000000E+00 0.  1.
</event>
<event>
 7    1  0.2598019E-009  0.4778727E+02  0.7816164E-02  0.1312668E+00
        -11   -1    0    0    0    0  0.00000000000E+00  0.00000000000E+00  0.45593999997E+02  0.45594000000E+02  0.51100000000E-03 0.  1.
         11   -1    0    0    0    0 -0.00000000000E+00 -0.00000000000E+00 -0.45593999997E+02  0.45594000000E+02  0.51100000000E-03 0. -1.
    9900012    2    1    2    0    0 -0.33948690064E+01  0.25501570743E+02 -0.34953794072E+02  0.47787274592E+02  0.20000016174E+02 0.  0.
        -12    1    1    2    0    0  0.33948690064E+01 -0.25501570743E+02  0.34953794072E+02  0.43400725408E+02  0.00000000000E+00 0.  1.
         11    1    3    3    0    0 -0.51369837548E+01  0.19069857805E+01 -0.94790815930E+01  0.10948889668E+02  0.51100000000E-03 0. -1.
        -11    1    3    3    0    0  0.63688888875E+00  0.15818926444E+02 -0.81274212679E+01  0.17796039953E+02  0.51100000000E-03 0.  1.
        -12    1    3    3    0    0  0.11052258596E+01  0.77756585184E+01 -0.17347291211E+02  0.19042344970E+02  0.00000000000E+00 0.  1.
</event>
<event>
 7    1  0.2598019E-009  0.4778727E+02  0.7816164E-02  0.1312668E+00
        -11   -1    0    0    0    0  0.00000000000E+00  0.00000000000E+00  0.45593999997E+02  0.45594000000E+02  0.51100000000E-03 0.  1.
         11   -1    0    0    0    0 -0.00000000000E+00 -0.00000000000E+00 -0.45593999997E+02  0.45594000000E+02  0.51100000000E-03 0. -1.
    9900012    2    1    2    0    0 -0.45545125153E+01  0.17779274044E+02 -0.39329092647E+02  0.47787266156E+02  0.19999977709E+02 0.  0.
        -12    1    1    2    0    0  0.45545125153E+01 -0.17779274044E+02  0.39329092647E+02  0.43400733844E+02  0.00000000000E+00 0.  1.
         11    1    3    3    0    0  0.10920792964E+01  0.30016288737E+01 -0.13189605680E+02  0.13570855217E+02  0.51100000000E-03 0. -1.
        -11    1    3    3    0    0 -0.87058195313E+01  0.89040056587E+01 -0.24360830210E+02  0.27359142151E+02  0.51100000000E-03 0.  1.
        -12    1    3    3    0    0  0.30592277196E+01  0.58736395117E+01 -0.17786567578E+01  0.68572687869E+01  0.00000000000E+00 0.  1.
</event>
<event>
 7    1  0.2598019E-009  0.4778727E+02  0.7816164E-02  0.1312668E+00
        -11   -1    0    0    0    0  0.00000000000E+00  0.00000000000E+00  0.45593999997E+02  0.45594000000E+02  0.51100000000E-03 0.  1.
         11   -1    0    0    0    0 -0.00000000000E+00 -0.00000000000E+00 -0.45593999997E+02  0.45594000000E+02  0.51100000000E-03 0. -1.
    9900012    2    1    2    0    0 -0.26504025812E+02  0.31844049252E+02 -0.12927349974E+02  0.47787271500E+02  0.20000002076E+02 0.  0.
        -12    1    1    2    0    0  0.26504025812E+02 -0.31844049252E+02  0.12927349974E+02  0.43400728500E+02  0.00000000000E+00 0.  1.
         11    1    3    3    0    0 -0.65934083562E+01  0.56050834236E+01  0.68709290891E+00  0.86811341923E+01  0.51100000000E-03 0. -1.
        -11    1    3    3    0    0 -0.15454634867E+02  0.15016451165E+02 -0.89365076694E+00  0.21567061840E+02  0.51100000000E-03 0.  1.
        -12    1    3    3    0    0 -0.44559825891E+01  0.11222514663E+02 -0.12720792116E+02  0.17539075468E+02  0.00000000000E+00 0.  1.
</event>
<event>
 7    1  0.2598019E-009  0.4778727E+02  0.7816164E-02  0.1312668E+00
        -11   -1    0    0    0    0  0.00000000000E+00  0.00000000000E+00  0.45593999997E+02  0.45594000000E+02  0.51100000000E-03 0.  1.
         11   -1    0    0    0    0 -0.00000000000E+00 -0.00000000000E+00 -0.45593999997E+02  0.45594000000E+02  0.51100000000E-03 0. -1.
    9900012    2    1    2    0    0 -0.29584904954E+02  0.31268076014E+02 -0.55375418534E+01  0.47787267881E+02  0.19999985575E+02 0.  0.
        -12    1    1    2    0    0  0.29584904954E+02 -0.31268076014E+02  0.55375418534E+01  0.43400732119E+02  0.00000000000E+00 0.  1.
         11    1    3    3    0    0 -0.74358797559E+01  0.81267207308E+01  0.25320383928E+01  0.11302526986E+02  0.51100000000E-03 0. -1.
        -11    1    3    3    0    0 -0.23664559568E+02  0.21941725206E+02 -0.47163578166E+01  0.32614332982E+02  0.51100000000E-03 0.  1.
        -12    1    3    3    0    0  0.15155343700E+01  0.11996300767E+01 -0.33532224295E+01  0.38704079125E+01  0.00000000000E+00 0.  1.
</event>
<event>
 7    1  0.2598019E-009  0.4778727E+02  0.7816164E-02  0.1312668E+00
        -11   -1    0    0    0    0  0.00000000000E+00  0.00000000000E+00  0.45593999997E+02  0.45594000000E+02  0.51100000000E-03 0. -1.
         11   -1    0    0    0    0 -0.00000000000E+00 -0.00000000000E+00 -0.45593999997E+02  0.45594000000E+02  0.51100000000E-03 0.  1.
    9900012    2    1    2    0    0  0.27612449293E+01  0.45498516954E+01  0.43073167931E+02  0.47787269365E+02  0.19999992343E+02 0.  0.
        -12    1    1    2    0    0 -0.27612449293E+01 -0.45498516954E+01 -0.43073167931E+02  0.43400730635E+02  0.00000000000E+00 0.  1.
         11    1    3    3    0    0  0.48282585616E+00  0.41825718116E+01  0.13553246987E+02  0.14192164455E+02  0.51100000000E-03 0. -1.
        -11    1    3    3    0    0 -0.19467532010E+01 -0.71450753793E+01  0.12968131557E+02  0.14933666213E+02  0.51100000000E-03 0.  1.
        -12    1    3    3    0    0  0.42251722741E+01  0.75123552632E+01  0.16551789387E+02  0.18661438698E+02  0.00000000000E+00 0.  1.
</event>
<event>
 7    1  0.2598019E-009  0.4778727E+02  0.7816164E-02  0.1312668E+00
        -11   -1    0    0    0    0  0.00000000000E+00  0.00000000000E+00  0.45593999997E+02  0.45594000000E+02  0.51100000000E-03 0.  1.
         11   -1    0    0    0    0 -0.00000000000E+00 -0.00000000000E+00 -0.45593999997E+02  0.45594000000E+02  0.51100000000E-03 0. -1.
    9900012    2    1    2    0    0 -0.11625033125E+02 -0.13280366909E+02 -0.39649889573E+02  0.47787270933E+02  0.19999999492E+02 0.  0.
        -12    1    1    2    0    0  0.11625033125E+02  0.13280366909E+02  0.39649889573E+02  0.43400729067E+02  0.00000000000E+00 0.  1.
         11    1    3    3    0    0  0.48262232099E+01 -0.23024714933E+01 -0.97250298592E+01  0.11098198569E+02  0.51100000000E-03 0.  1.
        -11    1    3    3    0    0 -0.13227860696E+02 -0.11958869126E+02 -0.24487204959E+02  0.30292145126E+02  0.51100000000E-03 0. -1.
         12    1    3    3    0    0 -0.32233956385E+01  0.98097370972E+00 -0.54376547548E+01  0.63969272385E+01  0.00000000000E+00 0. -1.
</event>
<event>
 7    1  0.2598019E-009  0.4778727E+02  0.7816164E-02  0.1312668E+00
        -11   -1    0    0    0    0  0.00000000000E+00  0.00000000000E+00  0.45593999997E+02  0.45594000000E+02  0.51100000000E-03 0. -1.
         11   -1    0    0    0    0 -0.00000000000E+00 -0.00000000000E+00 -0.45593999997E+02  0.45594000000E+02  0.51100000000E-03 0.  1.
    9900012    2    1    2    0    0 -0.16225819894E+02 -0.21703476449E+02  0.33901410153E+02  0.47787265771E+02  0.19999975956E+02 0.  0.
        -12    1    1    2    0    0  0.16225819894E+02  0.21703476449E+02 -0.33901410153E+02  0.43400734229E+02  0.00000000000E+00 0.  1.
         11    1    3    3    0    0 -0.47740255729E+01 -0.11021424590E+01  0.17705164791E+02  0.18370598757E+02  0.51100000000E-03 0. -1.
        -11    1    3    3    0    0 -0.31459588333E+01 -0.12597854627E+02  0.77659076352E+01  0.15129848639E+02  0.51100000000E-03 0.  1.
         12    1    3    3    0    0 -0.83058354879E+01 -0.80034793639E+01  0.84303377273E+01  0.14286818375E+02  0.00000000000E+00 0. -1.
</event>
<event>
 7    1  0.2598019E-009  0.4778728E+02  0.7816164E-02  0.1312668E+00
        -11   -1    0    0    0    0  0.00000000000E+00  0.00000000000E+00  0.45593999997E+02  0.45594000000E+02  0.51100000000E-03 0. -1.
         11   -1    0    0    0    0 -0.00000000000E+00 -0.00000000000E+00 -0.45593999997E+02  0.45594000000E+02  0.51100000000E-03 0.  1.
    9900012    2    1    2    0    0  0.37652611381E+02  0.14726906998E+02  0.15780427024E+02  0.47787276382E+02  0.20000024336E+02 0.  0.
        -12    1    1    2    0    0 -0.37652611381E+02 -0.14726906998E+02 -0.15780427024E+02  0.43400723618E+02  0.00000000000E+00 0.  1.
         11    1    3    3    0    0  0.11443312056E+01  0.28350184198E+01 -0.23046239126E+01  0.38285917762E+01  0.51100000000E-03 0.  1.
        -11    1    3    3    0    0  0.31550896661E+02  0.69408507649E+01  0.17936757910E+02  0.36950802076E+02  0.51100000000E-03 0. -1.
         12    1    3    3    0    0  0.49573835138E+01  0.49510378128E+01  0.14829302647E+00  0.70078825296E+01  0.00000000000E+00 0. -1.
</event>
<event>
 7    1  0.2598019E-009  0.4778727E+02  0.7816164E-02  0.1312668E+00
        -11   -1    0    0    0    0  0.00000000000E+00  0.00000000000E+00  0.45593999997E+02  0.45594000000E+02  0.51100000000E-03 0.  1.
         11   -1    0    0    0    0 -0.00000000000E+00 -0.00000000000E+00 -0.45593999997E+02  0.45594000000E+02  0.51100000000E-03 0. -1.
    9900012    2    1    2    0    0  0.22650533299E+02 -0.68777176346E+01 -0.36376830656E+02  0.47787268818E+02  0.19999989848E+02 0.  0.
        -12    1    1    2    0    0 -0.22650533299E+02  0.68777176346E+01  0.36376830656E+02  0.43400731182E+02  0.00000000000E+00 0.  1.
         11    1    3    3    0    0  0.19356256657E+01  0.20868252771E+01 -0.66064780796E+01  0.71935415014E+01  0.51100000000E-03 0. -1.
        -11    1    3    3    0    0  0.24990958285E+01 -0.40361202400E+00  0.18329679106E+01  0.31254046535E+01  0.51100000000E-03 0.  1.
        -12    1    3    3    0    0  0.18215811805E+02 -0.85609308877E+01 -0.31603320487E+02  0.37468322663E+02  0.00000000000E+00 0.  1.
</event>
<event>
 7    1  0.2598019E-009  0.4778726E+02  0.7816164E-02  0.1312668E+00
        -11   -1    0    0    0    0  0.00000000000E+00  0.00000000000E+00  0.45593999997E+02  0.45594000000E+02  0.51100000000E-03 0. -1.
         11   -1    0    0    0    0 -0.00000000000E+00 -0.00000000000E+00 -0.45593999997E+02  0.45594000000E+02  0.51100000000E-03 0.  1.
    9900012    2    1    2    0    0 -0.92625777921E+01 -0.38677690325E+01  0.42224039548E+02  0.47787256914E+02  0.19999935573E+02 0.  0.
        -12    1    1    2    0    0  0.92625777921E+01  0.38677690325E+01 -0.42224039548E+02  0.43400743086E+02  0.00000000000E+00 0.  1.
         11    1    3    3    0    0 -0.46553835032E+01 -0.62401635592E+01  0.12680996829E+02  0.14880185404E+02  0.51100000000E-03 0. -1.
        -11    1    3    3    0    0 -0.66978932292E+01  0.33667029165E+01  0.70355506142E+01  0.10280828514E+02  0.51100000000E-03 0.  1.
        -12    1    3    3    0    0  0.20906989403E+01 -0.99430838985E+00  0.22507492105E+02  0.22626242996E+02  0.00000000000E+00 0.  1.
</event>
<event>
 7    1  0.2598019E-009  0.4778727E+02  0.7816164E-02  0.1312668E+00
        -11   -1    0    0    0    0  0.00000000000E+00  0.00000000000E+00  0.45593999997E+02  0.45594000000E+02  0.51100000000E-03 0. -1.
         11   -1    0    0    0    0 -0.00000000000E+00 -0.00000000000E+00 -0.45593999997E+02  0.45594000000E+02  0.51100000000E-03 0.  1.
    9900012    2    1    2    0    0 -0.24506853833E+02 -0.63731357379E+00  0.35813840811E+02  0.47787271354E+02  0.20000001413E+02 0.  0.
        -12    1    1    2    0    0  0.24506853833E+02  0.63731357379E+00 -0.35813840811E+02  0.43400728646E+02  0.00000000000E+00 0.  1.
         11    1    3    3    0    0 -0.14365919588E+02 -0.68871552966E+01  0.17408250763E+02  0.23597875933E+02  0.51100000000E-03 0. -1.
        -11    1    3    3    0    0 -0.18793421283E+01  0.69635939316E+01  0.67018716890E+01  0.98457428199E+01  0.51100000000E-03 0.  1.
        -12    1    3    3    0    0 -0.82615921163E+01 -0.71375220877E+00  0.11703718359E+02  0.14343652601E+02  0.00000000000E+00 0.  1.
</event>
<event>
 7    1  0.2598019E-009  0.4778728E+02  0.7816164E-02  0.1312668E+00
        -11   -1    0    0    0    0  0.00000000000E+00  0.00000000000E+00  0.45593999997E+02  0.45594000000E+02  0.51100000000E-03 0. -1.
         11   -1    0    0    0    0 -0.00000000000E+00 -0.00000000000E+00 -0.45593999997E+02  0.45594000000E+02  0.51100000000E-03 0.  1.
    9900012    2    1    2    0    0  0.24440051340E+02 -0.33287344719E+02 -0.13351376782E+02  0.47787277771E+02  0.20000030671E+02 0.  0.
        -12    1    1    2    0    0 -0.24440051340E+02  0.33287344719E+02  0.13351376782E+02  0.43400722229E+02  0.00000000000E+00 0.  1.
         11    1    3    3    0    0  0.15965500502E+02 -0.25906266583E+02 -0.59706353160E+01  0.31010971299E+02  0.51100000000E-03 0. -1.
        -11    1    3    3    0    0 -0.89419709632E+00  0.38314741068E+00 -0.40438154391E+01  0.41591866936E+01  0.51100000000E-03 0.  1.
        -12    1    3    3    0    0  0.93687479350E+01 -0.77642255469E+01 -0.33369260272E+01  0.12617119779E+02  0.00000000000E+00 0.  1.
</event>
<event>
 7    1  0.2598019E-009  0.4778728E+02  0.7816164E-02  0.1312668E+00
        -11   -1    0    0    0    0  0.00000000000E+00  0.00000000000E+00  0.45593999997E+02  0.45594000000E+02  0.51100000000E-03 0.  1.
         11   -1    0    0    0    0 -0.00000000000E+00 -0.00000000000E+00 -0.45593999997E+02  0.45594000000E+02  0.51100000000E-03 0. -1.
    9900012    2    1    2    0    0 -0.39304739816E+02  0.94504968965E+01 -0.15793933740E+02  0.47787276428E+02  0.20000024545E+02 0.  0.
        -12    1    1    2    0    0  0.39304739816E+02 -0.94504968965E+01  0.15793933740E+02  0.43400723572E+02  0.00000000000E+00 0.  1.
         11    1    3    3    0    0 -0.31097371532E+02  0.21813252276E+01 -0.91367734193E+01  0.32485155452E+02  0.51100000000E-03 0. -1.
        -11    1    3    3    0    0 -0.41015091214E+01  0.20202836584E+01 -0.72932093106E+01  0.86078351194E+01  0.51100000000E-03 0.  1.
         12    1    3    3    0    0 -0.41058591624E+01  0.52488880105E+01  0.63604899040E+00  0.66942858564E+01  0.00000000000E+00 0. -1.
</event>
<event>
 7    1  0.2598019E-009  0.4778727E+02  0.7816164E-02  0.1312668E+00
        -11   -1    0    0    0    0  0.00000000000E+00  0.00000000000E+00  0.45593999997E+02  0.45594000000E+02  0.51100000000E-03 0.  1.
         11   -1    0    0    0    0 -0.00000000000E+00 -0.00000000000E+00 -0.45593999997E+02  0.45594000000E+02  0.51100000000E-03 0. -1.
    9900012    2    1    2    0    0 -0.29105535847E+01 -0.24896700759E+02 -0.35430301574E+02  0.47787270738E+02  0.19999998603E+02 0.  0.
        -12    1    1    2    0    0  0.29105535847E+01  0.24896700759E+02  0.35430301574E+02  0.43400729262E+02  0.00000000000E+00 0.  1.
         11    1    3    3    0    0 -0.73246855069E+01 -0.54125099272E+01 -0.62671538692E+01  0.11055473729E+02  0.51100000000E-03 0. -1.
        -11    1    3    3    0    0  0.68569877196E+01 -0.13748014626E+02 -0.16082215289E+02  0.22241039446E+02  0.51100000000E-03 0.  1.
         12    1    3    3    0    0 -0.24428557975E+01 -0.57361762058E+01 -0.13080932415E+02  0.14490757563E+02  0.00000000000E+00 0. -1.
</event>
<event>
 7    1  0.2598019E-009  0.4778726E+02  0.7816164E-02  0.1312668E+00
        -11   -1    0    0    0    0  0.00000000000E+00  0.00000000000E+00  0.45593999997E+02  0.45594000000E+02  0.51100000000E-03 0.  1.
         11   -1    0    0    0    0 -0.00000000000E+00 -0.00000000000E+00 -0.45593999997E+02  0.45594000000E+02  0.51100000000E-03 0. -1.
    9900012    2    1    2    0    0  0.40018267484E+02 -0.79836467766E+01 -0.14779167754E+02  0.47787260977E+02  0.19999954097E+02 0.  0.
        -12    1    1    2    0    0 -0.40018267484E+02  0.79836467766E+01  0.14779167754E+02  0.43400739023E+02  0.00000000000E+00 0.  1.
         11    1    3    3    0    0 -0.18456317462E+00  0.16477886533E+01 -0.38228449090E+01  0.41669430606E+01  0.51100000000E-03 0. -1.
        -11    1    3    3    0    0  0.26127001218E+02 -0.86164927842E+01 -0.10661766349E+02  0.29504870826E+02  0.51100000000E-03 0.  1.
        -12    1    3    3    0    0  0.14075829441E+02 -0.10149426458E+01 -0.29455649642E+00  0.14115447090E+02  0.00000000000E+00 0.  1.
</event>
<event>
 7    1  0.2598019E-009  0.4778727E+02  0.7816164E-02  0.1312668E+00
        -11   -1    0    0    0    0  0.00000000000E+00  0.00000000000E+00  0.45593999997E+02  0.45594000000E+02  0.51100000000E-03 0.  1.
         11   -1    0    0    0    0 -0.00000000000E+00 -0.00000000000E+00 -0.45593999997E+02  0.45594000000E+02  0.51100000000E-03 0. -1.
    9900012    2    1    2    0    0  0.23660203380E+02 -0.35950497075E+02 -0.56017981644E+01  0.47787267211E+02  0.19999982522E+02 0.  0.
        -12    1    1    2    0    0 -0.23660203380E+02  0.35950497075E+02  0.56017981644E+01  0.43400732789E+02  0.00000000000E+00 0.  1.
         11    1    3    3    0    0  0.21016752002E+02 -0.17223681430E+02 -0.65353550045E+00  0.27180621325E+02  0.51100000000E-03 0. -1.
        -11    1    3    3    0    0  0.35996049091E+01 -0.16657971487E+02 -0.24377442233E+01  0.17215916087E+02  0.51100000000E-03 0.  1.
         12    1    3    3    0    0 -0.95615353124E+00 -0.20688441587E+01 -0.25105184406E+01  0.33907297989E+01  0.00000000000E+00 0. -1.
</event>
<event>
 7    1  0.2598019E-009  0.4778727E+02  0.7816164E-02  0.1312668E+00
        -11   -1    0    0    0    0  0.00000000000E+00  0.00000000000E+00  0.45593999997E+02  0.45594000000E+02  0.51100000000E-03 0. -1.
         11   -1    0    0    0    0 -0.00000000000E+00 -0.00000000000E+00 -0.45593999997E+02  0.45594000000E+02  0.51100000000E-03 0.  1.
    9900012    2    1    2    0    0  0.10479456940E+02  0.20986457133E+02 -0.36515377480E+02  0.47787271974E+02  0.20000004236E+02 0.  0.
        -12    1    1    2    0    0 -0.10479456940E+02 -0.20986457133E+02  0.36515377480E+02  0.43400728026E+02  0.00000000000E+00 0.  1.
         11    1    3    3    0    0  0.10839932766E+02  0.84869358384E+01 -0.13670600486E+02  0.19401482938E+02  0.51100000000E-03 0. -1.
        -11    1    3    3    0    0 -0.31895784506E+01  0.72764897227E+01 -0.45602452497E+01  0.91605977084E+01  0.51100000000E-03 0.  1.
        -12    1    3    3    0    0  0.28291026244E+01  0.52230315717E+01 -0.18284531744E+02  0.19225191327E+02  0.00000000000E+00 0.  1.
</event>
<event>
 7    1  0.2598019E-009  0.4778727E+02  0.7816164E-02  0.1312668E+00
        -11   -1    0    0    0    0  0.00000000000E+00  0.00000000000E+00  0.45593999997E+02  0.45594000000E+02  0.51100000000E-03 0. -1.
         11   -1    0    0    0    0 -0.00000000000E+00 -0.00000000000E+00 -0.45593999997E+02  0.45594000000E+02  0.51100000000E-03 0.  1.
    9900012    2    1    2    0    0  0.33362340284E+02  0.17806264809E+02  0.21295882361E+02  0.47787269347E+02  0.19999992260E+02 0.  0.
        -12    1    1    2    0    0 -0.33362340284E+02 -0.17806264809E+02 -0.21295882361E+02  0.43400730653E+02  0.00000000000E+00 0.  1.
         11    1    3    3    0    0  0.68535012930E+01  0.17220671701E+01  0.75453557275E+01  0.10337716800E+02  0.51100000000E-03 0. -1.
        -11    1    3    3    0    0 -0.14151454941E+01 -0.11341746182E+01  0.17428290983E+01  0.25152420085E+01  0.51100000000E-03 0.  1.
         12    1    3    3    0    0  0.27923984485E+02  0.17218372257E+02  0.12007697535E+02  0.34934310539E+02  0.00000000000E+00 0. -1.
</event>
<event>
 7    1  0.2598019E-009  0.4778727E+02  0.7816164E-02  0.1312668E+00
        -11   -1    0    0    0    0  0.00000000000E+00  0.00000000000E+00  0.45593999997E+02  0.45594000000E+02  0.51100000000E-03 0.  1.
         11   -1    0    0    0    0 -0.00000000000E+00 -0.00000000000E+00 -0.45593999997E+02  0.45594000000E+02  0.51100000000E-03 0. -1.
    9900012    2    1    2    0    0  0.16924334888E+02 -0.28721606881E+02 -0.27789556014E+02  0.47787271473E+02  0.20000001954E+02 0.  0.
        -12    1    1    2    0    0 -0.16924334888E+02  0.28721606881E+02  0.27789556014E+02  0.43400728527E+02  0.00000000000E+00 0.  1.
         11    1    3    3    0    0  0.26241256067E+01 -0.92239355273E+01 -0.16657613062E+02  0.19220902554E+02  0.51100000000E-03 0. -1.
        -11    1    3    3    0    0  0.13968846845E+02 -0.20706437938E+02 -0.11042728087E+02  0.27309835190E+02  0.51100000000E-03 0.  1.
         12    1    3    3    0    0  0.33136243563E+00  0.12087665840E+01 -0.89214864595E-01  0.12565337283E+01  0.00000000000E+00 0. -1.
</event>
<event>
 7    1  0.2598019E-009  0.4778728E+02  0.7816164E-02  0.1312668E+00
        -11   -1    0    0    0    0  0.00000000000E+00  0.00000000000E+00  0.45593999997E+02  0.45594000000E+02  0.51100000000E-03 0.  1.
         11   -1    0    0    0    0 -0.00000000000E+00 -0.00000000000E+00 -0.45593999997E+02  0.45594000000E+02  0.51100000000E-03 0. -1.
    9900012    2    1    2    0    0 -0.13063259898E+01  0.22894511944E+02 -0.36847756646E+02  0.47787281865E+02  0.20000049336E+02 0.  0.
        -12    1    1    2    0    0  0.13063259898E+01 -0.22894511944E+02  0.36847756646E+02  0.43400718135E+02  0.00000000000E+00 0.  1.
         11    1    3    3    0    0 -0.78791454885E+01  0.38272113422E+01 -0.11225986100E+02  0.14239074565E+02  0.51100000000E-03 0. -1.
        -11    1    3    3    0    0  0.56205946375E+01  0.11114381184E+02 -0.20667271554E+02  0.24129995171E+02  0.51100000000E-03 0.  1.
        -12    1    3    3    0    0  0.95222486120E+00  0.79529194181E+01 -0.49544989927E+01  0.94182121300E+01  0.00000000000E+00 0.  1.
</event>
<event>
 7    1  0.2598019E-009  0.4778727E+02  0.7816164E-02  0.1312668E+00
        -11   -1    0    0    0    0  0.00000000000E+00  0.00000000000E+00  0.45593999997E+02  0.45594000000E+02  0.51100000000E-03 0.  1.
         11   -1    0    0    0    0 -0.00000000000E+00 -0.00000000000E+00 -0.45593999997E+02  0.45594000000E+02  0.51100000000E-03 0. -1.
    9900012    2    1    2    0    0 -0.30599221098E+02  0.13960799228E+02 -0.27430039495E+02  0.47787270587E+02  0.19999997912E+02 0.  0.
        -12    1    1    2    0    0  0.30599221098E+02 -0.13960799228E+02  0.27430039495E+02  0.43400729413E+02  0.00000000000E+00 0.  1.
         11    1    3    3    0    0 -0.28369954539E+01  0.10364395034E+02 -0.93681580313E+01  0.14255932547E+02  0.51100000000E-03 0. -1.
        -11    1    3    3    0    0 -0.23078711152E+02  0.27180309610E+01 -0.16560197586E+02  0.28535149291E+02  0.51100000000E-03 0.  1.
         12    1    3    3    0    0 -0.46835144924E+01  0.87837323337E+00 -0.15016838780E+01  0.49961887482E+01  0.00000000000E+00 0. -1.
</event>
<event>
 7    1  0.2598019E-009  0.4778727E+02  0.7816164E-02  0.1312668E+00
        -11   -1    0    0    0    0  0.00000000000E+00  0.00000000000E+00  0.45593999997E+02  0.45594000000E+02  0.51100000000E-03 0.  1.
         11   -1    0    0    0    0 -0.00000000000E+00 -0.00000000000E+00 -0.45593999997E+02  0.45594000000E+02  0.51100000000E-03 0. -1.
    9900012    2    1    2    0    0  0.36393060750E+02  0.36889360493E+01 -0.23357239233E+02  0.47787265623E+02  0.19999975280E+02 0.  0.
        -12    1    1    2    0    0 -0.36393060750E+02 -0.36889360493E+01  0.23357239233E+02  0.43400734377E+02  0.00000000000E+00 0.  1.
         11    1    3    3    0    0  0.90797527790E+01  0.12310695092E+01 -0.11663609972E+02  0.14832303951E+02  0.51100000000E-03 0. -1.
        -11    1    3    3    0    0  0.21919447836E+02  0.23710822412E+01 -0.23583499268E+01  0.22173092682E+02  0.51100000000E-03 0.  1.
        -12    1    3    3    0    0  0.53938601344E+01  0.86784298786E-01 -0.93352793337E+01  0.10781868989E+02  0.00000000000E+00 0.  1.
</event>
<event>
 7    1  0.2598019E-009  0.4778727E+02  0.7816164E-02  0.1312668E+00
        -11   -1    0    0    0    0  0.00000000000E+00  0.00000000000E+00  0.45593999997E+02  0.45594000000E+02  0.51100000000E-03 0. -1.
         11   -1    0    0    0    0 -0.00000000000E+00 -0.00000000000E+00 -0.45593999997E+02  0.45594000000E+02  0.51100000000E-03 0.  1.
    9900012    2    1    2    0    0 -0.14459829460E+02 -0.14852824996E+02  0.38130440460E+02  0.47787267655E+02  0.19999984547E+02 0.  0.
        -12    1    1    2    0    0  0.14459829460E+02  0.14852824996E+02 -0.38130440460E+02  0.43400732345E+02  0.00000000000E+00 0.  1.
         11    1    3    3    0    0 -0.35829064856E-02 -0.74553076752E+00  0.34796237464E+01  0.35585967235E+01  0.51100000000E-03 0. -1.
        -11    1    3    3    0    0 -0.53451833266E+01 -0.79422518229E+01  0.31296174502E+02  0.32727677698E+02  0.51100000000E-03 0.  1.
        -12    1    3    3    0    0 -0.91110632271E+01 -0.61650424053E+01  0.33546422122E+01  0.11500993234E+02  0.00000000000E+00 0.  1.
</event>
<event>
 7    1  0.2598019E-009  0.4778724E+02  0.7816164E-02  0.1312668E+00
        -11   -1    0    0    0    0  0.00000000000E+00  0.00000000000E+00  0.45593999997E+02  0.45594000000E+02  0.51100000000E-03 0.  1.
         11   -1    0    0    0    0 -0.00000000000E+00 -0.00000000000E+00 -0.45593999997E+02  0.45594000000E+02  0.51100000000E-03 0. -1.
    9900012    2    1    2    0    0  0.41731668234E+02  0.45914611230E+01 -0.11000564261E+02  0.47787238914E+02  0.19999853503E+02 0.  0.
        -12    1    1    2    0    0 -0.41731668234E+02 -0.45914611230E+01  0.11000564261E+02  0.43400761086E+02  0.00000000000E+00 0.  1.
         11    1    3    3    0    0  0.35804129609E+02  0.48806240908E+01 -0.72821291293E+01  0.36861709042E+02  0.51100000000E-03 0. -1.
        -11    1    3    3    0    0  0.25803964508E+01  0.16438620688E+01 -0.57837495904E+01  0.65431252418E+01  0.51100000000E-03 0.  1.
         12    1    3    3    0    0  0.33471421735E+01 -0.19330250366E+01  0.20653144591E+01  0.43824046295E+01  0.00000000000E+00 0. -1.
</event>
<event>
 7    1  0.2598019E-009  0.4778727E+02  0.7816164E-02  0.1312668E+00
        -11   -1    0    0    0    0  0.00000000000E+00  0.00000000000E+00  0.45593999997E+02  0.45594000000E+02  0.51100000000E-03 0. -1.
         11   -1    0    0    0    0 -0.00000000000E+00 -0.00000000000E+00 -0.45593999997E+02  0.45594000000E+02  0.51100000000E-03 0.  1.
    9900012    2    1    2    0    0 -0.12212691366E+02 -0.41541103673E+02 -0.29681915857E+01  0.47787270904E+02  0.19999999358E+02 0.  0.
        -12    1    1    2    0    0  0.12212691366E+02  0.41541103673E+02  0.29681915857E+01  0.43400729096E+02  0.00000000000E+00 0.  1.
         11    1    3    3    0    0  0.25370645158E-01 -0.21792384633E+02  0.37129524399E+01  0.22106439961E+02  0.51100000000E-03 0. -1.
        -11    1    3    3    0    0 -0.11664413249E+02 -0.19823177640E+02 -0.45157107734E+01  0.23439465699E+02  0.51100000000E-03 0.  1.
         12    1    3    3    0    0 -0.57364876251E+00  0.74458600076E-01 -0.21654332522E+01  0.22413652437E+01  0.00000000000E+00 0. -1.
</event>
<event>
 7    1  0.2598019E-009  0.4778730E+02  0.7816164E-02  0.1312668E+00
        -11   -1    0    0    0    0  0.00000000000E+00  0.00000000000E+00  0.45593999997E+02  0.45594000000E+02  0.51100000000E-03 0. -1.
         11   -1    0    0    0    0 -0.00000000000E+00 -0.00000000000E+00 -0.45593999997E+02  0.45594000000E+02  0.51100000000E-03 0.  1.
    9900012    2    1    2    0    0  0.18247722955E+01  0.29151149507E+02  0.32101427705E+02  0.47787297561E+02  0.20000120899E+02 0.  0.
        -12    1    1    2    0    0 -0.18247722955E+01 -0.29151149507E+02 -0.32101427705E+02  0.43400702439E+02  0.00000000000E+00 0.  1.
         11    1    3    3    0    0  0.45157611116E+01  0.15500703335E+02  0.24210997104E+02  0.29100451600E+02  0.51100000000E-03 0.  1.
        -11    1    3    3    0    0 -0.14560604646E+01  0.14620440034E+02  0.52267765315E+01  0.15594761045E+02  0.51100000000E-03 0. -1.
         12    1    3    3    0    0 -0.12349283514E+01 -0.96999386268E+00  0.26636540697E+01  0.30920849163E+01  0.00000000000E+00 0. -1.
</event>
<event>
 7    1  0.2598019E-009  0.4778727E+02  0.7816164E-02  0.1312668E+00
        -11   -1    0    0    0    0  0.00000000000E+00  0.00000000000E+00  0.45593999997E+02  0.45594000000E+02  0.51100000000E-03 0.  1.
         11   -1    0    0    0    0 -0.00000000000E+00 -0.00000000000E+00 -0.45593999997E+02  0.45594000000E+02  0.51100000000E-03 0. -1.
    9900012    2    1    2    0    0 -0.36731659172E+02 -0.21792759041E+02  0.77126038206E+01  0.47787269708E+02  0.19999993906E+02 0.  0.
        -12    1    1    2    0    0  0.36731659172E+02  0.21792759041E+02 -0.77126038206E+01  0.43400730292E+02  0.00000000000E+00 0.  1.
         11    1    3    3    0    0 -0.19121577123E+02 -0.23743312653E+01  0.50207111026E+01  0.19911798032E+02  0.51100000000E-03 0. -1.
        -11    1    3    3    0    0 -0.28663063993E+00 -0.29332051856E+01 -0.19250371147E+01  0.35201729984E+01  0.51100000000E-03 0.  1.
         12    1    3    3    0    0 -0.17323451410E+02 -0.16485222591E+02  0.46169298327E+01  0.24355298678E+02  0.00000000000E+00 0. -1.
</event>
<event>
 7    1  0.2598019E-009  0.4778727E+02  0.7816164E-02  0.1312668E+00
        -11   -1    0    0    0    0  0.00000000000E+00  0.00000000000E+00  0.45593999997E+02  0.45594000000E+02  0.51100000000E-03 0.  1.
         11   -1    0    0    0    0 -0.00000000000E+00 -0.00000000000E+00 -0.45593999997E+02  0.45594000000E+02  0.51100000000E-03 0. -1.
    9900012    2    1    2    0    0 -0.41252464784E+01 -0.24805529497E+00 -0.43203520497E+02  0.47787269900E+02  0.19999994781E+02 0.  0.
        -12    1    1    2    0    0  0.41252464784E+01  0.24805529497E+00  0.43203520497E+02  0.43400730100E+02  0.00000000000E+00 0.  1.
         11    1    3    3    0    0  0.29659825356E+01  0.55472384057E+01 -0.82410375506E+01  0.10367430082E+02  0.51100000000E-03 0. -1.
        -11    1    3    3    0    0 -0.80264941806E+01 -0.19374778961E+01 -0.15556439675E+02  0.17611963123E+02  0.51100000000E-03 0.  1.
         12    1    3    3    0    0  0.93526516658E+00 -0.38578158045E+01 -0.19406043271E+02  0.19807876695E+02  0.00000000000E+00 0. -1.
</event>
<event>
 7    1  0.2598019E-009  0.4778727E+02  0.7816164E-02  0.1312668E+00
        -11   -1    0    0    0    0  0.00000000000E+00  0.00000000000E+00  0.45593999997E+02  0.45594000000E+02  0.51100000000E-03 0.  1.
         11   -1    0    0    0    0 -0.00000000000E+00 -0.00000000000E+00 -0.45593999997E+02  0.45594000000E+02  0.51100000000E-03 0. -1.
    9900012    2    1    2    0    0 -0.13262755905E+02  0.37758854192E+02 -0.16792594950E+02  0.47787274093E+02  0.20000013900E+02 0.  0.
        -12    1    1    2    0    0  0.13262755905E+02 -0.37758854192E+02  0.16792594950E+02  0.43400725907E+02  0.00000000000E+00 0.  1.
         11    1    3    3    0    0 -0.11714732311E+02  0.28989747780E+02 -0.55463625369E+01  0.31755354936E+02  0.51100000000E-03 0. -1.
        -11    1    3    3    0    0 -0.28593693904E+01  0.89135525898E+01 -0.11345673654E+02  0.14708899483E+02  0.51100000000E-03 0.  1.
         12    1    3    3    0    0  0.13113457965E+01 -0.14444617782E+00  0.99441241122E-01  0.13230196736E+01  0.00000000000E+00 0. -1.
</event>
<event>
 7    1  0.2598019E-009  0.4778727E+02  0.7816164E-02  0.1312668E+00
        -11   -1    0    0    0    0  0.00000000000E+00  0.00000000000E+00  0.45593999997E+02  0.45594000000E+02  0.51100000000E-03 0. -1.
         11   -1    0    0    0    0 -0.00000000000E+00 -0.00000000000E+00 -0.45593999997E+02  0.45594000000E+02  0.51100000000E-03 0.  1.
    9900012    2    1    2    0    0 -0.34566828613E+02 -0.23209980317E+02 -0.12249673241E+02  0.47787270500E+02  0.19999997516E+02 0.  0.
        -12    1    1    2    0    0  0.34566828613E+02  0.23209980317E+02  0.12249673241E+02  0.43400729500E+02  0.00000000000E+00 0.  1.
         11    1    3    3    0    0 -0.10889257957E+02 -0.61384259103E+01 -0.29983284637E+00  0.12503843869E+02  0.51100000000E-03 0. -1.
        -11    1    3    3    0    0 -0.25470623228E+02 -0.16428689886E+02 -0.87285832735E+01  0.31541126568E+02  0.51100000000E-03 0.  1.
        -12    1    3    3    0    0  0.17930525719E+01 -0.64286452119E+00 -0.32212571210E+01  0.37423000625E+01  0.00000000000E+00 0.  1.
</event>
<event>
 7    1  0.2598019E-009  0.4778727E+02  0.7816164E-02  0.1312668E+00
        -11   -1    0    0    0    0  0.00000000000E+00  0.00000000000E+00  0.45593999997E+02  0.45594000000E+02  0.51100000000E-03 0.  1.
         11   -1    0    0    0    0 -0.00000000000E+00 -0.00000000000E+00 -0.45593999997E+02  0.45594000000E+02  0.51100000000E-03 0. -1.
    9900012    2    1    2    0    0  0.20172341657E+02 -0.33899868710E+02 -0.18096931196E+02  0.47787269762E+02  0.19999994154E+02 0.  0.
        -12    1    1    2    0    0 -0.20172341657E+02  0.33899868710E+02  0.18096931196E+02  0.43400730238E+02  0.00000000000E+00 0.  1.
         11    1    3    3    0    0 -0.49746808019E+00 -0.12705067865E+02 -0.47650686652E+01  0.13578368959E+02  0.51100000000E-03 0. -1.
        -11    1    3    3    0    0  0.51094420478E+01 -0.11097965333E+02 -0.89613936289E+01  0.15151825256E+02  0.51100000000E-03 0.  1.
         12    1    3    3    0    0  0.15560367689E+02 -0.10096835512E+02 -0.43704689019E+01  0.19057075547E+02  0.00000000000E+00 0. -1.
</event>
<event>
 7    1  0.2598019E-009  0.4778727E+02  0.7816164E-02  0.1312668E+00
        -11   -1    0    0    0    0  0.00000000000E+00  0.00000000000E+00  0.45593999997E+02  0.45594000000E+02  0.51100000000E-03 0.  1.
         11   -1    0    0    0    0 -0.00000000000E+00 -0.00000000000E+00 -0.45593999997E+02  0.45594000000E+02  0.51100000000E-03 0. -1.
    9900012    2    1    2    0    0  0.41370872531E+02  0.15798150885E+01 -0.13022226347E+02  0.47787270874E+02  0.19999999221E+02 0.  0.
        -12    1    1    2    0    0 -0.41370872531E+02 -0.15798150885E+01  0.13022226347E+02  0.43400729126E+02  0.00000000000E+00 0.  1.
         11    1    3    3    0    0 -0.15953055841E+01 -0.15497412986E+01  0.87557329704E-01  0.22258401889E+01  0.51100000000E-03 0.  1.
        -11    1    3    3    0    0  0.23067878440E+02  0.10830916366E+01 -0.34558997042E+01  0.23350446382E+02  0.51100000000E-03 0. -1.
         12    1    3    3    0    0  0.19898299675E+02  0.20464647504E+01 -0.96538839728E+01  0.22210984303E+02  0.00000000000E+00 0. -1.
</event>
<event>
 7    1  0.2598019E-009  0.4778727E+02  0.7816164E-02  0.1312668E+00
        -11   -1    0    0    0    0  0.00000000000E+00  0.00000000000E+00  0.45593999997E+02  0.45594000000E+02  0.51100000000E-03 0.  1.
         11   -1    0    0    0    0 -0.00000000000E+00 -0.00000000000E+00 -0.45593999997E+02  0.45594000000E+02  0.51100000000E-03 0. -1.
    9900012    2    1    2    0    0 -0.22929065097E+02  0.43046389367E+01 -0.36597147088E+02  0.47787272845E+02  0.20000008210E+02 0.  0.
        -12    1    1    2    0    0  0.22929065097E+02 -0.43046389367E+01  0.36597147088E+02  0.43400727155E+02  0.00000000000E+00 0.  1.
         11    1    3    3    0    0 -0.10613395826E+02  0.73252399001E+01 -0.31591328632E+02  0.34122065523E+02  0.51100000000E-03 0. -1.
        -11    1    3    3    0    0 -0.55713617630E+01 -0.15969250733E+01 -0.27281975845E+01  0.64057243076E+01  0.51100000000E-03 0.  1.
         12    1    3    3    0    0 -0.67443075083E+01 -0.14236758901E+01 -0.22776208716E+01  0.72594830147E+01  0.00000000000E+00 0. -1.
</event>
<event>
 7    1  0.2598019E-009  0.4778727E+02  0.7816164E-02  0.1312668E+00
        -11   -1    0    0    0    0  0.00000000000E+00  0.00000000000E+00  0.45593999997E+02  0.45594000000E+02  0.51100000000E-03 0.  1.
         11   -1    0    0    0    0 -0.00000000000E+00 -0.00000000000E+00 -0.45593999997E+02  0.45594000000E+02  0.51100000000E-03 0. -1.
    9900012    2    1    2    0    0 -0.11103006055E+01 -0.42887701298E+02 -0.65601444601E+01  0.47787272064E+02  0.20000004647E+02 0.  0.
        -12    1    1    2    0    0  0.11103006055E+01  0.42887701298E+02  0.65601444601E+01  0.43400727936E+02  0.00000000000E+00 0.  1.
         11    1    3    3    0    0  0.18110366221E-01 -0.33019440259E+02 -0.10170482227E+01  0.33035104818E+02  0.51100000000E-03 0. -1.
        -11    1    3    3    0    0  0.29047374816E+01 -0.20748284333E+01  0.11119545290E+01  0.37388308334E+01  0.51100000000E-03 0.  1.
         12    1    3    3    0    0 -0.40331484533E+01 -0.77934326059E+01 -0.66550507663E+01  0.11013336412E+02  0.00000000000E+00 0. -1.
</event>
<event>
 7    1  0.2598019E-009  0.4778728E+02  0.7816164E-02  0.1312668E+00
        -11   -1    0    0    0    0  0.00000000000E+00  0.00000000000E+00  0.45593999997E+02  0.45594000000E+02  0.51100000000E-03 0.  1.
         11   -1    0    0    0    0 -0.00000000000E+00 -0.00000000000E+00 -0.45593999997E+02  0.45594000000E+02  0.51100000000E-03 0. -1.
    9900012    2    1    2    0    0 -0.26476139551E+02  0.48826934836E+01 -0.34041096763E+02  0.47787275006E+02  0.20000018062E+02 0.  0.
        -12    1    1    2    0    0  0.26476139551E+02 -0.48826934836E+01  0.34041096763E+02  0.43400724994E+02  0.00000000000E+00 0.  1.
         11    1    3    3    0    0 -0.10059875153E+02  0.76222629793E+01 -0.26593578756E+02  0.29436684805E+02  0.51100000000E-03 0. -1.
        -11    1    3    3    0    0 -0.11990368289E+02 -0.13109789203E+01 -0.60520757807E+01  0.13495007186E+02  0.51100000000E-03 0.  1.
         12    1    3    3    0    0 -0.44258961094E+01 -0.14285905755E+01 -0.13954422261E+01  0.48555830144E+01  0.00000000000E+00 0. -1.
</event>
<event>
 7    1  0.2598019E-009  0.4778727E+02  0.7816164E-02  0.1312668E+00
        -11   -1    0    0    0    0  0.00000000000E+00  0.00000000000E+00  0.45593999997E+02  0.45594000000E+02  0.51100000000E-03 0.  1.
         11   -1    0    0    0    0 -0.00000000000E+00 -0.00000000000E+00 -0.45593999997E+02  0.45594000000E+02  0.51100000000E-03 0. -1.
    9900012    2    1    2    0    0 -0.43365910813E+02 -0.48726543342E+00 -0.16684001341E+01  0.47787271812E+02  0.20000003500E+02 0.  0.
        -12    1    1    2    0    0  0.43365910813E+02  0.48726543342E+00  0.16684001341E+01  0.43400728188E+02  0.00000000000E+00 0.  1.
         11    1    3    3    0    0 -0.22388598044E+02 -0.37978593159E+01  0.13107430145E+01  0.22746232771E+02  0.51100000000E-03 0. -1.
        -11    1    3    3    0    0 -0.12332929666E+02  0.42660791238E+01 -0.76929894747E+01  0.15148685506E+02  0.51100000000E-03 0.  1.
        -12    1    3    3    0    0 -0.86443831032E+01 -0.95548524130E+00  0.47138463261E+01  0.98923535353E+01  0.00000000000E+00 0.  1.
</event>
<event>
 7    1  0.2598019E-009  0.4778727E+02  0.7816164E-02  0.1312668E+00
        -11   -1    0    0    0    0  0.00000000000E+00  0.00000000000E+00  0.45593999997E+02  0.45594000000E+02  0.51100000000E-03 0. -1.
         11   -1    0    0    0    0 -0.00000000000E+00 -0.00000000000E+00 -0.45593999997E+02  0.45594000000E+02  0.51100000000E-03 0.  1.
    9900012    2    1    2    0    0  0.13023215163E+02  0.19843812367E+02  0.36335139496E+02  0.47787269769E+02  0.19999994183E+02 0.  0.
        -12    1    1    2    0    0 -0.13023215163E+02 -0.19843812367E+02 -0.36335139496E+02  0.43400730231E+02  0.00000000000E+00 0.  1.
         11    1    3    3    0    0  0.57178453910E+01  0.12570976763E+01  0.90139718911E+01  0.10748290097E+02  0.51100000000E-03 0.  1.
        -11    1    3    3    0    0  0.64633843191E+01  0.64214103008E+01  0.26014548544E+01  0.94750944443E+01  0.51100000000E-03 0. -1.
        -12    1    3    3    0    0  0.84198545245E+00  0.12165304389E+02  0.24719712751E+02  0.27563885228E+02  0.00000000000E+00 0.  1.
</event>
<event>
 7    1  0.2598019E-009  0.4778727E+02  0.7816164E-02  0.1312668E+00
        -11   -1    0    0    0    0  0.00000000000E+00  0.00000000000E+00  0.45593999997E+02  0.45594000000E+02  0.51100000000E-03 0.  1.
         11   -1    0    0    0    0 -0.00000000000E+00 -0.00000000000E+00 -0.45593999997E+02  0.45594000000E+02  0.51100000000E-03 0. -1.
    9900012    2    1    2    0    0 -0.92012427231E+01  0.94454638081E+01 -0.41349045085E+02  0.47787272084E+02  0.20000004739E+02 0.  0.
        -12    1    1    2    0    0  0.92012427231E+01 -0.94454638081E+01  0.41349045085E+02  0.43400727916E+02  0.00000000000E+00 0.  1.
         11    1    3    3    0    0 -0.17399778518E+01  0.13421476371E+01 -0.79527128988E+01  0.82507288113E+01  0.51100000000E-03 0. -1.
        -11    1    3    3    0    0 -0.11421181626E+01  0.53676540782E+01 -0.32054829053E+02  0.32521196320E+02  0.51100000000E-03 0.  1.
        -12    1    3    3    0    0 -0.63191467087E+01  0.27356620928E+01 -0.13415031338E+01  0.70153469529E+01  0.00000000000E+00 0.  1.
</event>
<event>
 7    1  0.2598019E-009  0.4778727E+02  0.7816164E-02  0.1312668E+00
        -11   -1    0    0    0    0  0.00000000000E+00  0.00000000000E+00  0.45593999997E+02  0.45594000000E+02  0.51100000000E-03 0.  1.
         11   -1    0    0    0    0 -0.00000000000E+00 -0.00000000000E+00 -0.45593999997E+02  0.45594000000E+02  0.51100000000E-03 0. -1.
    9900012    2    1    2    0    0  0.30200946260E+02 -0.15111001806E+02 -0.27261390473E+02  0.47787274878E+02  0.20000017479E+02 0.  0.
        -12    1    1    2    0    0 -0.30200946260E+02  0.15111001806E+02  0.27261390473E+02  0.43400725122E+02  0.00000000000E+00 0.  1.
         11    1    3    3    0    0  0.18202361302E+02  0.12428210273E+01 -0.10282655907E+02  0.20942864509E+02  0.51100000000E-03 0. -1.
        -11    1    3    3    0    0  0.64644272508E+01 -0.85658308988E+01 -0.11900932575E+02  0.16024808114E+02  0.51100000000E-03 0.  1.
         12    1    3    3    0    0  0.55341577071E+01 -0.77879919347E+01 -0.50778019909E+01  0.10819602255E+02  0.00000000000E+00 0. -1.
</event>
<event>
 7    1  0.2598019E-009  0.4778727E+02  0.7816164E-02  0.1312668E+00
        -11   -1    0    0    0    0  0.00000000000E+00  0.00000000000E+00  0.45593999997E+02  0.45594000000E+02  0.51100000000E-03 0. -1.
         11   -1    0    0    0    0 -0.00000000000E+00 -0.00000000000E+00 -0.45593999997E+02  0.45594000000E+02  0.51100000000E-03 0.  1.
    9900012    2    1    2    0    0  0.17105679358E+02  0.32849146506E+01  0.39752087272E+02  0.47787269901E+02  0.19999994789E+02 0.  0.
        -12    1    1    2    0    0 -0.17105679358E+02 -0.32849146506E+01 -0.39752087272E+02  0.43400730099E+02  0.00000000000E+00 0.  1.
         11    1    3    3    0    0  0.44387025645E+01  0.83996690087E+00  0.31475778849E+02  0.31798306232E+02  0.51100000000E-03 0. -1.
        -11    1    3    3    0    0  0.29438794405E+01 -0.13484429235E+01  0.17708738826E+01  0.36906258341E+01  0.51100000000E-03 0.  1.
         12    1    3    3    0    0  0.97230973530E+01  0.37933906733E+01  0.65054345413E+01  0.12298337835E+02  0.00000000000E+00 0. -1.
</event>
<event>
 7    1  0.2598019E-009  0.4778727E+02  0.7816164E-02  0.1312668E+00
        -11   -1    0    0    0    0  0.00000000000E+00  0.00000000000E+00  0.45593999997E+02  0.45594000000E+02  0.51100000000E-03 0.  1.
         11   -1    0    0    0    0 -0.00000000000E+00 -0.00000000000E+00 -0.45593999997E+02  0.45594000000E+02  0.51100000000E-03 0. -1.
    9900012    2    1    2    0    0 -0.36810872348E+02 -0.13268622458E+02 -0.18775700808E+02  0.47787267221E+02  0.19999982566E+02 0.  0.
        -12    1    1    2    0    0  0.36810872348E+02  0.13268622458E+02  0.18775700808E+02  0.43400732779E+02  0.00000000000E+00 0.  1.
         11    1    3    3    0    0 -0.28439544967E+02 -0.15477433571E+02 -0.14937435596E+02  0.35657897447E+02  0.51100000000E-03 0. -1.
        -11    1    3    3    0    0 -0.67211878575E+01  0.37032659938E+01 -0.54229823302E+01  0.93966633893E+01  0.51100000000E-03 0.  1.
        -12    1    3    3    0    0 -0.16501395237E+01 -0.14944548811E+01  0.15847171185E+01  0.27327063847E+01  0.00000000000E+00 0.  1.
</event>
<event>
 7    1  0.2598019E-009  0.4778727E+02  0.7816164E-02  0.1312668E+00
        -11   -1    0    0    0    0  0.00000000000E+00  0.00000000000E+00  0.45593999997E+02  0.45594000000E+02  0.51100000000E-03 0.  1.
         11   -1    0    0    0    0 -0.00000000000E+00 -0.00000000000E+00 -0.45593999997E+02  0.45594000000E+02  0.51100000000E-03 0. -1.
    9900012    2    1    2    0    0 -0.26103270200E+02  0.19735276616E+02 -0.28508966162E+02  0.47787274086E+02  0.20000013867E+02 0.  0.
        -12    1    1    2    0    0  0.26103270200E+02 -0.19735276616E+02  0.28508966162E+02  0.43400725914E+02  0.00000000000E+00 0.  1.
         11    1    3    3    0    0 -0.58476122649E+01  0.55182289170E+01 -0.17518917986E+02  0.19275837394E+02  0.51100000000E-03 0. -1.
        -11    1    3    3    0    0 -0.10500558514E+02  0.11007613004E+02 -0.30143057092E+01  0.15508556100E+02  0.51100000000E-03 0.  1.
         12    1    3    3    0    0 -0.97550994215E+01  0.32094346955E+01 -0.79757424666E+01  0.13002880592E+02  0.00000000000E+00 0. -1.
</event>
<event>
 7    1  0.2598019E-009  0.4778727E+02  0.7816164E-02  0.1312668E+00
        -11   -1    0    0    0    0  0.00000000000E+00  0.00000000000E+00  0.45593999997E+02  0.45594000000E+02  0.51100000000E-03 0. -1.
         11   -1    0    0    0    0 -0.00000000000E+00 -0.00000000000E+00 -0.45593999997E+02  0.45594000000E+02  0.51100000000E-03 0.  1.
    9900012    2    1    2    0    0  0.47999897666E+01  0.95926687502E+01  0.42054303072E+02  0.47787267260E+02  0.19999982746E+02 0.  0.
        -12    1    1    2    0    0 -0.47999897666E+01 -0.95926687502E+01 -0.42054303072E+02  0.43400732740E+02  0.00000000000E+00 0.  1.
         11    1    3    3    0    0 -0.17956607488E+00  0.77322623983E+00  0.12762575017E+02  0.12787237548E+02  0.51100000000E-03 0.  1.
        -11    1    3    3    0    0  0.12549395403E+01  0.12108134474E+02  0.26813991832E+02  0.29447783481E+02  0.51100000000E-03 0. -1.
        -12    1    3    3    0    0  0.37246163011E+01 -0.32886919636E+01  0.24777362225E+01  0.55522462310E+01  0.00000000000E+00 0.  1.
</event>
<event>
 7    1  0.2598019E-009  0.4778727E+02  0.7816164E-02  0.1312668E+00
        -11   -1    0    0    0    0  0.00000000000E+00  0.00000000000E+00  0.45593999997E+02  0.45594000000E+02  0.51100000000E-03 0. -1.
         11   -1    0    0    0    0 -0.00000000000E+00 -0.00000000000E+00 -0.45593999997E+02  0.45594000000E+02  0.51100000000E-03 0.  1.
    9900012    2    1    2    0    0 -0.41809307419E+02  0.83631413519E+00  0.11614886142E+02  0.47787272031E+02  0.20000004497E+02 0.  0.
        -12    1    1    2    0    0  0.41809307419E+02 -0.83631413519E+00 -0.11614886142E+02  0.43400727969E+02  0.00000000000E+00 0.  1.
         11    1    3    3    0    0 -0.26242134296E+02 -0.19304243501E+01  0.68777669712E+01  0.27197055527E+02  0.51100000000E-03 0. -1.
        -11    1    3    3    0    0 -0.48872364326E+01  0.42250422833E+01  0.70536713379E+01  0.95650583818E+01  0.51100000000E-03 0.  1.
        -12    1    3    3    0    0 -0.10679936690E+02 -0.14583037980E+01 -0.23165521666E+01  0.11025158122E+02  0.00000000000E+00 0.  1.
</event>
<event>
 7    1  0.2598019E-009  0.4778727E+02  0.7816164E-02  0.1312668E+00
        -11   -1    0    0    0    0  0.00000000000E+00  0.00000000000E+00  0.45593999997E+02  0.45594000000E+02  0.51100000000E-03 0.  1.
         11   -1    0    0    0    0 -0.00000000000E+00 -0.00000000000E+00 -0.45593999997E+02  0.45594000000E+02  0.51100000000E-03 0. -1.
    9900012    2    1    2    0    0 -0.17374036997E-01  0.39695058983E+02 -0.17547801637E+02  0.47787270146E+02  0.19999995906E+02 0.  0.
        -12    1    1    2    0    0  0.17374036997E-01 -0.39695058983E+02  0.17547801637E+02  0.43400729854E+02  0.00000000000E+00 0.  1.
         11    1    3    3    0    0  0.21381345268E+01  0.34209028700E+02 -0.17905727809E+02  0.38670975582E+02  0.51100000000E-03 0. -1.
        -11    1    3    3    0    0  0.21678647522E+01  0.28689447345E+01 -0.12593510196E+01  0.38100455017E+01  0.51100000000E-03 0.  1.
         12    1    3    3    0    0 -0.43233733160E+01  0.26170855488E+01  0.16172771918E+01  0.53062490626E+01  0.00000000000E+00 0. -1.
</event>
<event>
 7    1  0.2598019E-009  0.4778727E+02  0.7816164E-02  0.1312668E+00
        -11   -1    0    0    0    0  0.00000000000E+00  0.00000000000E+00  0.45593999997E+02  0.45594000000E+02  0.51100000000E-03 0.  1.
         11   -1    0    0    0    0 -0.00000000000E+00 -0.00000000000E+00 -0.45593999997E+02  0.45594000000E+02  0.51100000000E-03 0. -1.
    9900012    2    1    2    0    0  0.14590473125E+02 -0.33775832745E+02 -0.23020302834E+02  0.47787272746E+02  0.20000007757E+02 0.  0.
        -12    1    1    2    0    0 -0.14590473125E+02  0.33775832745E+02  0.23020302834E+02  0.43400727254E+02  0.00000000000E+00 0.  1.
         11    1    3    3    0    0  0.16487725921E+02 -0.19874496536E+02 -0.13378645395E+02  0.29083137236E+02  0.51100000000E-03 0. -1.
        -11    1    3    3    0    0 -0.22726121220E+01 -0.14641515114E+02 -0.99174472672E+01  0.17829595936E+02  0.51100000000E-03 0.  1.
        -12    1    3    3    0    0  0.37535932629E+00  0.74017890580E+00  0.27578982803E+00  0.87453957353E+00  0.00000000000E+00 0.  1.
</event>
<event>
 7    1  0.2598019E-009  0.4778727E+02  0.7816164E-02  0.1312668E+00
        -11   -1    0    0    0    0  0.00000000000E+00  0.00000000000E+00  0.45593999997E+02  0.45594000000E+02  0.51100000000E-03 0.  1.
         11   -1    0    0    0    0 -0.00000000000E+00 -0.00000000000E+00 -0.45593999997E+02  0.45594000000E+02  0.51100000000E-03 0. -1.
    9900012    2    1    2    0    0  0.34985319227E+01 -0.19973177925E+02 -0.38372589884E+02  0.47787271706E+02  0.20000003015E+02 0.  0.
        -12    1    1    2    0    0 -0.34985319227E+01  0.19973177925E+02  0.38372589884E+02  0.43400728294E+02  0.00000000000E+00 0.  1.
         11    1    3    3    0    0  0.11634315498E+01 -0.22148426160E+02 -0.23578307684E+02  0.32370402343E+02  0.51100000000E-03 0. -1.
        -11    1    3    3    0    0  0.26216456572E+01  0.55918308886E+00 -0.97866954595E+01  0.10147173003E+02  0.51100000000E-03 0.  1.
         12    1    3    3    0    0 -0.28654528429E+00  0.16160651457E+01 -0.50075867408E+01  0.52696963596E+01  0.00000000000E+00 0. -1.
</event>
<event>
 7    1  0.2598019E-009  0.4778725E+02  0.7816164E-02  0.1312668E+00
        -11   -1    0    0    0    0  0.00000000000E+00  0.00000000000E+00  0.45593999997E+02  0.45594000000E+02  0.51100000000E-03 0.  1.
         11   -1    0    0    0    0 -0.00000000000E+00 -0.00000000000E+00 -0.45593999997E+02  0.45594000000E+02  0.51100000000E-03 0. -1.
    9900012    2    1    2    0    0 -0.16967491558E+02 -0.34406650140E+02 -0.20295601492E+02  0.47787253652E+02  0.19999920701E+02 0.  0.
        -12    1    1    2    0    0  0.16967491558E+02  0.34406650140E+02  0.20295601492E+02  0.43400746348E+02  0.00000000000E+00 0.  1.
         11    1    3    3    0    0  0.28477369200E+01 -0.41767564692E+01  0.16885754347E+00  0.50580048734E+01  0.51100000000E-03 0. -1.
        -11    1    3    3    0    0 -0.12853293327E+02 -0.10824131911E+02 -0.77288991993E+01  0.18496076992E+02  0.51100000000E-03 0.  1.
         12    1    3    3    0    0 -0.69619351502E+01 -0.19405761760E+02 -0.12735559836E+02  0.24233171787E+02  0.00000000000E+00 0. -1.
</event>
<event>
 7    1  0.2598019E-009  0.4778727E+02  0.7816164E-02  0.1312668E+00
        -11   -1    0    0    0    0  0.00000000000E+00  0.00000000000E+00  0.45593999997E+02  0.45594000000E+02  0.51100000000E-03 0. -1.
         11   -1    0    0    0    0 -0.00000000000E+00 -0.00000000000E+00 -0.45593999997E+02  0.45594000000E+02  0.51100000000E-03 0.  1.
    9900012    2    1    2    0    0  0.62009763102E+01 -0.24366543937E+02  0.35375736225E+02  0.47787270926E+02  0.19999999461E+02 0.  0.
        -12    1    1    2    0    0 -0.62009763102E+01  0.24366543937E+02 -0.35375736225E+02  0.43400729074E+02  0.00000000000E+00 0.  1.
         11    1    3    3    0    0  0.11903573752E+02 -0.21002733749E+02  0.25454378832E+02  0.35081837110E+02  0.51100000000E-03 0. -1.
        -11    1    3    3    0    0 -0.28015662984E+01  0.68828969604E+00  0.44636330651E+01  0.53147471089E+01  0.51100000000E-03 0.  1.
         12    1    3    3    0    0 -0.29010311437E+01 -0.40520998840E+01  0.54577243286E+01  0.73906867079E+01  0.00000000000E+00 0. -1.
</event>
<event>
 7    1  0.2598019E-009  0.4778732E+02  0.7816164E-02  0.1312668E+00
        -11   -1    0    0    0    0  0.00000000000E+00  0.00000000000E+00  0.45593999997E+02  0.45594000000E+02  0.51100000000E-03 0.  1.
         11   -1    0    0    0    0 -0.00000000000E+00 -0.00000000000E+00 -0.45593999997E+02  0.45594000000E+02  0.51100000000E-03 0. -1.
    9900012    2    1    2    0    0 -0.26189690380E+02  0.27751386869E+02 -0.20677990467E+02  0.47787324370E+02  0.20000243132E+02 0.  0.
        -12    1    1    2    0    0  0.26189690380E+02 -0.27751386869E+02  0.20677990467E+02  0.43400675630E+02  0.00000000000E+00 0.  1.
         11    1    3    3    0    0 -0.78854988156E+01  0.12241898885E+02 -0.16793937017E+02  0.22227944140E+02  0.51100000000E-03 0. -1.
        -11    1    3    3    0    0 -0.14503851256E+02  0.15797299509E+02 -0.34910170768E+01  0.21727944531E+02  0.51100000000E-03 0.  1.
         12    1    3    3    0    0 -0.38003403081E+01 -0.28781152492E+00 -0.39303637322E+00  0.38314356999E+01  0.00000000000E+00 0. -1.
</event>
<event>
 7    1  0.2598019E-009  0.4778727E+02  0.7816164E-02  0.1312668E+00
        -11   -1    0    0    0    0  0.00000000000E+00  0.00000000000E+00  0.45593999997E+02  0.45594000000E+02  0.51100000000E-03 0.  1.
         11   -1    0    0    0    0 -0.00000000000E+00 -0.00000000000E+00 -0.45593999997E+02  0.45594000000E+02  0.51100000000E-03 0. -1.
    9900012    2    1    2    0    0 -0.36766711430E+02  0.22854761419E+02 -0.30809978197E+01  0.47787265716E+02  0.19999975704E+02 0.  0.
        -12    1    1    2    0    0  0.36766711430E+02 -0.22854761419E+02  0.30809978197E+01  0.43400734284E+02  0.00000000000E+00 0.  1.
         11    1    3    3    0    0 -0.25660017951E+02  0.93384848173E+01 -0.72706401948E+01  0.28257848981E+02  0.51100000000E-03 0. -1.
        -11    1    3    3    0    0  0.96421734715E+00  0.25153177747E+01  0.11131900118E+00  0.26960954697E+01  0.51100000000E-03 0.  1.
         12    1    3    3    0    0 -0.12070910826E+02  0.11000958827E+02  0.40783233739E+01  0.16833321265E+02  0.00000000000E+00 0. -1.
</event>
<event>
 7    1  0.2598019E-009  0.4778728E+02  0.7816164E-02  0.1312668E+00
        -11   -1    0    0    0    0  0.00000000000E+00  0.00000000000E+00  0.45593999997E+02  0.45594000000E+02  0.51100000000E-03 0.  1.
         11   -1    0    0    0    0 -0.00000000000E+00 -0.00000000000E+00 -0.45593999997E+02  0.45594000000E+02  0.51100000000E-03 0. -1.
    9900012    2    1    2    0    0  0.18418838972E+02  0.33614384733E+02 -0.20357849851E+02  0.47787279492E+02  0.20000038517E+02 0.  0.
        -12    1    1    2    0    0 -0.18418838972E+02 -0.33614384733E+02  0.20357849851E+02  0.43400720508E+02  0.00000000000E+00 0.  1.
         11    1    3    3    0    0  0.98381747735E+01  0.40370180006E+01 -0.66602796610E+01  0.12547769628E+02  0.51100000000E-03 0. -1.
        -11    1    3    3    0    0  0.22697005644E+01  0.20621906771E+02 -0.52370597800E+01  0.21397228206E+02  0.51100000000E-03 0.  1.
         12    1    3    3    0    0  0.63109636338E+01  0.89554599616E+01 -0.84605104095E+01  0.13842281658E+02  0.00000000000E+00 0. -1.
</event>
<event>
 7    1  0.2598019E-009  0.4778724E+02  0.7816164E-02  0.1312668E+00
        -11   -1    0    0    0    0  0.00000000000E+00  0.00000000000E+00  0.45593999997E+02  0.45594000000E+02  0.51100000000E-03 0.  1.
         11   -1    0    0    0    0 -0.00000000000E+00 -0.00000000000E+00 -0.45593999997E+02  0.45594000000E+02  0.51100000000E-03 0. -1.
    9900012    2    1    2    0    0 -0.41718324045E+02 -0.54418486632E+01 -0.10658023681E+02  0.47787242555E+02  0.19999870105E+02 0.  0.
        -12    1    1    2    0    0  0.41718324045E+02  0.54418486632E+01  0.10658023681E+02  0.43400757445E+02  0.00000000000E+00 0.  1.
         11    1    3    3    0    0 -0.32469093854E+02 -0.22310799917E+01 -0.64054830559E+01  0.33170016386E+02  0.51100000000E-03 0. -1.
        -11    1    3    3    0    0 -0.19689198467E+01 -0.42513368315E+01 -0.54271774207E+01  0.71697116563E+01  0.51100000000E-03 0.  1.
         12    1    3    3    0    0 -0.72803103449E+01  0.10405681600E+01  0.11746367957E+01  0.74475145126E+01  0.00000000000E+00 0. -1.
</event>
<event>
 7    1  0.2598019E-009  0.4778727E+02  0.7816164E-02  0.1312668E+00
        -11   -1    0    0    0    0  0.00000000000E+00  0.00000000000E+00  0.45593999997E+02  0.45594000000E+02  0.51100000000E-03 0.  1.
         11   -1    0    0    0    0 -0.00000000000E+00 -0.00000000000E+00 -0.45593999997E+02  0.45594000000E+02  0.51100000000E-03 0. -1.
    9900012    2    1    2    0    0  0.18940309585E+02 -0.21871264068E+02 -0.32350208388E+02  0.47787268418E+02  0.19999988025E+02 0.  0.
        -12    1    1    2    0    0 -0.18940309585E+02  0.21871264068E+02  0.32350208388E+02  0.43400731582E+02  0.00000000000E+00 0.  1.
         11    1    3    3    0    0 -0.68266177864E+00  0.24043612021E+01 -0.38396029124E+01  0.45814332561E+01  0.51100000000E-03 0.  1.
        -11    1    3    3    0    0  0.14113886002E+02 -0.21615890635E+02 -0.25855261801E+02  0.36536872733E+02  0.51100000000E-03 0. -1.
        -12    1    3    3    0    0  0.55090853615E+01 -0.26597346355E+01 -0.26553436745E+01  0.66689624292E+01  0.00000000000E+00 0.  1.
</event>
<event>
 7    1  0.2598019E-009  0.4778727E+02  0.7816164E-02  0.1312668E+00
        -11   -1    0    0    0    0  0.00000000000E+00  0.00000000000E+00  0.45593999997E+02  0.45594000000E+02  0.51100000000E-03 0. -1.
         11   -1    0    0    0    0 -0.00000000000E+00 -0.00000000000E+00 -0.45593999997E+02  0.45594000000E+02  0.51100000000E-03 0.  1.
    9900012    2    1    2    0    0 -0.12200178418E+02  0.41648816958E+02  0.39391692388E+00  0.47787268693E+02  0.19999989280E+02 0.  0.
        -12    1    1    2    0    0  0.12200178418E+02 -0.41648816958E+02 -0.39391692388E+00  0.43400731307E+02  0.00000000000E+00 0.  1.
         11    1    3    3    0    0 -0.89434423856E+01  0.38893284968E+02  0.56532660884E+01  0.40306726425E+02  0.51100000000E-03 0. -1.
        -11    1    3    3    0    0 -0.38728536844E+01  0.25777990427E+01 -0.48454537708E+01  0.67173258125E+01  0.51100000000E-03 0.  1.
         12    1    3    3    0    0  0.61611765223E+00  0.17773294684E+00 -0.41389539372E+00  0.76321645601E+00  0.00000000000E+00 0. -1.
</event>
<event>
 7    1  0.2598019E-009  0.4778727E+02  0.7816164E-02  0.1312668E+00
        -11   -1    0    0    0    0  0.00000000000E+00  0.00000000000E+00  0.45593999997E+02  0.45594000000E+02  0.51100000000E-03 0.  1.
         11   -1    0    0    0    0 -0.00000000000E+00 -0.00000000000E+00 -0.45593999997E+02  0.45594000000E+02  0.51100000000E-03 0. -1.
    9900012    2    1    2    0    0 -0.86795916273E+01 -0.10103377222E+02 -0.41306289929E+02  0.47787272704E+02  0.20000007566E+02 0.  0.
        -12    1    1    2    0    0  0.86795916273E+01  0.10103377222E+02  0.41306289929E+02  0.43400727296E+02  0.00000000000E+00 0.  1.
         11    1    3    3    0    0 -0.15751927273E+01 -0.12864732333E+02 -0.25355949573E+02  0.28476424444E+02  0.51100000000E-03 0. -1.
        -11    1    3    3    0    0 -0.43320188597E+00  0.39250120359E+01 -0.75546350570E+01  0.85244292748E+01  0.51100000000E-03 0.  1.
         12    1    3    3    0    0 -0.66711970141E+01 -0.11636569249E+01 -0.83957052995E+01  0.10786418985E+02  0.00000000000E+00 0. -1.
</event>
<event>
 7    1  0.2598019E-009  0.4778727E+02  0.7816164E-02  0.1312668E+00
        -11   -1    0    0    0    0  0.00000000000E+00  0.00000000000E+00  0.45593999997E+02  0.45594000000E+02  0.51100000000E-03 0.  1.
         11   -1    0    0    0    0 -0.00000000000E+00 -0.00000000000E+00 -0.45593999997E+02  0.45594000000E+02  0.51100000000E-03 0. -1.
    9900012    2    1    2    0    0 -0.34723612365E+02  0.65459107001E+01 -0.25200109519E+02  0.47787265878E+02  0.19999976442E+02 0.  0.
        -12    1    1    2    0    0  0.34723612365E+02 -0.65459107001E+01  0.25200109519E+02  0.43400734122E+02  0.00000000000E+00 0.  1.
         11    1    3    3    0    0 -0.69208556074E+01  0.20626769971E+01 -0.84851427437E+01  0.11142285510E+02  0.51100000000E-03 0. -1.
        -11    1    3    3    0    0 -0.12716814881E+01 -0.41586279322E+01 -0.42626383964E+01  0.60894537067E+01  0.51100000000E-03 0.  1.
        -12    1    3    3    0    0 -0.26531075270E+02  0.86418616353E+01 -0.12452328379E+02  0.30555526661E+02  0.00000000000E+00 0.  1.
</event>
<event>
 7    1  0.2598019E-009  0.4778727E+02  0.7816164E-02  0.1312668E+00
        -11   -1    0    0    0    0  0.00000000000E+00  0.00000000000E+00  0.45593999997E+02  0.45594000000E+02  0.51100000000E-03 0.  1.
         11   -1    0    0    0    0 -0.00000000000E+00 -0.00000000000E+00 -0.45593999997E+02  0.45594000000E+02  0.51100000000E-03 0. -1.
    9900012    2    1    2    0    0 -0.23603979589E+02  0.24159832236E+02 -0.27253949217E+02  0.47787273116E+02  0.20000009445E+02 0.  0.
        -12    1    1    2    0    0  0.23603979589E+02 -0.24159832236E+02  0.27253949217E+02  0.43400726884E+02  0.00000000000E+00 0.  1.
         11    1    3    3    0    0 -0.18737679026E+02  0.13976478205E+02 -0.12769463385E+02  0.26636474123E+02  0.51100000000E-03 0. -1.
        -11    1    3    3    0    0  0.44990119877E+00  0.96628119125E+01 -0.69337014527E+01  0.11901620110E+02  0.51100000000E-03 0.  1.
        -12    1    3    3    0    0 -0.53162017614E+01  0.52054211890E+00 -0.75507843792E+01  0.92491788828E+01  0.00000000000E+00 0.  1.
</event>
<event>
 7    1  0.2598019E-009  0.4778727E+02  0.7816164E-02  0.1312668E+00
        -11   -1    0    0    0    0  0.00000000000E+00  0.00000000000E+00  0.45593999997E+02  0.45594000000E+02  0.51100000000E-03 0.  1.
         11   -1    0    0    0    0 -0.00000000000E+00 -0.00000000000E+00 -0.45593999997E+02  0.45594000000E+02  0.51100000000E-03 0. -1.
    9900012    2    1    2    0    0 -0.25161925501E+02 -0.33404651024E+02 -0.11603012152E+02  0.47787273094E+02  0.20000009344E+02 0.  0.
        -12    1    1    2    0    0  0.25161925501E+02  0.33404651024E+02  0.11603012152E+02  0.43400726906E+02  0.00000000000E+00 0.  1.
         11    1    3    3    0    0  0.43649171125E+00  0.65110444152E+00 -0.21176754583E+01  0.22580991156E+01  0.51100000000E-03 0.  1.
        -11    1    3    3    0    0 -0.26325493159E+02 -0.34187827173E+02 -0.10368825337E+02  0.44377377750E+02  0.51100000000E-03 0. -1.
         12    1    3    3    0    0  0.72707594642E+00  0.13207170738E+00  0.88348864325E+00  0.11517962279E+01  0.00000000000E+00 0. -1.
</event>
<event>
 7    1  0.2598019E-009  0.4778728E+02  0.7816164E-02  0.1312668E+00
        -11   -1    0    0    0    0  0.00000000000E+00  0.00000000000E+00  0.45593999997E+02  0.45594000000E+02  0.51100000000E-03 0.  1.
         11   -1    0    0    0    0 -0.00000000000E+00 -0.00000000000E+00 -0.45593999997E+02  0.45594000000E+02  0.51100000000E-03 0. -1.
    9900012    2    1    2    0    0  0.14437409979E+02 -0.18495349408E+01 -0.40887200192E+02  0.47787277357E+02  0.20000028781E+02 0.  0.
        -12    1    1    2    0    0 -0.14437409979E+02  0.18495349408E+01  0.40887200192E+02  0.43400722643E+02  0.00000000000E+00 0.  1.
         11    1    3    3    0    0  0.12930114098E+02 -0.19712298559E+01 -0.27834061660E+02  0.30754001146E+02  0.51100000000E-03 0. -1.
        -11    1    3    3    0    0 -0.28538628419E+01  0.34747184620E+01 -0.94272759834E+01  0.10444698858E+02  0.51100000000E-03 0.  1.
        -12    1    3    3    0    0  0.43611587226E+01 -0.33530235469E+01 -0.36258625483E+01  0.65885773524E+01  0.00000000000E+00 0.  1.
</event>
<event>
 7    1  0.2598019E-009  0.4778729E+02  0.7816164E-02  0.1312668E+00
        -11   -1    0    0    0    0  0.00000000000E+00  0.00000000000E+00  0.45593999997E+02  0.45594000000E+02  0.51100000000E-03 0.  1.
         11   -1    0    0    0    0 -0.00000000000E+00 -0.00000000000E+00 -0.45593999997E+02  0.45594000000E+02  0.51100000000E-03 0. -1.
    9900012    2    1    2    0    0  0.17981922148E+02 -0.31650360084E+02 -0.23633172708E+02  0.47787289524E+02  0.20000084255E+02 0.  0.
        -12    1    1    2    0    0 -0.17981922148E+02  0.31650360084E+02  0.23633172708E+02  0.43400710476E+02  0.00000000000E+00 0.  1.
         11    1    3    3    0    0  0.38092921703E+01  0.80718030502E+00  0.25852192626E+00  0.39024454809E+01  0.51100000000E-03 0. -1.
        -11    1    3    3    0    0  0.81455229607E+01 -0.17563847154E+02 -0.70393723239E+01  0.20600753242E+02  0.51100000000E-03 0.  1.
         12    1    3    3    0    0  0.60271070168E+01 -0.14893693235E+02 -0.16852322310E+02  0.23284090801E+02  0.00000000000E+00 0. -1.
</event>
<event>
 7    1  0.2598019E-009  0.4778727E+02  0.7816164E-02  0.1312668E+00
        -11   -1    0    0    0    0  0.00000000000E+00  0.00000000000E+00  0.45593999997E+02  0.45594000000E+02  0.51100000000E-03 0.  1.
         11   -1    0    0    0    0 -0.00000000000E+00 -0.00000000000E+00 -0.45593999997E+02  0.45594000000E+02  0.51100000000E-03 0. -1.
    9900012    2    1    2    0    0  0.13834824349E+01 -0.38451884978E+02 -0.20078882934E+02  0.47787273948E+02  0.20000013238E+02 0.  0.
        -12    1    1    2    0    0 -0.13834824349E+01  0.38451884978E+02  0.20078882934E+02  0.43400726052E+02  0.00000000000E+00 0.  1.
         11    1    3    3    0    0 -0.13947772179E+01 -0.16279440524E+02 -0.18503298938E+02  0.24684765729E+02  0.51100000000E-03 0. -1.
        -11    1    3    3    0    0 -0.89114455609E+00 -0.11293053170E+02  0.87660796925E+00  0.11362025802E+02  0.51100000000E-03 0.  1.
         12    1    3    3    0    0  0.36694042089E+01 -0.10879391284E+02 -0.24521919651E+01  0.11740482417E+02  0.00000000000E+00 0. -1.
</event>
<event>
 7    1  0.2598019E-009  0.4778728E+02  0.7816164E-02  0.1312668E+00
        -11   -1    0    0    0    0  0.00000000000E+00  0.00000000000E+00  0.45593999997E+02  0.45594000000E+02  0.51100000000E-03 0. -1.
         11   -1    0    0    0    0 -0.00000000000E+00 -0.00000000000E+00 -0.45593999997E+02  0.45594000000E+02  0.51100000000E-03 0.  1.
    9900012    2    1    2    0    0  0.30585388310E+02 -0.10222090835E+02  0.29045920118E+02  0.47787278869E+02  0.20000035678E+02 0.  0.
        -12    1    1    2    0    0 -0.30585388310E+02  0.10222090835E+02 -0.29045920118E+02  0.43400721131E+02  0.00000000000E+00 0.  1.
         11    1    3    3    0    0  0.13069763093E+02  0.18329228907E+01  0.52447851652E+01  0.14201622630E+02  0.51100000000E-03 0. -1.
        -11    1    3    3    0    0  0.14470496975E+02 -0.12021144083E+02  0.14363409787E+02  0.23668771171E+02  0.51100000000E-03 0.  1.
         12    1    3    3    0    0  0.30451282430E+01 -0.33869642510E-01  0.94377251655E+01  0.99168850688E+01  0.00000000000E+00 0. -1.
</event>
<event>
 7    1  0.2598019E-009  0.4778727E+02  0.7816164E-02  0.1312668E+00
        -11   -1    0    0    0    0  0.00000000000E+00  0.00000000000E+00  0.45593999997E+02  0.45594000000E+02  0.51100000000E-03 0.  1.
         11   -1    0    0    0    0 -0.00000000000E+00 -0.00000000000E+00 -0.45593999997E+02  0.45594000000E+02  0.51100000000E-03 0. -1.
    9900012    2    1    2    0    0  0.20541198220E+02 -0.17872736078E+02 -0.33797155897E+02  0.47787271135E+02  0.20000000415E+02 0.  0.
        -12    1    1    2    0    0 -0.20541198220E+02  0.17872736078E+02  0.33797155897E+02  0.43400728865E+02  0.00000000000E+00 0.  1.
         11    1    3    3    0    0  0.17802066939E+02 -0.20506151795E+02 -0.26201180119E+02  0.37734833889E+02  0.51100000000E-03 0. -1.
        -11    1    3    3    0    0 -0.58669677527E+00  0.11231965085E+01 -0.58832407418E+01  0.60181646197E+01  0.51100000000E-03 0.  1.
         12    1    3    3    0    0  0.33258280570E+01  0.15102192086E+01 -0.17127350366E+01  0.40342726269E+01  0.00000000000E+00 0. -1.
</event>
<event>
 7    1  0.2598019E-009  0.4778728E+02  0.7816164E-02  0.1312668E+00
        -11   -1    0    0    0    0  0.00000000000E+00  0.00000000000E+00  0.45593999997E+02  0.45594000000E+02  0.51100000000E-03 0.  1.
         11   -1    0    0    0    0 -0.00000000000E+00 -0.00000000000E+00 -0.45593999997E+02  0.45594000000E+02  0.51100000000E-03 0. -1.
    9900012    2    1    2    0    0 -0.21734152578E+02 -0.52493732103E+00 -0.37562923982E+02  0.47787283352E+02  0.20000056114E+02 0.  0.
        -12    1    1    2    0    0  0.21734152578E+02  0.52493732103E+00  0.37562923982E+02  0.43400716648E+02  0.00000000000E+00 0.  1.
         11    1    3    3    0    0 -0.26307327555E+01 -0.30242153151E+00  0.84670680324E+00  0.27801306238E+01  0.51100000000E-03 0.  1.
        -11    1    3    3    0    0 -0.18859531885E+02  0.11205182494E+00 -0.39537687968E+02  0.43805516418E+02  0.51100000000E-03 0. -1.
         12    1    3    3    0    0 -0.24388793792E+00 -0.33456761446E+00  0.11280571824E+01  0.12016363101E+01  0.00000000000E+00 0. -1.
</event>
<event>
 7    1  0.2598019E-009  0.4778727E+02  0.7816164E-02  0.1312668E+00
        -11   -1    0    0    0    0  0.00000000000E+00  0.00000000000E+00  0.45593999997E+02  0.45594000000E+02  0.51100000000E-03 0.  1.
         11   -1    0    0    0    0 -0.00000000000E+00 -0.00000000000E+00 -0.45593999997E+02  0.45594000000E+02  0.51100000000E-03 0. -1.
    9900012    2    1    2    0    0 -0.10291499275E+01  0.37554653507E+02 -0.21730445594E+02  0.47787269415E+02  0.19999992570E+02 0.  0.
        -12    1    1    2    0    0  0.10291499275E+01 -0.37554653507E+02  0.21730445594E+02  0.43400730585E+02  0.00000000000E+00 0.  1.
         11    1    3    3    0    0 -0.14165987216E+01  0.92161326262E+01 -0.64125946077E+01  0.11316590581E+02  0.51100000000E-03 0. -1.
        -11    1    3    3    0    0  0.98929748961E+00  0.43352682461E+01 -0.11277244612E+02  0.12122273161E+02  0.51100000000E-03 0.  1.
        -12    1    3    3    0    0 -0.60184869554E+00  0.24003252635E+02 -0.40406063738E+01  0.24348405672E+02  0.00000000000E+00 0.  1.
</event>
<event>
 7    1  0.2598019E-009  0.4778728E+02  0.7816164E-02  0.1312668E+00
        -11   -1    0    0    0    0  0.00000000000E+00  0.00000000000E+00  0.45593999997E+02  0.45594000000E+02  0.51100000000E-03 0.  1.
         11   -1    0    0    0    0 -0.00000000000E+00 -0.00000000000E+00 -0.45593999997E+02  0.45594000000E+02  0.51100000000E-03 0. -1.
    9900012    2    1    2    0    0 -0.15746964540E+02 -0.17761471647E+02 -0.36334364748E+02  0.47787276170E+02  0.20000023372E+02 0.  0.
        -12    1    1    2    0    0  0.15746964540E+02  0.17761471647E+02  0.36334364748E+02  0.43400723830E+02  0.00000000000E+00 0.  1.
         11    1    3    3    0    0 -0.10696618274E+02 -0.99538722299E+01 -0.22480962871E+02  0.26812141032E+02  0.51100000000E-03 0. -1.
        -11    1    3    3    0    0  0.33753080001E+00  0.96758444242E+00  0.18977420806E+01  0.21567503239E+01  0.51100000000E-03 0.  1.
         12    1    3    3    0    0 -0.53878770663E+01 -0.87751838599E+01 -0.15751143957E+02  0.18818384814E+02  0.00000000000E+00 0. -1.
</event>
<event>
 7    1  0.2598019E-009  0.4778727E+02  0.7816164E-02  0.1312668E+00
        -11   -1    0    0    0    0  0.00000000000E+00  0.00000000000E+00  0.45593999997E+02  0.45594000000E+02  0.51100000000E-03 0. -1.
         11   -1    0    0    0    0 -0.00000000000E+00 -0.00000000000E+00 -0.45593999997E+02  0.45594000000E+02  0.51100000000E-03 0.  1.
    9900012    2    1    2    0    0  0.47912137480E+01  0.38946246391E+02  0.18543390111E+02  0.47787272426E+02  0.20000006301E+02 0.  0.
        -12    1    1    2    0    0 -0.47912137480E+01 -0.38946246391E+02 -0.18543390111E+02  0.43400727574E+02  0.00000000000E+00 0.  1.
         11    1    3    3    0    0  0.42643695904E+01  0.35950490163E+02  0.10839342422E+02  0.37790394750E+02  0.51100000000E-03 0. -1.
        -11    1    3    3    0    0 -0.20671592985E+01  0.22280472991E+01  0.61921612102E+01  0.68978404625E+01  0.51100000000E-03 0.  1.
         12    1    3    3    0    0  0.25940034561E+01  0.76770892885E+00  0.15118864782E+01  0.30990372138E+01  0.00000000000E+00 0. -1.
</event>
<event>
 7    1  0.2598019E-009  0.4778727E+02  0.7816164E-02  0.1312668E+00
        -11   -1    0    0    0    0  0.00000000000E+00  0.00000000000E+00  0.45593999997E+02  0.45594000000E+02  0.51100000000E-03 0.  1.
         11   -1    0    0    0    0 -0.00000000000E+00 -0.00000000000E+00 -0.45593999997E+02  0.45594000000E+02  0.51100000000E-03 0. -1.
    9900012    2    1    2    0    0 -0.21012576858E+02  0.36293209934E+02 -0.11175774996E+02  0.47787269358E+02  0.19999992309E+02 0.  0.
        -12    1    1    2    0    0  0.21012576858E+02 -0.36293209934E+02  0.11175774996E+02  0.43400730642E+02  0.00000000000E+00 0.  1.
         11    1    3    3    0    0 -0.10667504853E+02  0.58070580492E+01 -0.42088051544E+00  0.12152971803E+02  0.51100000000E-03 0. -1.
        -11    1    3    3    0    0 -0.68763884592E+01  0.24667914824E+02 -0.12703033320E+02  0.28585972011E+02  0.51100000000E-03 0.  1.
        -12    1    3    3    0    0 -0.34686835462E+01  0.58182370609E+01  0.19481388394E+01  0.70483255442E+01  0.00000000000E+00 0.  1.
</event>
<event>
 7    1  0.2598019E-009  0.4778728E+02  0.7816164E-02  0.1312668E+00
        -11   -1    0    0    0    0  0.00000000000E+00  0.00000000000E+00  0.45593999997E+02  0.45594000000E+02  0.51100000000E-03 0. -1.
         11   -1    0    0    0    0 -0.00000000000E+00 -0.00000000000E+00 -0.45593999997E+02  0.45594000000E+02  0.51100000000E-03 0.  1.
    9900012    2    1    2    0    0  0.12515045594E+02  0.41212753772E+02  0.53390237019E+01  0.47787278649E+02  0.20000034673E+02 0.  0.
        -12    1    1    2    0    0 -0.12515045594E+02 -0.41212753772E+02 -0.53390237019E+01  0.43400721351E+02  0.00000000000E+00 0.  1.
         11    1    3    3    0    0 -0.12676081313E+01  0.63762596822E+00  0.13929777696E+00  0.14257634382E+01  0.51100000000E-03 0. -1.
        -11    1    3    3    0    0  0.27742770635E+01  0.26344513260E+02 -0.28659620467E+01  0.26644769296E+02  0.51100000000E-03 0.  1.
        -12    1    3    3    0    0  0.11008376662E+02  0.14230614544E+02  0.80656879717E+01  0.19716745915E+02  0.00000000000E+00 0.  1.
</event>
<event>
 7    1  0.2598019E-009  0.4778727E+02  0.7816164E-02  0.1312668E+00
        -11   -1    0    0    0    0  0.00000000000E+00  0.00000000000E+00  0.45593999997E+02  0.45594000000E+02  0.51100000000E-03 0. -1.
         11   -1    0    0    0    0 -0.00000000000E+00 -0.00000000000E+00 -0.45593999997E+02  0.45594000000E+02  0.51100000000E-03 0.  1.
    9900012    2    1    2    0    0  0.32324070434E+02  0.28673100616E+02  0.40780859226E+01  0.47787274048E+02  0.20000013695E+02 0.  0.
        -12    1    1    2    0    0 -0.32324070434E+02 -0.28673100616E+02 -0.40780859226E+01  0.43400725952E+02  0.00000000000E+00 0.  1.
         11    1    3    3    0    0  0.70158689010E+01  0.74497168893E+01 -0.68810809787E+01  0.12331665494E+02  0.51100000000E-03 0. -1.
        -11    1    3    3    0    0  0.11785835536E+01  0.11972690255E+01  0.24385029642E+01  0.29612175333E+01  0.51100000000E-03 0.  1.
         12    1    3    3    0    0  0.24129617979E+02  0.20026114702E+02  0.85206639371E+01  0.32494391020E+02  0.00000000000E+00 0. -1.
</event>
<event>
 7    1  0.2598019E-009  0.4778727E+02  0.7816164E-02  0.1312668E+00
        -11   -1    0    0    0    0  0.00000000000E+00  0.00000000000E+00  0.45593999997E+02  0.45594000000E+02  0.51100000000E-03 0.  1.
         11   -1    0    0    0    0 -0.00000000000E+00 -0.00000000000E+00 -0.45593999997E+02  0.45594000000E+02  0.51100000000E-03 0. -1.
    9900012    2    1    2    0    0 -0.45117504089E+01  0.17024690332E+01 -0.43131994398E+02  0.47787271512E+02  0.20000002131E+02 0.  0.
        -12    1    1    2    0    0  0.45117504089E+01 -0.17024690332E+01  0.43131994398E+02  0.43400728488E+02  0.00000000000E+00 0.  1.
         11    1    3    3    0    0  0.75819084027E+00  0.78066229779E+01 -0.23193234095E+02  0.24483552106E+02  0.51100000000E-03 0. -1.
        -11    1    3    3    0    0  0.98188640382E+00 -0.28219990811E+00  0.51026094320E+00  0.11419738129E+01  0.51100000000E-03 0.  1.
         12    1    3    3    0    0 -0.62518276530E+01 -0.58219540367E+01 -0.20449021246E+02  0.22161745593E+02  0.00000000000E+00 0. -1.
</event>
<event>
 7    1  0.2598019E-009  0.4778727E+02  0.7816164E-02  0.1312668E+00
        -11   -1    0    0    0    0  0.00000000000E+00  0.00000000000E+00  0.45593999997E+02  0.45594000000E+02  0.51100000000E-03 0.  1.
         11   -1    0    0    0    0 -0.00000000000E+00 -0.00000000000E+00 -0.45593999997E+02  0.45594000000E+02  0.51100000000E-03 0. -1.
    9900012    2    1    2    0    0 -0.19923805036E+02  0.21756119432E+02 -0.31832949517E+02  0.47787269421E+02  0.19999992597E+02 0.  0.
        -12    1    1    2    0    0  0.19923805036E+02 -0.21756119432E+02  0.31832949517E+02  0.43400730579E+02  0.00000000000E+00 0.  1.
         11    1    3    3    0    0 -0.12531573281E+02  0.14907751845E+02 -0.20467643211E+02  0.28252536397E+02  0.51100000000E-03 0. -1.
        -11    1    3    3    0    0  0.29760273392E+01 -0.53023924219E+00 -0.32657457135E+01  0.44500547979E+01  0.51100000000E-03 0.  1.
         12    1    3    3    0    0 -0.10368259095E+02  0.73786068291E+01 -0.80995605924E+01  0.15084678226E+02  0.00000000000E+00 0. -1.
</event>
<event>
 7    1  0.2598019E-009  0.4778729E+02  0.7816164E-02  0.1312668E+00
        -11   -1    0    0    0    0  0.00000000000E+00  0.00000000000E+00  0.45593999997E+02  0.45594000000E+02  0.51100000000E-03 0.  1.
         11   -1    0    0    0    0 -0.00000000000E+00 -0.00000000000E+00 -0.45593999997E+02  0.45594000000E+02  0.51100000000E-03 0. -1.
    9900012    2    1    2    0    0 -0.11914262023E+02  0.13980836105E+02 -0.39321854776E+02  0.47787289398E+02  0.20000083682E+02 0.  0.
        -12    1    1    2    0    0  0.11914262023E+02 -0.13980836105E+02  0.39321854776E+02  0.43400710602E+02  0.00000000000E+00 0.  1.
         11    1    3    3    0    0 -0.12069937638E+02  0.14388049544E+02 -0.34386527646E+02  0.39180768855E+02  0.51100000000E-03 0. -1.
        -11    1    3    3    0    0  0.27124892677E+01  0.19876219313E+01 -0.33985731084E+01  0.47810603849E+01  0.51100000000E-03 0.  1.
         12    1    3    3    0    0 -0.25568136519E+01 -0.23948353700E+01 -0.15367540211E+01  0.38254601581E+01  0.00000000000E+00 0. -1.
</event>
<event>
 7    1  0.2598019E-009  0.4778727E+02  0.7816164E-02  0.1312668E+00
        -11   -1    0    0    0    0  0.00000000000E+00  0.00000000000E+00  0.45593999997E+02  0.45594000000E+02  0.51100000000E-03 0.  1.
         11   -1    0    0    0    0 -0.00000000000E+00 -0.00000000000E+00 -0.45593999997E+02  0.45594000000E+02  0.51100000000E-03 0. -1.
    9900012    2    1    2    0    0 -0.35041758248E+02  0.11218277211E+02 -0.23018444204E+02  0.47787270303E+02  0.19999996620E+02 0.  0.
        -12    1    1    2    0    0  0.35041758248E+02 -0.11218277211E+02  0.23018444204E+02  0.43400729697E+02  0.00000000000E+00 0.  1.
         11    1    3    3    0    0 -0.25727563580E+02  0.33866084319E+01 -0.17126385362E+02  0.31091634249E+02  0.51100000000E-03 0. -1.
        -11    1    3    3    0    0  0.11001110566E+01 -0.11351486173E+01  0.32216555579E+00  0.16132568384E+01  0.51100000000E-03 0.  1.
        -12    1    3    3    0    0 -0.10414305724E+02  0.89668173967E+01 -0.62142243976E+01  0.15082379215E+02  0.00000000000E+00 0.  1.
</event>
<event>
 7    1  0.2598019E-009  0.4778727E+02  0.7816164E-02  0.1312668E+00
        -11   -1    0    0    0    0  0.00000000000E+00  0.00000000000E+00  0.45593999997E+02  0.45594000000E+02  0.51100000000E-03 0. -1.
         11   -1    0    0    0    0 -0.00000000000E+00 -0.00000000000E+00 -0.45593999997E+02  0.45594000000E+02  0.51100000000E-03 0.  1.
    9900012    2    1    2    0    0  0.16237959291E+02  0.98812105568E+01  0.39016834460E+02  0.47787274024E+02  0.20000013583E+02 0.  0.
        -12    1    1    2    0    0 -0.16237959291E+02 -0.98812105568E+01 -0.39016834460E+02  0.43400725976E+02  0.00000000000E+00 0.  1.
         11    1    3    3    0    0  0.17890629339E+01 -0.35274461349E+01  0.45787965490E+01  0.60505372088E+01  0.51100000000E-03 0. -1.
        -11    1    3    3    0    0  0.49532217302E+01  0.12846835441E+02  0.17033760396E+02  0.21902615823E+02  0.51100000000E-03 0.  1.
         12    1    3    3    0    0  0.94956746269E+01  0.56182125025E+00  0.17404277514E+02  0.19834120992E+02  0.00000000000E+00 0. -1.
</event>
<event>
 7    1  0.2598019E-009  0.4778727E+02  0.7816164E-02  0.1312668E+00
        -11   -1    0    0    0    0  0.00000000000E+00  0.00000000000E+00  0.45593999997E+02  0.45594000000E+02  0.51100000000E-03 0. -1.
         11   -1    0    0    0    0 -0.00000000000E+00 -0.00000000000E+00 -0.45593999997E+02  0.45594000000E+02  0.51100000000E-03 0.  1.
    9900012    2    1    2    0    0  0.10744379467E+02 -0.41797619831E+02 -0.45979217653E+01  0.47787267308E+02  0.19999982964E+02 0.  0.
        -12    1    1    2    0    0 -0.10744379467E+02  0.41797619831E+02  0.45979217653E+01  0.43400732692E+02  0.00000000000E+00 0.  1.
         11    1    3    3    0    0  0.63254951986E+01 -0.18931733957E+02 -0.70876178610E+01  0.21181519477E+02  0.51100000000E-03 0. -1.
        -11    1    3    3    0    0  0.87379877940E+00 -0.59026954254E+00  0.38666049880E+01  0.40078144711E+01  0.51100000000E-03 0.  1.
        -12    1    3    3    0    0  0.35450854889E+01 -0.22275616331E+02 -0.13769088923E+01  0.22597933360E+02  0.00000000000E+00 0.  1.
</event>
<event>
 7    1  0.2598019E-009  0.4778727E+02  0.7816164E-02  0.1312668E+00
        -11   -1    0    0    0    0  0.00000000000E+00  0.00000000000E+00  0.45593999997E+02  0.45594000000E+02  0.51100000000E-03 0. -1.
         11   -1    0    0    0    0 -0.00000000000E+00 -0.00000000000E+00 -0.45593999997E+02  0.45594000000E+02  0.51100000000E-03 0.  1.
    9900012    2    1    2    0    0 -0.12694007942E+02  0.41309156707E+02  0.40048820044E+01  0.47787270221E+02  0.19999996246E+02 0.  0.
        -12    1    1    2    0    0  0.12694007942E+02 -0.41309156707E+02 -0.40048820044E+01  0.43400729779E+02  0.00000000000E+00 0.  1.
         11    1    3    3    0    0  0.28797008459E+00  0.27538075016E+02 -0.34443164621E+00  0.27541734436E+02  0.51100000000E-03 0. -1.
        -11    1    3    3    0    0 -0.10735819963E+02  0.85312738858E+01  0.12840464159E+01  0.13772771684E+02  0.51100000000E-03 0.  1.
         12    1    3    3    0    0 -0.22461580628E+01  0.52398078055E+01  0.30652672347E+01  0.64727641006E+01  0.00000000000E+00 0. -1.
</event>
<event>
 7    1  0.2598019E-009  0.4778727E+02  0.7816164E-02  0.1312668E+00
        -11   -1    0    0    0    0  0.00000000000E+00  0.00000000000E+00  0.45593999997E+02  0.45594000000E+02  0.51100000000E-03 0.  1.
         11   -1    0    0    0    0 -0.00000000000E+00 -0.00000000000E+00 -0.45593999997E+02  0.45594000000E+02  0.51100000000E-03 0. -1.
    9900012    2    1    2    0    0 -0.25554473073E+02 -0.12479502424E+02 -0.32784964576E+02  0.47787274464E+02  0.20000015591E+02 0.  0.
        -12    1    1    2    0    0  0.25554473073E+02  0.12479502424E+02  0.32784964576E+02  0.43400725536E+02  0.00000000000E+00 0.  1.
         11    1    3    3    0    0 -0.10851371574E+02 -0.42154225562E+01 -0.88978871400E+01  0.14652455363E+02  0.51100000000E-03 0. -1.
        -11    1    3    3    0    0  0.32253903015E+01 -0.86447918602E+00 -0.20078733806E+01  0.38964115072E+01  0.51100000000E-03 0.  1.
        -12    1    3    3    0    0 -0.17928491801E+02 -0.73996006820E+01 -0.21879204055E+02  0.29238407593E+02  0.00000000000E+00 0.  1.
</event>
<event>
 7    1  0.2598019E-009  0.4778727E+02  0.7816164E-02  0.1312668E+00
        -11   -1    0    0    0    0  0.00000000000E+00  0.00000000000E+00  0.45593999997E+02  0.45594000000E+02  0.51100000000E-03 0.  1.
         11   -1    0    0    0    0 -0.00000000000E+00 -0.00000000000E+00 -0.45593999997E+02  0.45594000000E+02  0.51100000000E-03 0. -1.
    9900012    2    1    2    0    0 -0.31960586771E+02 -0.25294935236E+02 -0.14910075872E+02  0.47787271690E+02  0.20000002944E+02 0.  0.
        -12    1    1    2    0    0  0.31960586771E+02  0.25294935236E+02  0.14910075872E+02  0.43400728310E+02  0.00000000000E+00 0.  1.
         11    1    3    3    0    0 -0.17123970498E+02 -0.62571441050E+01 -0.61057003549E+01  0.19226590833E+02  0.51100000000E-03 0. -1.
        -11    1    3    3    0    0 -0.76852599223E+01 -0.27215782087E+01  0.10202952236E+01  0.82165205911E+01  0.51100000000E-03 0.  1.
        -12    1    3    3    0    0 -0.71513563505E+01 -0.16316212922E+02 -0.98246707412E+01  0.20344160266E+02  0.00000000000E+00 0.  1.
</event>
<event>
 7    1  0.2598019E-009  0.4778727E+02  0.7816164E-02  0.1312668E+00
        -11   -1    0    0    0    0  0.00000000000E+00  0.00000000000E+00  0.45593999997E+02  0.45594000000E+02  0.51100000000E-03 0. -1.
         11   -1    0    0    0    0 -0.00000000000E+00 -0.00000000000E+00 -0.45593999997E+02  0.45594000000E+02  0.51100000000E-03 0.  1.
    9900012    2    1    2    0    0 -0.23660828572E+02  0.34309016124E+02  0.12111147691E+02  0.47787270807E+02  0.19999998917E+02 0.  0.
        -12    1    1    2    0    0  0.23660828572E+02 -0.34309016124E+02 -0.12111147691E+02  0.43400729193E+02  0.00000000000E+00 0.  1.
         11    1    3    3    0    0 -0.29689132936E+01  0.93005627201E+01  0.23668112504E+01  0.10045730875E+02  0.51100000000E-03 0. -1.
        -11    1    3    3    0    0 -0.38966070481E+01  0.70800000948E+01 -0.45949081686E+01  0.92964040988E+01  0.51100000000E-03 0.  1.
        -12    1    3    3    0    0 -0.16795308231E+02  0.17928453309E+02  0.14339244609E+02  0.28445135833E+02  0.00000000000E+00 0.  1.
</event>
<event>
 7    1  0.2598019E-009  0.4778724E+02  0.7816164E-02  0.1312668E+00
        -11   -1    0    0    0    0  0.00000000000E+00  0.00000000000E+00  0.45593999997E+02  0.45594000000E+02  0.51100000000E-03 0.  1.
         11   -1    0    0    0    0 -0.00000000000E+00 -0.00000000000E+00 -0.45593999997E+02  0.45594000000E+02  0.51100000000E-03 0. -1.
    9900012    2    1    2    0    0  0.97992557878E+01 -0.10453983814E+02 -0.40967238835E+02  0.47787241374E+02  0.19999864719E+02 0.  0.
        -12    1    1    2    0    0 -0.97992557878E+01  0.10453983814E+02  0.40967238835E+02  0.43400758626E+02  0.00000000000E+00 0.  1.
         11    1    3    3    0    0  0.40891778464E+01 -0.82987313871E+01 -0.27108786115E+02  0.28643962767E+02  0.51100000000E-03 0. -1.
        -11    1    3    3    0    0  0.23459891703E+01  0.47712971085E+01 -0.41085000093E+01  0.67192792674E+01  0.51100000000E-03 0.  1.
        -12    1    3    3    0    0  0.33640887711E+01 -0.69265495356E+01 -0.97499527105E+01  0.12423999339E+02  0.00000000000E+00 0.  1.
</event>
<event>
 7    1  0.2598019E-009  0.4778727E+02  0.7816164E-02  0.1312668E+00
        -11   -1    0    0    0    0  0.00000000000E+00  0.00000000000E+00  0.45593999997E+02  0.45594000000E+02  0.51100000000E-03 0.  1.
         11   -1    0    0    0    0 -0.00000000000E+00 -0.00000000000E+00 -0.45593999997E+02  0.45594000000E+02  0.51100000000E-03 0. -1.
    9900012    2    1    2    0    0 -0.42717892097E+01  0.33671792337E+02 -0.27047845345E+02  0.47787265904E+02  0.19999976565E+02 0.  0.
        -12    1    1    2    0    0  0.42717892097E+01 -0.33671792337E+02  0.27047845345E+02  0.43400734096E+02  0.00000000000E+00 0.  1.
         11    1    3    3    0    0 -0.48979036461E+01  0.17224375619E+02 -0.20607726363E+02  0.27301043235E+02  0.51100000000E-03 0. -1.
        -11    1    3    3    0    0  0.15446256420E+01  0.17756457866E+02 -0.61890914768E+01  0.18867498983E+02  0.51100000000E-03 0.  1.
        -12    1    3    3    0    0 -0.91851120559E+00 -0.13090411485E+01 -0.25102750486E+00  0.16187236859E+01  0.00000000000E+00 0.  1.
</event>
<event>
 7    1  0.2598019E-009  0.4778727E+02  0.7816164E-02  0.1312668E+00
        -11   -1    0    0    0    0  0.00000000000E+00  0.00000000000E+00  0.45593999997E+02  0.45594000000E+02  0.51100000000E-03 0. -1.
         11   -1    0    0    0    0 -0.00000000000E+00 -0.00000000000E+00 -0.45593999997E+02  0.45594000000E+02  0.51100000000E-03 0.  1.
    9900012    2    1    2    0    0 -0.12780934029E+02 -0.40361314953E+02 -0.95517098760E+01  0.47787272115E+02  0.20000004881E+02 0.  0.
        -12    1    1    2    0    0  0.12780934029E+02  0.40361314953E+02  0.95517098760E+01  0.43400727885E+02  0.00000000000E+00 0.  1.
         11    1    3    3    0    0 -0.35830993104E+01 -0.32814049319E+02 -0.12628842958E+02  0.35342440608E+02  0.51100000000E-03 0. -1.
        -11    1    3    3    0    0 -0.46227939071E+01 -0.28904873122E+01  0.69753200532E+00  0.54965163121E+01  0.51100000000E-03 0.  1.
         12    1    3    3    0    0 -0.45750408117E+01 -0.46567783217E+01  0.23796010768E+01  0.69483151951E+01  0.00000000000E+00 0. -1.
</event>
<event>
 7    1  0.2598019E-009  0.4778727E+02  0.7816164E-02  0.1312668E+00
        -11   -1    0    0    0    0  0.00000000000E+00  0.00000000000E+00  0.45593999997E+02  0.45594000000E+02  0.51100000000E-03 0. -1.
         11   -1    0    0    0    0 -0.00000000000E+00 -0.00000000000E+00 -0.45593999997E+02  0.45594000000E+02  0.51100000000E-03 0.  1.
    9900012    2    1    2    0    0  0.33872836102E+02  0.26017436387E+02  0.77037241554E+01  0.47787269734E+02  0.19999994026E+02 0.  0.
        -12    1    1    2    0    0 -0.33872836102E+02 -0.26017436387E+02 -0.77037241554E+01  0.43400730266E+02  0.00000000000E+00 0.  1.
         11    1    3    3    0    0  0.25775991841E+02  0.14417593518E+02 -0.11706994080E+01  0.29557389865E+02  0.51100000000E-03 0. -1.
        -11    1    3    3    0    0  0.73967996349E+01  0.11309554167E+02  0.10043137351E+02  0.16836961377E+02  0.51100000000E-03 0.  1.
        -12    1    3    3    0    0  0.70004462650E+00  0.29028870146E+00 -0.11687137878E+01  0.13929184926E+01  0.00000000000E+00 0.  1.
</event>
<event>
 7    1  0.2598019E-009  0.4778727E+02  0.7816164E-02  0.1312668E+00
        -11   -1    0    0    0    0  0.00000000000E+00  0.00000000000E+00  0.45593999997E+02  0.45594000000E+02  0.51100000000E-03 0.  1.
         11   -1    0    0    0    0 -0.00000000000E+00 -0.00000000000E+00 -0.45593999997E+02  0.45594000000E+02  0.51100000000E-03 0. -1.
    9900012    2    1    2    0    0 -0.36730246700E+02  0.22988729830E+02 -0.24557764381E+01  0.47787267751E+02  0.19999984985E+02 0.  0.
        -12    1    1    2    0    0  0.36730246700E+02 -0.22988729830E+02  0.24557764381E+01  0.43400732249E+02  0.00000000000E+00 0.  1.
         11    1    3    3    0    0 -0.10016179972E+02  0.11886103614E+02  0.57003790864E+01  0.16555894489E+02  0.51100000000E-03 0. -1.
        -11    1    3    3    0    0 -0.13999096548E+01  0.24454639278E+01  0.94515081075E+00  0.29720954191E+01  0.51100000000E-03 0.  1.
         12    1    3    3    0    0 -0.25314157073E+02  0.86571622887E+01 -0.91013063353E+01  0.28259277843E+02  0.00000000000E+00 0. -1.
</event>
<event>
 7    1  0.2598019E-009  0.4778728E+02  0.7816164E-02  0.1312668E+00
        -11   -1    0    0    0    0  0.00000000000E+00  0.00000000000E+00  0.45593999997E+02  0.45594000000E+02  0.51100000000E-03 0. -1.
         11   -1    0    0    0    0 -0.00000000000E+00 -0.00000000000E+00 -0.45593999997E+02  0.45594000000E+02  0.51100000000E-03 0.  1.
    9900012    2    1    2    0    0  0.53602620046E+01  0.16037538508E+02  0.39971078116E+02  0.47787284155E+02  0.20000059776E+02 0.  0.
        -12    1    1    2    0    0 -0.53602620046E+01 -0.16037538508E+02 -0.39971078116E+02  0.43400715845E+02  0.00000000000E+00 0.  1.
         11    1    3    3    0    0  0.11085969809E+02  0.15737309596E+02  0.35031649262E+02  0.39972216479E+02  0.51100000000E-03 0. -1.
        -11    1    3    3    0    0 -0.50962827019E+01  0.60168948224E+00  0.34888493358E+01  0.62053362165E+01  0.51100000000E-03 0.  1.
         12    1    3    3    0    0 -0.62942510229E+00 -0.30146057079E+00  0.14505795178E+01  0.16097314598E+01  0.00000000000E+00 0. -1.
</event>
<event>
 7    1  0.2598019E-009  0.4778727E+02  0.7816164E-02  0.1312668E+00
        -11   -1    0    0    0    0  0.00000000000E+00  0.00000000000E+00  0.45593999997E+02  0.45594000000E+02  0.51100000000E-03 0.  1.
         11   -1    0    0    0    0 -0.00000000000E+00 -0.00000000000E+00 -0.45593999997E+02  0.45594000000E+02  0.51100000000E-03 0. -1.
    9900012    2    1    2    0    0 -0.32875533321E+02 -0.25571530398E+02 -0.12203260096E+02  0.47787269418E+02  0.19999992587E+02 0.  0.
        -12    1    1    2    0    0  0.32875533321E+02  0.25571530398E+02  0.12203260096E+02  0.43400730582E+02  0.00000000000E+00 0.  1.
         11    1    3    3    0    0 -0.74049171901E+01 -0.22798739040E+01 -0.34109263334E+01  0.84655207946E+01  0.51100000000E-03 0. -1.
        -11    1    3    3    0    0 -0.73267112531E+00  0.24565141232E+01 -0.11360549562E+01  0.28039061575E+01  0.51100000000E-03 0.  1.
        -12    1    3    3    0    0 -0.24737945005E+02 -0.25748170618E+02 -0.76562788067E+01  0.36517842466E+02  0.00000000000E+00 0.  1.
</event>
<event>
 7    1  0.2598019E-009  0.4778727E+02  0.7816164E-02  0.1312668E+00
        -11   -1    0    0    0    0  0.00000000000E+00  0.00000000000E+00  0.45593999997E+02  0.45594000000E+02  0.51100000000E-03 0. -1.
         11   -1    0    0    0    0 -0.00000000000E+00 -0.00000000000E+00 -0.45593999997E+02  0.45594000000E+02  0.51100000000E-03 0.  1.
    9900012    2    1    2    0    0  0.36369376777E+02  0.11007784313E+01 -0.23657556085E+02  0.47787271432E+02  0.20000001768E+02 0.  0.
        -12    1    1    2    0    0 -0.36369376777E+02 -0.11007784313E+01  0.23657556085E+02  0.43400728568E+02  0.00000000000E+00 0.  1.
         11    1    3    3    0    0  0.87731150209E+01 -0.37739670192E+01 -0.10744552132E+02  0.14375526947E+02  0.51100000000E-03 0.  1.
        -11    1    3    3    0    0  0.17727665486E+02  0.83165256165E+01 -0.11893741183E+02  0.22910604564E+02  0.51100000000E-03 0. -1.
        -12    1    3    3    0    0  0.98685962696E+01 -0.34417801659E+01 -0.10192627712E+01  0.10501139921E+02  0.00000000000E+00 0.  1.
</event>
<event>
 7    1  0.2598019E-009  0.4778726E+02  0.7816164E-02  0.1312668E+00
        -11   -1    0    0    0    0  0.00000000000E+00  0.00000000000E+00  0.45593999997E+02  0.45594000000E+02  0.51100000000E-03 0. -1.
         11   -1    0    0    0    0 -0.00000000000E+00 -0.00000000000E+00 -0.45593999997E+02  0.45594000000E+02  0.51100000000E-03 0.  1.
    9900012    2    1    2    0    0 -0.84177103900E+01  0.36388169663E+02  0.22105816672E+02  0.47787264172E+02  0.19999968666E+02 0.  0.
        -12    1    1    2    0    0  0.84177103900E+01 -0.36388169663E+02 -0.22105816672E+02  0.43400735828E+02  0.00000000000E+00 0.  1.
         11    1    3    3    0    0  0.17425290081E+01  0.28955304150E+02  0.12381615927E+02  0.31539664852E+02  0.51100000000E-03 0.  1.
        -11    1    3    3    0    0 -0.82133692738E+01  0.60122077067E+01  0.60118405794E+01  0.11821518674E+02  0.51100000000E-03 0. -1.
         12    1    3    3    0    0 -0.19468701243E+01  0.14206578067E+01  0.37123601660E+01  0.44260806462E+01  0.00000000000E+00 0. -1.
</event>
<event>
 7    1  0.2598019E-009  0.4778727E+02  0.7816164E-02  0.1312668E+00
        -11   -1    0    0    0    0  0.00000000000E+00  0.00000000000E+00  0.45593999997E+02  0.45594000000E+02  0.51100000000E-03 0.  1.
         11   -1    0    0    0    0 -0.00000000000E+00 -0.00000000000E+00 -0.45593999997E+02  0.45594000000E+02  0.51100000000E-03 0. -1.
    9900012    2    1    2    0    0  0.11941152425E+02 -0.17051395213E+02 -0.38082568743E+02  0.47787271412E+02  0.20000001674E+02 0.  0.
        -12    1    1    2    0    0 -0.11941152425E+02  0.17051395213E+02  0.38082568743E+02  0.43400728588E+02  0.00000000000E+00 0.  1.
         11    1    3    3    0    0  0.27367330696E+01 -0.76678163822E+01 -0.40453026018E+01  0.90911819565E+01  0.51100000000E-03 0. -1.
        -11    1    3    3    0    0  0.10807288035E+02 -0.29101511102E+01 -0.25613433128E+02  0.27952001914E+02  0.51100000000E-03 0.  1.
        -12    1    3    3    0    0 -0.16028686795E+01 -0.64734277202E+01 -0.84238330137E+01  0.10744087541E+02  0.00000000000E+00 0.  1.
</event>
<event>
 7    1  0.2598019E-009  0.4778727E+02  0.7816164E-02  0.1312668E+00
        -11   -1    0    0    0    0  0.00000000000E+00  0.00000000000E+00  0.45593999997E+02  0.45594000000E+02  0.51100000000E-03 0. -1.
         11   -1    0    0    0    0 -0.00000000000E+00 -0.00000000000E+00 -0.45593999997E+02  0.45594000000E+02  0.51100000000E-03 0.  1.
    9900012    2    1    2    0    0 -0.39646736635E+02  0.10751077415E+02 -0.14006205351E+02  0.47787272129E+02  0.20000004945E+02 0.  0.
        -12    1    1    2    0    0  0.39646736635E+02 -0.10751077415E+02  0.14006205351E+02  0.43400727871E+02  0.00000000000E+00 0.  1.
         11    1    3    3    0    0 -0.21561484348E+02  0.12392820582E+02 -0.13769922706E+02  0.28426930556E+02  0.51100000000E-03 0. -1.
        -11    1    3    3    0    0 -0.10948309906E+02  0.10093187340E+01  0.24906298685E+01  0.11273307035E+02  0.51100000000E-03 0.  1.
        -12    1    3    3    0    0 -0.71369423815E+01 -0.26510619012E+01 -0.27269125131E+01  0.80870345377E+01  0.00000000000E+00 0.  1.
</event>
<event>
 7    1  0.2598019E-009  0.4778727E+02  0.7816164E-02  0.1312668E+00
        -11   -1    0    0    0    0  0.00000000000E+00  0.00000000000E+00  0.45593999997E+02  0.45594000000E+02  0.51100000000E-03 0.  1.
         11   -1    0    0    0    0 -0.00000000000E+00 -0.00000000000E+00 -0.45593999997E+02  0.45594000000E+02  0.51100000000E-03 0. -1.
    9900012    2    1    2    0    0 -0.54295814596E+01 -0.39426110666E+02 -0.17312562297E+02  0.47787269933E+02  0.19999994932E+02 0.  0.
        -12    1    1    2    0    0  0.54295814596E+01  0.39426110666E+02  0.17312562297E+02  0.43400730067E+02  0.00000000000E+00 0.  1.
         11    1    3    3    0    0 -0.83262816102E+01 -0.22124381171E+02 -0.37314010446E+01  0.23931956913E+02  0.51100000000E-03 0. -1.
        -11    1    3    3    0    0  0.15259636851E+01 -0.21320683299E+01 -0.65970350622E+01  0.70989543177E+01  0.51100000000E-03 0.  1.
         12    1    3    3    0    0  0.13707364655E+01 -0.15169661165E+02 -0.69841261903E+01  0.16756358703E+02  0.00000000000E+00 0. -1.
</event>
<event>
 7    1  0.2598019E-009  0.4778727E+02  0.7816164E-02  0.1312668E+00
        -11   -1    0    0    0    0  0.00000000000E+00  0.00000000000E+00  0.45593999997E+02  0.45594000000E+02  0.51100000000E-03 0. -1.
         11   -1    0    0    0    0 -0.00000000000E+00 -0.00000000000E+00 -0.45593999997E+02  0.45594000000E+02  0.51100000000E-03 0.  1.
    9900012    2    1    2    0    0 -0.28506392009E+02 -0.75615742416E+01  0.31840723240E+02  0.47787269052E+02  0.19999990915E+02 0.  0.
        -12    1    1    2    0    0  0.28506392009E+02  0.75615742416E+01 -0.31840723240E+02  0.43400730948E+02  0.00000000000E+00 0.  1.
         11    1    3    3    0    0 -0.18790052470E+02 -0.28420526673E+00  0.25853727981E+02  0.31961885038E+02  0.51100000000E-03 0. -1.
        -11    1    3    3    0    0 -0.33554366491E+01 -0.52769801585E+01  0.66452314809E+01  0.91249425421E+01  0.51100000000E-03 0.  1.
         12    1    3    3    0    0 -0.63609028898E+01 -0.20003888164E+01 -0.65823622112E+00  0.67004414715E+01  0.00000000000E+00 0. -1.
</event>
<event>
 7    1  0.2598019E-009  0.4778727E+02  0.7816164E-02  0.1312668E+00
        -11   -1    0    0    0    0  0.00000000000E+00  0.00000000000E+00  0.45593999997E+02  0.45594000000E+02  0.51100000000E-03 0.  1.
         11   -1    0    0    0    0 -0.00000000000E+00 -0.00000000000E+00 -0.45593999997E+02  0.45594000000E+02  0.51100000000E-03 0. -1.
    9900012    2    1    2    0    0 -0.30221871459E+02 -0.24933964982E+02 -0.18669738027E+02  0.47787271409E+02  0.20000001663E+02 0.  0.
        -12    1    1    2    0    0  0.30221871459E+02  0.24933964982E+02  0.18669738027E+02  0.43400728591E+02  0.00000000000E+00 0.  1.
         11    1    3    3    0    0 -0.10096363450E+01 -0.34167621788E+01 -0.77807001954E+01  0.85576238014E+01  0.51100000000E-03 0. -1.
        -11    1    3    3    0    0 -0.13906159303E+02 -0.42392962323E+01 -0.30683996839E+01  0.14858262886E+02  0.51100000000E-03 0.  1.
         12    1    3    3    0    0 -0.15306075811E+02 -0.17277906571E+02 -0.78206381480E+01  0.24371384722E+02  0.00000000000E+00 0. -1.
</event>
<event>
 7    1  0.2598019E-009  0.4778727E+02  0.7816164E-02  0.1312668E+00
        -11   -1    0    0    0    0  0.00000000000E+00  0.00000000000E+00  0.45593999997E+02  0.45594000000E+02  0.51100000000E-03 0.  1.
         11   -1    0    0    0    0 -0.00000000000E+00 -0.00000000000E+00 -0.45593999997E+02  0.45594000000E+02  0.51100000000E-03 0. -1.
    9900012    2    1    2    0    0  0.29984932839E+02 -0.21625700569E+02 -0.22734476803E+02  0.47787267772E+02  0.19999985079E+02 0.  0.
        -12    1    1    2    0    0 -0.29984932839E+02  0.21625700569E+02  0.22734476803E+02  0.43400732228E+02  0.00000000000E+00 0.  1.
         11    1    3    3    0    0  0.22735242802E+02 -0.11966361523E+02 -0.20251793723E+02  0.32714220495E+02  0.51100000000E-03 0. -1.
        -11    1    3    3    0    0 -0.15413815712E+01 -0.14103112092E+00 -0.13724679428E+01  0.20686748029E+01  0.51100000000E-03 0.  1.
         12    1    3    3    0    0  0.87910716086E+01 -0.95183079248E+01 -0.11102151365E+01  0.13004372473E+02  0.00000000000E+00 0. -1.
</event>
<event>
 7    1  0.2598019E-009  0.4778727E+02  0.7816164E-02  0.1312668E+00
        -11   -1    0    0    0    0  0.00000000000E+00  0.00000000000E+00  0.45593999997E+02  0.45594000000E+02  0.51100000000E-03 0.  1.
         11   -1    0    0    0    0 -0.00000000000E+00 -0.00000000000E+00 -0.45593999997E+02  0.45594000000E+02  0.51100000000E-03 0. -1.
    9900012    2    1    2    0    0  0.41906597713E+02  0.14083163734E+01 -0.11201660914E+02  0.47787268507E+02  0.19999988432E+02 0.  0.
        -12    1    1    2    0    0 -0.41906597713E+02 -0.14083163734E+01  0.11201660914E+02  0.43400731493E+02  0.00000000000E+00 0.  1.
         11    1    3    3    0    0  0.55415065920E+01 -0.84460376163E+00  0.22350115592E+00  0.56099557798E+01  0.51100000000E-03 0. -1.
        -11    1    3    3    0    0  0.22609587270E+00 -0.38502574890E+01 -0.19489544006E+01  0.43213453452E+01  0.51100000000E-03 0.  1.
        -12    1    3    3    0    0  0.36138995248E+02  0.61031776240E+01 -0.94762076692E+01  0.37855967382E+02  0.00000000000E+00 0.  1.
</event>
<event>
 7    1  0.2598019E-009  0.4778727E+02  0.7816164E-02  0.1312668E+00
        -11   -1    0    0    0    0  0.00000000000E+00  0.00000000000E+00  0.45593999997E+02  0.45594000000E+02  0.51100000000E-03 0. -1.
         11   -1    0    0    0    0 -0.00000000000E+00 -0.00000000000E+00 -0.45593999997E+02  0.45594000000E+02  0.51100000000E-03 0.  1.
    9900012    2    1    2    0    0  0.27717351088E+02 -0.32498729417E+02  0.76944408694E+01  0.47787269760E+02  0.19999994143E+02 0.  0.
        -12    1    1    2    0    0 -0.27717351088E+02  0.32498729417E+02 -0.76944408694E+01  0.43400730240E+02  0.00000000000E+00 0.  1.
         11    1    3    3    0    0 -0.29792958999E+00  0.12810049425E+01  0.90992710468E+00  0.15992821203E+01  0.51100000000E-03 0. -1.
        -11    1    3    3    0    0  0.22770674462E+02 -0.33405509030E+02  0.59090564564E+01  0.40857662653E+02  0.51100000000E-03 0.  1.
         12    1    3    3    0    0  0.52446062162E+01 -0.37422532952E+00  0.87545730836E+00  0.53303249862E+01  0.00000000000E+00 0. -1.
</event>
<event>
 7    1  0.2598019E-009  0.4778728E+02  0.7816164E-02  0.1312668E+00
        -11   -1    0    0    0    0  0.00000000000E+00  0.00000000000E+00  0.45593999997E+02  0.45594000000E+02  0.51100000000E-03 0.  1.
         11   -1    0    0    0    0 -0.00000000000E+00 -0.00000000000E+00 -0.45593999997E+02  0.45594000000E+02  0.51100000000E-03 0. -1.
    9900012    2    1    2    0    0  0.41044486483E+02 -0.13782947715E+02 -0.30004914905E+01  0.47787280334E+02  0.20000042355E+02 0.  0.
        -12    1    1    2    0    0 -0.41044486483E+02  0.13782947715E+02  0.30004914905E+01  0.43400719666E+02  0.00000000000E+00 0.  1.
         11    1    3    3    0    0  0.24362960997E+01 -0.74915883643E+01 -0.27759849975E+01  0.83525761219E+01  0.51100000000E-03 0. -1.
        -11    1    3    3    0    0  0.26742524404E+02 -0.49434520371E+01 -0.23808157323E+01  0.27299608301E+02  0.51100000000E-03 0.  1.
         12    1    3    3    0    0  0.11865665978E+02 -0.13479073140E+01  0.21563092392E+01  0.12135095911E+02  0.00000000000E+00 0. -1.
</event>
<event>
 7    1  0.2598019E-009  0.4778728E+02  0.7816164E-02  0.1312668E+00
        -11   -1    0    0    0    0  0.00000000000E+00  0.00000000000E+00  0.45593999997E+02  0.45594000000E+02  0.51100000000E-03 0.  1.
         11   -1    0    0    0    0 -0.00000000000E+00 -0.00000000000E+00 -0.45593999997E+02  0.45594000000E+02  0.51100000000E-03 0. -1.
    9900012    2    1    2    0    0  0.37733156080E+02 -0.19231473629E+02 -0.94858907060E+01  0.47787276871E+02  0.20000026564E+02 0.  0.
        -12    1    1    2    0    0 -0.37733156080E+02  0.19231473629E+02  0.94858907060E+01  0.43400723129E+02  0.00000000000E+00 0.  1.
         11    1    3    3    0    0  0.55113517527E+01 -0.53434442722E+01 -0.16809614983E+01  0.78583094017E+01  0.51100000000E-03 0. -1.
        -11    1    3    3    0    0  0.29122432121E+02 -0.17810117896E+02 -0.72626550410E+01  0.34900752293E+02  0.51100000000E-03 0.  1.
        -12    1    3    3    0    0  0.30993722060E+01  0.39220885396E+01 -0.54227416673E+00  0.50282151759E+01  0.00000000000E+00 0.  1.
</event>
<event>
 7    1  0.2598019E-009  0.4778728E+02  0.7816164E-02  0.1312668E+00
        -11   -1    0    0    0    0  0.00000000000E+00  0.00000000000E+00  0.45593999997E+02  0.45594000000E+02  0.51100000000E-03 0. -1.
         11   -1    0    0    0    0 -0.00000000000E+00 -0.00000000000E+00 -0.45593999997E+02  0.45594000000E+02  0.51100000000E-03 0.  1.
    9900012    2    1    2    0    0  0.20117041014E+01 -0.43230698541E+02 -0.32684152942E+01  0.47787276639E+02  0.20000025506E+02 0.  0.
        -12    1    1    2    0    0 -0.20117041014E+01  0.43230698541E+02  0.32684152942E+01  0.43400723361E+02  0.00000000000E+00 0.  1.
         11    1    3    3    0    0 -0.35256846854E+01 -0.36544468592E+02 -0.13522422037E+01  0.36739041855E+02  0.51100000000E-03 0. -1.
        -11    1    3    3    0    0  0.14426942103E+01  0.10475355855E+01  0.69890275526E+00  0.19149837361E+01  0.51100000000E-03 0.  1.
         12    1    3    3    0    0  0.40946945766E+01 -0.77337655348E+01 -0.26150758458E+01  0.91332510478E+01  0.00000000000E+00 0. -1.
</event>
<event>
 7    1  0.2598019E-009  0.4778727E+02  0.7816164E-02  0.1312668E+00
        -11   -1    0    0    0    0  0.00000000000E+00  0.00000000000E+00  0.45593999997E+02  0.45594000000E+02  0.51100000000E-03 0.  1.
         11   -1    0    0    0    0 -0.00000000000E+00 -0.00000000000E+00 -0.45593999997E+02  0.45594000000E+02  0.51100000000E-03 0. -1.
    9900012    2    1    2    0    0 -0.24169565448E+02  0.14923673524E+02 -0.32813706000E+02  0.47787271586E+02  0.20000002470E+02 0.  0.
        -12    1    1    2    0    0  0.24169565448E+02 -0.14923673524E+02  0.32813706000E+02  0.43400728414E+02  0.00000000000E+00 0.  1.
         11    1    3    3    0    0 -0.16585246011E+02  0.52461483009E+01 -0.11277313089E+02  0.20730900801E+02  0.51100000000E-03 0. -1.
        -11    1    3    3    0    0  0.60725381575E+00  0.74664732733E+01 -0.71578662371E+01  0.10361082456E+02  0.51100000000E-03 0.  1.
         12    1    3    3    0    0 -0.81915732524E+01  0.22110519497E+01 -0.14378526674E+02  0.16695288329E+02  0.00000000000E+00 0. -1.
</event>
<event>
 7    1  0.2598019E-009  0.4778727E+02  0.7816164E-02  0.1312668E+00
        -11   -1    0    0    0    0  0.00000000000E+00  0.00000000000E+00  0.45593999997E+02  0.45594000000E+02  0.51100000000E-03 0.  1.
         11   -1    0    0    0    0 -0.00000000000E+00 -0.00000000000E+00 -0.45593999997E+02  0.45594000000E+02  0.51100000000E-03 0. -1.
    9900012    2    1    2    0    0 -0.38196206200E+02  0.59908851479E+00 -0.20598890840E+02  0.47787269834E+02  0.19999994480E+02 0.  0.
        -12    1    1    2    0    0  0.38196206200E+02 -0.59908851479E+00  0.20598890840E+02  0.43400730166E+02  0.00000000000E+00 0.  1.
         11    1    3    3    0    0 -0.12671980815E+02 -0.27078786112E+01 -0.11276216392E+02  0.17177449192E+02  0.51100000000E-03 0. -1.
        -11    1    3    3    0    0 -0.14322090634E+02 -0.14062978780E+01  0.13251974314E+01  0.14451854634E+02  0.51100000000E-03 0.  1.
        -12    1    3    3    0    0 -0.11202134751E+02  0.47132650039E+01 -0.10647871879E+02  0.16157966008E+02  0.00000000000E+00 0.  1.
</event>
<event>
 7    1  0.2598019E-009  0.4778727E+02  0.7816164E-02  0.1312668E+00
        -11   -1    0    0    0    0  0.00000000000E+00  0.00000000000E+00  0.45593999997E+02  0.45594000000E+02  0.51100000000E-03 0.  1.
         11   -1    0    0    0    0 -0.00000000000E+00 -0.00000000000E+00 -0.45593999997E+02  0.45594000000E+02  0.51100000000E-03 0. -1.
    9900012    2    1    2    0    0  0.41681504611E+02  0.11870552207E+02 -0.23163545991E+01  0.47787270341E+02  0.19999996791E+02 0.  0.
        -12    1    1    2    0    0 -0.41681504611E+02 -0.11870552207E+02  0.23163545991E+01  0.43400729659E+02  0.00000000000E+00 0.  1.
         11    1    3    3    0    0  0.82116408471E+01  0.50532896349E+01 -0.29039477196E+01  0.10069741514E+02  0.51100000000E-03 0. -1.
        -11    1    3    3    0    0  0.19561348846E+02  0.68911372712E+00 -0.69263917178E+01  0.20762855028E+02  0.51100000000E-03 0.  1.
        -12    1    3    3    0    0  0.13908514918E+02  0.61281488454E+01  0.75139848383E+01  0.16954673799E+02  0.00000000000E+00 0.  1.
</event>
<event>
 7    1  0.2598019E-009  0.4778727E+02  0.7816164E-02  0.1312668E+00
        -11   -1    0    0    0    0  0.00000000000E+00  0.00000000000E+00  0.45593999997E+02  0.45594000000E+02  0.51100000000E-03 0.  1.
         11   -1    0    0    0    0 -0.00000000000E+00 -0.00000000000E+00 -0.45593999997E+02  0.45594000000E+02  0.51100000000E-03 0. -1.
    9900012    2    1    2    0    0  0.21019783319E+02 -0.18761784186E+02 -0.33011929712E+02  0.47787270283E+02  0.19999996529E+02 0.  0.
        -12    1    1    2    0    0 -0.21019783319E+02  0.18761784186E+02  0.33011929712E+02  0.43400729717E+02  0.00000000000E+00 0.  1.
         11    1    3    3    0    0  0.18382612803E+02 -0.10963347110E+02 -0.18744789528E+02  0.28451407136E+02  0.51100000000E-03 0. -1.
        -11    1    3    3    0    0 -0.66317113626E+00  0.21639482926E+01 -0.11550848501E+01  0.25410016610E+01  0.51100000000E-03 0.  1.
        -12    1    3    3    0    0  0.33003416529E+01 -0.99623853684E+01 -0.13112055334E+02  0.16794861486E+02  0.00000000000E+00 0.  1.
</event>
<event>
 7    1  0.2598019E-009  0.4778727E+02  0.7816164E-02  0.1312668E+00
        -11   -1    0    0    0    0  0.00000000000E+00  0.00000000000E+00  0.45593999997E+02  0.45594000000E+02  0.51100000000E-03 0.  1.
         11   -1    0    0    0    0 -0.00000000000E+00 -0.00000000000E+00 -0.45593999997E+02  0.45594000000E+02  0.51100000000E-03 0. -1.
    9900012    2    1    2    0    0  0.13561699557E+02  0.26230840531E+02 -0.31806391385E+02  0.47787271633E+02  0.20000002684E+02 0.  0.
        -12    1    1    2    0    0 -0.13561699557E+02 -0.26230840531E+02  0.31806391385E+02  0.43400728367E+02  0.00000000000E+00 0.  1.
         11    1    3    3    0    0  0.64388580969E+01  0.88455978547E+01 -0.97341587957E+00  0.10984126444E+02  0.51100000000E-03 0.  1.
        -11    1    3    3    0    0  0.79989824349E+01  0.16960501683E+02 -0.27169467607E+02  0.33012456856E+02  0.51100000000E-03 0. -1.
        -12    1    3    3    0    0 -0.87614097484E+00  0.42474099272E+00 -0.36635078985E+01  0.37906883334E+01  0.00000000000E+00 0.  1.
</event>
<event>
 7    1  0.2598019E-009  0.4778724E+02  0.7816164E-02  0.1312668E+00
        -11   -1    0    0    0    0  0.00000000000E+00  0.00000000000E+00  0.45593999997E+02  0.45594000000E+02  0.51100000000E-03 0.  1.
         11   -1    0    0    0    0 -0.00000000000E+00 -0.00000000000E+00 -0.45593999997E+02  0.45594000000E+02  0.51100000000E-03 0. -1.
    9900012    2    1    2    0    0 -0.20240505529E+02  0.17312883720E+02 -0.34266780357E+02  0.47787236840E+02  0.19999844048E+02 0.  0.
        -12    1    1    2    0    0  0.20240505529E+02 -0.17312883720E+02  0.34266780357E+02  0.43400763160E+02  0.00000000000E+00 0.  1.
         11    1    3    3    0    0 -0.11987131634E+02  0.13625531587E+01 -0.18063277291E+02  0.21721645027E+02  0.51100000000E-03 0. -1.
        -11    1    3    3    0    0 -0.16551074852E+01  0.11102354282E+02 -0.52553194744E+01  0.12394354942E+02  0.51100000000E-03 0.  1.
        -12    1    3    3    0    0 -0.65982664100E+01  0.48479762802E+01 -0.10948183592E+02  0.13671236872E+02  0.00000000000E+00 0.  1.
</event>
<event>
 7    1  0.2598019E-009  0.4778727E+02  0.7816164E-02  0.1312668E+00
        -11   -1    0    0    0    0  0.00000000000E+00  0.00000000000E+00  0.45593999997E+02  0.45594000000E+02  0.51100000000E-03 0.  1.
         11   -1    0    0    0    0 -0.00000000000E+00 -0.00000000000E+00 -0.45593999997E+02  0.45594000000E+02  0.51100000000E-03 0. -1.
    9900012    2    1    2    0    0  0.17435909429E+02 -0.36053855947E+02 -0.16725190921E+02  0.47787268698E+02  0.19999989299E+02 0.  0.
        -12    1    1    2    0    0 -0.17435909429E+02  0.36053855947E+02  0.16725190921E+02  0.43400731302E+02  0.00000000000E+00 0.  1.
         11    1    3    3    0    0  0.46239941655E+01 -0.40041969707E+01  0.26813494063E+01  0.66786638126E+01  0.51100000000E-03 0. -1.
        -11    1    3    3    0    0  0.18537556406E+01 -0.18730614999E+02 -0.12108712287E+02  0.22380644801E+02  0.51100000000E-03 0.  1.
         12    1    3    3    0    0  0.10958159623E+02 -0.13319043977E+02 -0.72978280409E+01  0.18727960084E+02  0.00000000000E+00 0. -1.
</event>
<event>
 7    1  0.2598019E-009  0.4778726E+02  0.7816164E-02  0.1312668E+00
        -11   -1    0    0    0    0  0.00000000000E+00  0.00000000000E+00  0.45593999997E+02  0.45594000000E+02  0.51100000000E-03 0.  1.
         11   -1    0    0    0    0 -0.00000000000E+00 -0.00000000000E+00 -0.45593999997E+02  0.45594000000E+02  0.51100000000E-03 0. -1.
    9900012    2    1    2    0    0 -0.13924709650E+02  0.13859755748E+02 -0.38699274482E+02  0.47787260217E+02  0.19999950635E+02 0.  0.
        -12    1    1    2    0    0  0.13924709650E+02 -0.13859755748E+02  0.38699274482E+02  0.43400739783E+02  0.00000000000E+00 0.  1.
         11    1    3    3    0    0 -0.41909558758E+01  0.93197712913E+01 -0.18067425687E+02  0.20757025782E+02  0.51100000000E-03 0. -1.
        -11    1    3    3    0    0 -0.41403167497E+01  0.31986378586E+01  0.37956095873E+00  0.52457195618E+01  0.51100000000E-03 0.  1.
        -12    1    3    3    0    0 -0.55934370243E+01  0.13413465979E+01 -0.21011409754E+02  0.21784514874E+02  0.00000000000E+00 0.  1.
</event>
<event>
 7    1  0.2598019E-009  0.4778727E+02  0.7816164E-02  0.1312668E+00
        -11   -1    0    0    0    0  0.00000000000E+00  0.00000000000E+00  0.45593999997E+02  0.45594000000E+02  0.51100000000E-03 0.  1.
         11   -1    0    0    0    0 -0.00000000000E+00 -0.00000000000E+00 -0.45593999997E+02  0.45594000000E+02  0.51100000000E-03 0. -1.
    9900012    2    1    2    0    0  0.14139289403E+02 -0.28656296885E+02 -0.29368702211E+02  0.47787268145E+02  0.19999986779E+02 0.  0.
        -12    1    1    2    0    0 -0.14139289403E+02  0.28656296885E+02  0.29368702211E+02  0.43400731855E+02  0.00000000000E+00 0.  1.
         11    1    3    3    0    0  0.11560883566E+02 -0.91793777220E+01 -0.68923645275E+01  0.16291706271E+02  0.51100000000E-03 0. -1.
        -11    1    3    3    0    0 -0.25411580624E+01 -0.10291139940E+02 -0.67153672442E+01  0.12548354595E+02  0.51100000000E-03 0.  1.
         12    1    3    3    0    0  0.51195638998E+01 -0.91857792235E+01 -0.15760970439E+02  0.18947207279E+02  0.00000000000E+00 0. -1.
</event>
<event>
 7    1  0.2598019E-009  0.4778729E+02  0.7816164E-02  0.1312668E+00
        -11   -1    0    0    0    0  0.00000000000E+00  0.00000000000E+00  0.45593999997E+02  0.45594000000E+02  0.51100000000E-03 0.  1.
         11   -1    0    0    0    0 -0.00000000000E+00 -0.00000000000E+00 -0.45593999997E+02  0.45594000000E+02  0.51100000000E-03 0. -1.
    9900012    2    1    2    0    0  0.90106549408E+01 -0.35051869895E+02 -0.23954035147E+02  0.47787293952E+02  0.20000104445E+02 0.  0.
        -12    1    1    2    0    0 -0.90106549408E+01  0.35051869895E+02  0.23954035147E+02  0.43400706048E+02  0.00000000000E+00 0.  1.
         11    1    3    3    0    0  0.11926118831E+02 -0.17840268149E+02 -0.15271012955E+02  0.26338400007E+02  0.51100000000E-03 0.  1.
        -11    1    3    3    0    0  0.28672888746E+01 -0.97753181594E+01 -0.47646480818E+01  0.11246335501E+02  0.51100000000E-03 0. -1.
         12    1    3    3    0    0 -0.57827527648E+01 -0.74362835868E+01 -0.39183741107E+01  0.10202558444E+02  0.00000000000E+00 0. -1.
</event>
<event>
 7    1  0.2598019E-009  0.4778728E+02  0.7816164E-02  0.1312668E+00
        -11   -1    0    0    0    0  0.00000000000E+00  0.00000000000E+00  0.45593999997E+02  0.45594000000E+02  0.51100000000E-03 0.  1.
         11   -1    0    0    0    0 -0.00000000000E+00 -0.00000000000E+00 -0.45593999997E+02  0.45594000000E+02  0.51100000000E-03 0. -1.
    9900012    2    1    2    0    0  0.12009205127E+02 -0.36768160183E+02 -0.19685128289E+02  0.47787275504E+02  0.20000020333E+02 0.  0.
        -12    1    1    2    0    0 -0.12009205127E+02  0.36768160183E+02  0.19685128289E+02  0.43400724496E+02  0.00000000000E+00 0.  1.
         11    1    3    3    0    0  0.84932192432E+01 -0.16189683976E+02 -0.15030160589E+02  0.23667411518E+02  0.51100000000E-03 0. -1.
        -11    1    3    3    0    0  0.44353757158E+00 -0.97812504443E+01  0.33319228613E+01  0.10342692882E+02  0.51100000000E-03 0.  1.
         12    1    3    3    0    0  0.30724483125E+01 -0.10797225762E+02 -0.79868905615E+01  0.13777171104E+02  0.00000000000E+00 0. -1.
</event>
<event>
 7    1  0.2598019E-009  0.4778727E+02  0.7816164E-02  0.1312668E+00
        -11   -1    0    0    0    0  0.00000000000E+00  0.00000000000E+00  0.45593999997E+02  0.45594000000E+02  0.51100000000E-03 0.  1.
         11   -1    0    0    0    0 -0.00000000000E+00 -0.00000000000E+00 -0.45593999997E+02  0.45594000000E+02  0.51100000000E-03 0. -1.
    9900012    2    1    2    0    0  0.26877998622E+01  0.11621854450E+02 -0.41729263805E+02  0.47787271588E+02  0.20000002479E+02 0.  0.
        -12    1    1    2    0    0 -0.26877998622E+01 -0.11621854450E+02  0.41729263805E+02  0.43400728412E+02  0.00000000000E+00 0.  1.
         11    1    3    3    0    0  0.71909982452E+00  0.78715885793E+01 -0.45596581767E+01  0.91252120122E+01  0.51100000000E-03 0. -1.
        -11    1    3    3    0    0  0.38742411576E+01  0.42475038080E+01 -0.10939625009E+02  0.12358253466E+02  0.51100000000E-03 0.  1.
         12    1    3    3    0    0 -0.19055411199E+01 -0.49723793755E+00 -0.26229980620E+02  0.26303806110E+02  0.00000000000E+00 0. -1.
</event>
<event>
 7    1  0.2598019E-009  0.4778727E+02  0.7816164E-02  0.1312668E+00
        -11   -1    0    0    0    0  0.00000000000E+00  0.00000000000E+00  0.45593999997E+02  0.45594000000E+02  0.51100000000E-03 0.  1.
         11   -1    0    0    0    0 -0.00000000000E+00 -0.00000000000E+00 -0.45593999997E+02  0.45594000000E+02  0.51100000000E-03 0. -1.
    9900012    2    1    2    0    0 -0.36194272502E+02  0.68417338395E+01 -0.22951877027E+02  0.47787270249E+02  0.19999996372E+02 0.  0.
        -12    1    1    2    0    0  0.36194272502E+02 -0.68417338395E+01  0.22951877027E+02  0.43400729751E+02  0.00000000000E+00 0.  1.
         11    1    3    3    0    0 -0.29358368185E+02  0.36610789755E+01 -0.12887780239E+02  0.32270918201E+02  0.51100000000E-03 0. -1.
        -11    1    3    3    0    0 -0.77563331337E+01  0.34334866283E+01 -0.40009798529E+01  0.93785592792E+01  0.51100000000E-03 0.  1.
        -12    1    3    3    0    0  0.92042881670E+00 -0.25283176435E+00 -0.60631169350E+01  0.61377927690E+01  0.00000000000E+00 0.  1.
</event>
<event>
 7    1  0.2598019E-009  0.4778727E+02  0.7816164E-02  0.1312668E+00
        -11   -1    0    0    0    0  0.00000000000E+00  0.00000000000E+00  0.45593999997E+02  0.45594000000E+02  0.51100000000E-03 0.  1.
         11   -1    0    0    0    0 -0.00000000000E+00 -0.00000000000E+00 -0.45593999997E+02  0.45594000000E+02  0.51100000000E-03 0. -1.
    9900012    2    1    2    0    0  0.18328284559E+02  0.24144538007E+02 -0.31060236270E+02  0.47787274112E+02  0.20000013987E+02 0.  0.
        -12    1    1    2    0    0 -0.18328284559E+02 -0.24144538007E+02  0.31060236270E+02  0.43400725888E+02  0.00000000000E+00 0.  1.
         11    1    3    3    0    0  0.40775196253E+01  0.72803911436E+01  0.55306691123E+00  0.83627833146E+01  0.51100000000E-03 0. -1.
        -11    1    3    3    0    0  0.35733895143E+01  0.10081854361E+02 -0.11888455027E+02  0.15992131289E+02  0.51100000000E-03 0.  1.
         12    1    3    3    0    0  0.10677375419E+02  0.67822925024E+01 -0.19724848154E+02  0.23432359508E+02  0.00000000000E+00 0. -1.
</event>
<event>
 7    1  0.2598019E-009  0.4778728E+02  0.7816164E-02  0.1312668E+00
        -11   -1    0    0    0    0  0.00000000000E+00  0.00000000000E+00  0.45593999997E+02  0.45594000000E+02  0.51100000000E-03 0.  1.
         11   -1    0    0    0    0 -0.00000000000E+00 -0.00000000000E+00 -0.45593999997E+02  0.45594000000E+02  0.51100000000E-03 0. -1.
    9900012    2    1    2    0    0 -0.12688455656E+02 -0.37489197179E+02 -0.17809719649E+02  0.47787275052E+02  0.20000018271E+02 0.  0.
        -12    1    1    2    0    0  0.12688455656E+02  0.37489197179E+02  0.17809719649E+02  0.43400724948E+02  0.00000000000E+00 0.  1.
         11    1    3    3    0    0  0.12140852134E+01 -0.12652266262E+02 -0.10371252009E+02  0.16404777139E+02  0.51100000000E-03 0. -1.
        -11    1    3    3    0    0 -0.15100381280E+02 -0.20542510648E+02 -0.83577517112E+01  0.26830361019E+02  0.51100000000E-03 0.  1.
        -12    1    3    3    0    0  0.11978404102E+01 -0.42944202692E+01  0.91928407142E+00  0.45521368939E+01  0.00000000000E+00 0.  1.
</event>
<event>
 7    1  0.2598019E-009  0.4778727E+02  0.7816164E-02  0.1312668E+00
        -11   -1    0    0    0    0  0.00000000000E+00  0.00000000000E+00  0.45593999997E+02  0.45594000000E+02  0.51100000000E-03 0.  1.
         11   -1    0    0    0    0 -0.00000000000E+00 -0.00000000000E+00 -0.45593999997E+02  0.45594000000E+02  0.51100000000E-03 0. -1.
    9900012    2    1    2    0    0  0.11007428867E+02  0.13862941920E+02 -0.39626741445E+02  0.47787270899E+02  0.19999999336E+02 0.  0.
        -12    1    1    2    0    0 -0.11007428867E+02 -0.13862941920E+02  0.39626741445E+02  0.43400729101E+02  0.00000000000E+00 0.  1.
         11    1    3    3    0    0  0.44292331960E+01  0.86652525476E+00 -0.10687986275E+02  0.11601811220E+02  0.51100000000E-03 0. -1.
        -11    1    3    3    0    0  0.79743524360E+01  0.51057586066E+01 -0.45331865168E+01  0.10498040197E+02  0.51100000000E-03 0.  1.
        -12    1    3    3    0    0 -0.13961567650E+01  0.78906580584E+01 -0.24405568654E+02  0.25687419481E+02  0.00000000000E+00 0.  1.
</event>
<event>
 7    1  0.2598019E-009  0.4778730E+02  0.7816164E-02  0.1312668E+00
        -11   -1    0    0    0    0  0.00000000000E+00  0.00000000000E+00  0.45593999997E+02  0.45594000000E+02  0.51100000000E-03 0. -1.
         11   -1    0    0    0    0 -0.00000000000E+00 -0.00000000000E+00 -0.45593999997E+02  0.45594000000E+02  0.51100000000E-03 0.  1.
    9900012    2    1    2    0    0 -0.30118793261E+02 -0.30581576903E+02  0.64223496869E+01  0.47787295756E+02  0.20000112668E+02 0.  0.
        -12    1    1    2    0    0  0.30118793261E+02  0.30581576903E+02 -0.64223496869E+01  0.43400704244E+02  0.00000000000E+00 0.  1.
         11    1    3    3    0    0 -0.92623885783E+01 -0.13331920624E+02  0.60195803770E+01  0.17313789241E+02  0.51100000000E-03 0. -1.
        -11    1    3    3    0    0 -0.19437542681E+02 -0.89165151069E+01 -0.25117465278E+01  0.21532096461E+02  0.51100000000E-03 0.  1.
        -12    1    3    3    0    0 -0.14188620018E+01 -0.83331411723E+01  0.29145158377E+01  0.89414100536E+01  0.00000000000E+00 0.  1.
</event>
<event>
 7    1  0.2598019E-009  0.4778727E+02  0.7816164E-02  0.1312668E+00
        -11   -1    0    0    0    0  0.00000000000E+00  0.00000000000E+00  0.45593999997E+02  0.45594000000E+02  0.51100000000E-03 0.  1.
         11   -1    0    0    0    0 -0.00000000000E+00 -0.00000000000E+00 -0.45593999997E+02  0.45594000000E+02  0.51100000000E-03 0. -1.
    9900012    2    1    2    0    0 -0.55516272557E+01  0.11436179958E+02 -0.41497186905E+02  0.47787270764E+02  0.19999998720E+02 0.  0.
        -12    1    1    2    0    0  0.55516272557E+01 -0.11436179958E+02  0.41497186905E+02  0.43400729236E+02  0.00000000000E+00 0.  1.
         11    1    3    3    0    0 -0.90940290306E+01  0.11552748526E+02 -0.16451585733E+02  0.22064043961E+02  0.51100000000E-03 0. -1.
        -11    1    3    3    0    0  0.39667009114E+01 -0.44522358024E+00 -0.11611909487E+02  0.12278818443E+02  0.51100000000E-03 0.  1.
         12    1    3    3    0    0 -0.42429913653E+00  0.32865501279E+00 -0.13433691684E+02  0.13444408360E+02  0.00000000000E+00 0. -1.
</event>
<event>
 7    1  0.2598019E-009  0.4778727E+02  0.7816164E-02  0.1312668E+00
        -11   -1    0    0    0    0  0.00000000000E+00  0.00000000000E+00  0.45593999997E+02  0.45594000000E+02  0.51100000000E-03 0.  1.
         11   -1    0    0    0    0 -0.00000000000E+00 -0.00000000000E+00 -0.45593999997E+02  0.45594000000E+02  0.51100000000E-03 0. -1.
    9900012    2    1    2    0    0 -0.19062406535E+02  0.31209923808E+02 -0.23370675402E+02  0.47787272405E+02  0.20000006203E+02 0.  0.
        -12    1    1    2    0    0  0.19062406535E+02 -0.31209923808E+02  0.23370675402E+02  0.43400727595E+02  0.00000000000E+00 0.  1.
         11    1    3    3    0    0 -0.46808621030E+01 -0.16686716454E+01 -0.11662414098E+01  0.51044151844E+01  0.51100000000E-03 0.  1.
        -11    1    3    3    0    0 -0.14132710091E+02  0.26347792146E+02 -0.17696754134E+02  0.34743556994E+02  0.51100000000E-03 0. -1.
         12    1    3    3    0    0 -0.24883434091E+00  0.65308033080E+01 -0.45076798589E+01  0.79393002265E+01  0.00000000000E+00 0. -1.
</event>
<event>
 7    1  0.2598019E-009  0.4778727E+02  0.7816164E-02  0.1312668E+00
        -11   -1    0    0    0    0  0.00000000000E+00  0.00000000000E+00  0.45593999997E+02  0.45594000000E+02  0.51100000000E-03 0. -1.
         11   -1    0    0    0    0 -0.00000000000E+00 -0.00000000000E+00 -0.45593999997E+02  0.45594000000E+02  0.51100000000E-03 0.  1.
    9900012    2    1    2    0    0 -0.38579336518E+02  0.76133430063E+01  0.18365593508E+02  0.47787271633E+02  0.20000002682E+02 0.  0.
        -12    1    1    2    0    0  0.38579336518E+02 -0.76133430063E+01 -0.18365593508E+02  0.43400728367E+02  0.00000000000E+00 0.  1.
         11    1    3    3    0    0 -0.20252458880E+02  0.97891867627E+01  0.50722984507E+01  0.23059021662E+02  0.51100000000E-03 0. -1.
        -11    1    3    3    0    0 -0.84901989894E+01 -0.26095654676E+01  0.11800128338E+02  0.14769439389E+02  0.51100000000E-03 0.  1.
         12    1    3    3    0    0 -0.98366786483E+01  0.43372171121E+00  0.14931667199E+01  0.99588105819E+01  0.00000000000E+00 0. -1.
</event>
<event>
 7    1  0.2598019E-009  0.4778726E+02  0.7816164E-02  0.1312668E+00
        -11   -1    0    0    0    0  0.00000000000E+00  0.00000000000E+00  0.45593999997E+02  0.45594000000E+02  0.51100000000E-03 0.  1.
         11   -1    0    0    0    0 -0.00000000000E+00 -0.00000000000E+00 -0.45593999997E+02  0.45594000000E+02  0.51100000000E-03 0. -1.
    9900012    2    1    2    0    0 -0.28743073851E+02 -0.29219792516E+02  0.14271069413E+02  0.47787262779E+02  0.19999962317E+02 0.  0.
        -12    1    1    2    0    0  0.28743073851E+02  0.29219792516E+02 -0.14271069413E+02  0.43400737221E+02  0.00000000000E+00 0.  1.
         11    1    3    3    0    0 -0.26912833505E+02 -0.28776526337E+02  0.12393864498E+02  0.41303715968E+02  0.51100000000E-03 0. -1.
        -11    1    3    3    0    0 -0.38406915583E+01 -0.10115386976E+01  0.55291282224E+00  0.40099669616E+01  0.51100000000E-03 0.  1.
         12    1    3    3    0    0  0.20104512115E+01  0.56827251875E+00  0.13242920927E+01  0.24735798504E+01  0.00000000000E+00 0. -1.
</event>
<event>
 7    1  0.2598019E-009  0.4778727E+02  0.7816164E-02  0.1312668E+00
        -11   -1    0    0    0    0  0.00000000000E+00  0.00000000000E+00  0.45593999997E+02  0.45594000000E+02  0.51100000000E-03 0. -1.
         11   -1    0    0    0    0 -0.00000000000E+00 -0.00000000000E+00 -0.45593999997E+02  0.45594000000E+02  0.51100000000E-03 0.  1.
    9900012    2    1    2    0    0  0.81051755456E+01 -0.33988319126E+02  0.25743411756E+02  0.47787274701E+02  0.20000016673E+02 0.  0.
        -12    1    1    2    0    0 -0.81051755456E+01  0.33988319126E+02 -0.25743411756E+02  0.43400725299E+02  0.00000000000E+00 0.  1.
         11    1    3    3    0    0  0.71292987235E+01 -0.14869892425E+02  0.21732175279E+02  0.27280543316E+02  0.51100000000E-03 0. -1.
        -11    1    3    3    0    0  0.32238356388E+01 -0.13948734402E+02  0.17114184454E+01  0.14418365406E+02  0.51100000000E-03 0.  1.
         12    1    3    3    0    0 -0.22479588166E+01 -0.51696922995E+01  0.22998180314E+01  0.60883659787E+01  0.00000000000E+00 0. -1.
</event>
<event>
 7    1  0.2598019E-009  0.4778728E+02  0.7816164E-02  0.1312668E+00
        -11   -1    0    0    0    0  0.00000000000E+00  0.00000000000E+00  0.45593999997E+02  0.45594000000E+02  0.51100000000E-03 0.  1.
         11   -1    0    0    0    0 -0.00000000000E+00 -0.00000000000E+00 -0.45593999997E+02  0.45594000000E+02  0.51100000000E-03 0. -1.
    9900012    2    1    2    0    0  0.40543397034E+02  0.12796648111E+01 -0.15434320936E+02  0.47787275952E+02  0.20000022378E+02 0.  0.
        -12    1    1    2    0    0 -0.40543397034E+02 -0.12796648111E+01  0.15434320936E+02  0.43400724048E+02  0.00000000000E+00 0.  1.
         11    1    3    3    0    0  0.18010197655E+01  0.36773971082E+01 -0.68454789509E+01  0.79766850267E+01  0.51100000000E-03 0. -1.
        -11    1    3    3    0    0  0.29199820100E+02 -0.16317255626E+01 -0.55563811350E+01  0.29768530259E+02  0.51100000000E-03 0.  1.
         12    1    3    3    0    0  0.95425571682E+01 -0.76600673449E+00 -0.30324608502E+01  0.10042060667E+02  0.00000000000E+00 0. -1.
</event>
<event>
 7    1  0.2598019E-009  0.4778727E+02  0.7816164E-02  0.1312668E+00
        -11   -1    0    0    0    0  0.00000000000E+00  0.00000000000E+00  0.45593999997E+02  0.45594000000E+02  0.51100000000E-03 0. -1.
         11   -1    0    0    0    0 -0.00000000000E+00 -0.00000000000E+00 -0.45593999997E+02  0.45594000000E+02  0.51100000000E-03 0.  1.
    9900012    2    1    2    0    0 -0.28003395898E+02  0.18459505389E+02  0.27544140898E+02  0.47787271679E+02  0.20000002893E+02 0.  0.
        -12    1    1    2    0    0  0.28003395898E+02 -0.18459505389E+02 -0.27544140898E+02  0.43400728321E+02  0.00000000000E+00 0.  1.
         11    1    3    3    0    0 -0.19924931147E+02  0.64350790432E+01  0.22495180343E+02  0.30731844436E+02  0.51100000000E-03 0. -1.
        -11    1    3    3    0    0 -0.68417984918E+01  0.55904440059E+01  0.85337730290E-01  0.88357542731E+01  0.51100000000E-03 0.  1.
        -12    1    3    3    0    0 -0.12366662584E+01  0.64339823398E+01  0.49636228245E+01  0.82196729697E+01  0.00000000000E+00 0.  1.
</event>
<event>
 7    1  0.2598019E-009  0.4778727E+02  0.7816164E-02  0.1312668E+00
        -11   -1    0    0    0    0  0.00000000000E+00  0.00000000000E+00  0.45593999997E+02  0.45594000000E+02  0.51100000000E-03 0.  1.
         11   -1    0    0    0    0 -0.00000000000E+00 -0.00000000000E+00 -0.45593999997E+02  0.45594000000E+02  0.51100000000E-03 0. -1.
    9900012    2    1    2    0    0  0.13219503745E+01 -0.24157377631E+01 -0.43313282182E+02  0.47787265500E+02  0.19999974722E+02 0.  0.
        -12    1    1    2    0    0 -0.13219503745E+01  0.24157377631E+01  0.43313282182E+02  0.43400734500E+02  0.00000000000E+00 0.  1.
         11    1    3    3    0    0 -0.52141820252E+01 -0.29705153465E+01 -0.29998876100E+02  0.30593205506E+02  0.51100000000E-03 0. -1.
        -11    1    3    3    0    0  0.80462450068E+01  0.52544768432E+00 -0.13445485228E+02  0.15677985434E+02  0.51100000000E-03 0.  1.
        -12    1    3    3    0    0 -0.15101126071E+01  0.29329899031E-01  0.13107914643E+00  0.15160745601E+01  0.00000000000E+00 0.  1.
</event>
<event>
 7    1  0.2598019E-009  0.4778727E+02  0.7816164E-02  0.1312668E+00
        -11   -1    0    0    0    0  0.00000000000E+00  0.00000000000E+00  0.45593999997E+02  0.45594000000E+02  0.51100000000E-03 0. -1.
         11   -1    0    0    0    0 -0.00000000000E+00 -0.00000000000E+00 -0.45593999997E+02  0.45594000000E+02  0.51100000000E-03 0.  1.
    9900012    2    1    2    0    0 -0.39570072069E+02 -0.81529223398E+01 -0.15854424767E+02  0.47787268083E+02  0.19999986496E+02 0.  0.
        -12    1    1    2    0    0  0.39570072069E+02  0.81529223398E+01  0.15854424767E+02  0.43400731917E+02  0.00000000000E+00 0.  1.
         11    1    3    3    0    0 -0.31944503384E+02 -0.11502838379E+02 -0.10089244646E+02  0.35419760657E+02  0.51100000000E-03 0. -1.
        -11    1    3    3    0    0 -0.54978281201E+01  0.55968137345E+01 -0.42315641169E+01  0.89138416608E+01  0.51100000000E-03 0.  1.
        -12    1    3    3    0    0 -0.21277405655E+01 -0.22468976951E+01 -0.15336160047E+01  0.34536657650E+01  0.00000000000E+00 0.  1.
</event>
<event>
 7    1  0.2598019E-009  0.4778727E+02  0.7816164E-02  0.1312668E+00
        -11   -1    0    0    0    0  0.00000000000E+00  0.00000000000E+00  0.45593999997E+02  0.45594000000E+02  0.51100000000E-03 0. -1.
         11   -1    0    0    0    0 -0.00000000000E+00 -0.00000000000E+00 -0.45593999997E+02  0.45594000000E+02  0.51100000000E-03 0.  1.
    9900012    2    1    2    0    0 -0.41919866992E+02  0.10753362079E+02 -0.32731229651E+01  0.47787269839E+02  0.19999994502E+02 0.  0.
        -12    1    1    2    0    0  0.41919866992E+02 -0.10753362079E+02  0.32731229651E+01  0.43400730161E+02  0.00000000000E+00 0.  1.
         11    1    3    3    0    0 -0.11510800857E+02  0.74970843942E+01  0.17237042500E+01  0.13844709004E+02  0.51100000000E-03 0. -1.
        -11    1    3    3    0    0 -0.74941166581E+01  0.14021398654E+01 -0.76495807177E+01  0.10800178985E+02  0.51100000000E-03 0.  1.
        -12    1    3    3    0    0 -0.22914949476E+02  0.18541378189E+01  0.26527535026E+01  0.23142381850E+02  0.00000000000E+00 0.  1.
</event>
<event>
 7    1  0.2598019E-009  0.4778727E+02  0.7816164E-02  0.1312668E+00
        -11   -1    0    0    0    0  0.00000000000E+00  0.00000000000E+00  0.45593999997E+02  0.45594000000E+02  0.51100000000E-03 0.  1.
         11   -1    0    0    0    0 -0.00000000000E+00 -0.00000000000E+00 -0.45593999997E+02  0.45594000000E+02  0.51100000000E-03 0. -1.
    9900012    2    1    2    0    0 -0.14729279352E+02 -0.22267722260E+02 -0.34217249542E+02  0.47787270846E+02  0.19999999095E+02 0.  0.
        -12    1    1    2    0    0  0.14729279352E+02  0.22267722260E+02  0.34217249542E+02  0.43400729154E+02  0.00000000000E+00 0.  1.
         11    1    3    3    0    0 -0.83936745055E+01 -0.20707434066E+02 -0.20181553813E+02  0.30108914160E+02  0.51100000000E-03 0. -1.
        -11    1    3    3    0    0 -0.83175027082E+00  0.25702185219E+01 -0.89665873985E+00  0.28463711845E+01  0.51100000000E-03 0.  1.
         12    1    3    3    0    0 -0.55038545761E+01 -0.41305067163E+01 -0.13139036989E+02  0.14831985502E+02  0.00000000000E+00 0. -1.
</event>
<event>
 7    1  0.2598019E-009  0.4778727E+02  0.7816164E-02  0.1312668E+00
        -11   -1    0    0    0    0  0.00000000000E+00  0.00000000000E+00  0.45593999997E+02  0.45594000000E+02  0.51100000000E-03 0. -1.
         11   -1    0    0    0    0 -0.00000000000E+00 -0.00000000000E+00 -0.45593999997E+02  0.45594000000E+02  0.51100000000E-03 0.  1.
    9900012    2    1    2    0    0  0.29873451861E+02 -0.28053368123E+00  0.31482083380E+02  0.47787269600E+02  0.19999993416E+02 0.  0.
        -12    1    1    2    0    0 -0.29873451861E+02  0.28053368123E+00 -0.31482083380E+02  0.43400730400E+02  0.00000000000E+00 0.  1.
         11    1    3    3    0    0  0.36928243102E+01  0.95284215386E-01 -0.18811037394E+01  0.41454290499E+01  0.51100000000E-03 0. -1.
        -11    1    3    3    0    0  0.19226594289E+01 -0.30991902507E+01  0.54870014074E+01  0.65885342980E+01  0.51100000000E-03 0.  1.
         12    1    3    3    0    0  0.24257968122E+02  0.27233723541E+01  0.27876185712E+02  0.37053306253E+02  0.00000000000E+00 0. -1.
</event>
<event>
 7    1  0.2598019E-009  0.4778727E+02  0.7816164E-02  0.1312668E+00
        -11   -1    0    0    0    0  0.00000000000E+00  0.00000000000E+00  0.45593999997E+02  0.45594000000E+02  0.51100000000E-03 0.  1.
         11   -1    0    0    0    0 -0.00000000000E+00 -0.00000000000E+00 -0.45593999997E+02  0.45594000000E+02  0.51100000000E-03 0. -1.
    9900012    2    1    2    0    0 -0.17109065553E+02 -0.34327505257E+02 -0.20310721353E+02  0.47787272551E+02  0.20000006869E+02 0.  0.
        -12    1    1    2    0    0  0.17109065553E+02  0.34327505257E+02  0.20310721353E+02  0.43400727449E+02  0.00000000000E+00 0.  1.
         11    1    3    3    0    0 -0.40383261566E+01 -0.72985267237E+01 -0.56622663955E+01  0.10081558981E+02  0.51100000000E-03 0. -1.
        -11    1    3    3    0    0 -0.12323952977E+02 -0.16180833071E+02 -0.11497368703E+01  0.20372065948E+02  0.51100000000E-03 0.  1.
        -12    1    3    3    0    0 -0.74678641910E+00 -0.10848145462E+02 -0.13498718087E+02  0.17333647623E+02  0.00000000000E+00 0.  1.
</event>
<event>
 7    1  0.2598019E-009  0.4778727E+02  0.7816164E-02  0.1312668E+00
        -11   -1    0    0    0    0  0.00000000000E+00  0.00000000000E+00  0.45593999997E+02  0.45594000000E+02  0.51100000000E-03 0.  1.
         11   -1    0    0    0    0 -0.00000000000E+00 -0.00000000000E+00 -0.45593999997E+02  0.45594000000E+02  0.51100000000E-03 0. -1.
    9900012    2    1    2    0    0  0.11288711508E+02 -0.18640566892E+02 -0.37532886542E+02  0.47787270585E+02  0.19999997903E+02 0.  0.
        -12    1    1    2    0    0 -0.11288711508E+02  0.18640566892E+02  0.37532886542E+02  0.43400729415E+02  0.00000000000E+00 0.  1.
         11    1    3    3    0    0  0.99252982902E+01 -0.16513806876E+02 -0.33003028070E+02  0.38215405607E+02  0.51100000000E-03 0. -1.
        -11    1    3    3    0    0  0.12440655336E+01 -0.11437677105E+01  0.21974183894E+01  0.27721023550E+01  0.51100000000E-03 0.  1.
         12    1    3    3    0    0  0.11934768459E+00 -0.98299230611E+00 -0.67272768617E+01  0.67997626222E+01  0.00000000000E+00 0. -1.
</event>
<event>
 7    1  0.2598019E-009  0.4778727E+02  0.7816164E-02  0.1312668E+00
        -11   -1    0    0    0    0  0.00000000000E+00  0.00000000000E+00  0.45593999997E+02  0.45594000000E+02  0.51100000000E-03 0.  1.
         11   -1    0    0    0    0 -0.00000000000E+00 -0.00000000000E+00 -0.45593999997E+02  0.45594000000E+02  0.51100000000E-03 0. -1.
    9900012    2    1    2    0    0  0.39896892851E+01 -0.37908434019E+02 -0.20752259790E+02  0.47787271011E+02  0.19999999848E+02 0.  0.
        -12    1    1    2    0    0 -0.39896892851E+01  0.37908434019E+02  0.20752259790E+02  0.43400728989E+02  0.00000000000E+00 0.  1.
         11    1    3    3    0    0 -0.23833304244E+01 -0.28982680966E+01  0.24115583026E+01  0.44604748154E+01  0.51100000000E-03 0. -1.
        -11    1    3    3    0    0  0.79010585656E+00 -0.27570869517E+00  0.45589651175E+00  0.95295563366E+00  0.51100000000E-03 0.  1.
         12    1    3    3    0    0  0.55829138529E+01 -0.34734457227E+02 -0.23619714604E+02  0.42373840562E+02  0.00000000000E+00 0. -1.
</event>
<event>
 7    1  0.2598019E-009  0.4778727E+02  0.7816164E-02  0.1312668E+00
        -11   -1    0    0    0    0  0.00000000000E+00  0.00000000000E+00  0.45593999997E+02  0.45594000000E+02  0.51100000000E-03 0.  1.
         11   -1    0    0    0    0 -0.00000000000E+00 -0.00000000000E+00 -0.45593999997E+02  0.45594000000E+02  0.51100000000E-03 0. -1.
    9900012    2    1    2    0    0  0.17352190871E+02 -0.30267727590E+02 -0.25814517165E+02  0.47787272380E+02  0.20000006089E+02 0.  0.
        -12    1    1    2    0    0 -0.17352190871E+02  0.30267727590E+02  0.25814517165E+02  0.43400727620E+02  0.00000000000E+00 0.  1.
         11    1    3    3    0    0  0.95461358717E-01 -0.59103990463E+00 -0.37805797197E+01  0.38276917742E+01  0.51100000000E-03 0. -1.
        -11    1    3    3    0    0 -0.26265260931E+01 -0.80635046895E+01 -0.31620474817E+01  0.90508171859E+01  0.51100000000E-03 0.  1.
        -12    1    3    3    0    0  0.19883255606E+02 -0.21613182996E+02 -0.18871889964E+02  0.34908763420E+02  0.00000000000E+00 0.  1.
</event>
<event>
 7    1  0.2598019E-009  0.4778727E+02  0.7816164E-02  0.1312668E+00
        -11   -1    0    0    0    0  0.00000000000E+00  0.00000000000E+00  0.45593999997E+02  0.45594000000E+02  0.51100000000E-03 0. -1.
         11   -1    0    0    0    0 -0.00000000000E+00 -0.00000000000E+00 -0.45593999997E+02  0.45594000000E+02  0.51100000000E-03 0.  1.
    9900012    2    1    2    0    0 -0.36950423767E+02 -0.12098128281E+02  0.19285362587E+02  0.47787265737E+02  0.19999975800E+02 0.  0.
        -12    1    1    2    0    0  0.36950423767E+02  0.12098128281E+02 -0.19285362587E+02  0.43400734263E+02  0.00000000000E+00 0.  1.
         11    1    3    3    0    0 -0.26436765818E+02 -0.60628217404E+01  0.18772102330E+02  0.32985636579E+02  0.51100000000E-03 0. -1.
        -11    1    3    3    0    0 -0.20733731056E+01 -0.48480083888E+01 -0.24011459674E+01  0.57937521168E+01  0.51100000000E-03 0.  1.
        -12    1    3    3    0    0 -0.84402848441E+01 -0.11872981516E+01  0.29144062241E+01  0.90078770412E+01  0.00000000000E+00 0.  1.
</event>
<event>
 7    1  0.2598019E-009  0.4778727E+02  0.7816164E-02  0.1312668E+00
        -11   -1    0    0    0    0  0.00000000000E+00  0.00000000000E+00  0.45593999997E+02  0.45594000000E+02  0.51100000000E-03 0.  1.
         11   -1    0    0    0    0 -0.00000000000E+00 -0.00000000000E+00 -0.45593999997E+02  0.45594000000E+02  0.51100000000E-03 0. -1.
    9900012    2    1    2    0    0 -0.24326365727E+02 -0.31483126495E+02 -0.17339664605E+02  0.47787270835E+02  0.19999999047E+02 0.  0.
        -12    1    1    2    0    0  0.24326365727E+02  0.31483126495E+02  0.17339664605E+02  0.43400729165E+02  0.00000000000E+00 0.  1.
         11    1    3    3    0    0 -0.77846900597E+01 -0.87833310815E+01 -0.63318958658E+01  0.13335711819E+02  0.51100000000E-03 0. -1.
        -11    1    3    3    0    0  0.27779766355E+01  0.75377622105E-01 -0.86205510174E+00  0.29096348969E+01  0.51100000000E-03 0.  1.
        -12    1    3    3    0    0 -0.19319652303E+02 -0.22775173036E+02 -0.10145713638E+02  0.31541924119E+02  0.00000000000E+00 0.  1.
</event>
<event>
 7    1  0.2598019E-009  0.4778727E+02  0.7816164E-02  0.1312668E+00
        -11   -1    0    0    0    0  0.00000000000E+00  0.00000000000E+00  0.45593999997E+02  0.45594000000E+02  0.51100000000E-03 0. -1.
         11   -1    0    0    0    0 -0.00000000000E+00 -0.00000000000E+00 -0.45593999997E+02  0.45594000000E+02  0.51100000000E-03 0.  1.
    9900012    2    1    2    0    0 -0.81288250128E+01 -0.37677006556E+02  0.19949653107E+02  0.47787270995E+02  0.19999999775E+02 0.  0.
        -12    1    1    2    0    0  0.81288250128E+01  0.37677006556E+02 -0.19949653107E+02  0.43400729005E+02  0.00000000000E+00 0.  1.
         11    1    3    3    0    0 -0.43151412280E+00 -0.23664124509E+02  0.11816911438E+02  0.26454042969E+02  0.51100000000E-03 0. -1.
        -11    1    3    3    0    0 -0.10721572072E+02 -0.10676588204E+02  0.70975224433E+01  0.16712763639E+02  0.51100000000E-03 0.  1.
        -12    1    3    3    0    0  0.30242611821E+01 -0.33362938422E+01  0.10352192255E+01  0.46204643862E+01  0.00000000000E+00 0.  1.
</event>
<event>
 7    1  0.2598019E-009  0.4778728E+02  0.7816164E-02  0.1312668E+00
        -11   -1    0    0    0    0  0.00000000000E+00  0.00000000000E+00  0.45593999997E+02  0.45594000000E+02  0.51100000000E-03 0. -1.
         11   -1    0    0    0    0 -0.00000000000E+00 -0.00000000000E+00 -0.45593999997E+02  0.45594000000E+02  0.51100000000E-03 0.  1.
    9900012    2    1    2    0    0 -0.24328947919E+02 -0.22299735520E+02  0.28185932243E+02  0.47787277800E+02  0.20000030801E+02 0.  0.
        -12    1    1    2    0    0  0.24328947919E+02  0.22299735520E+02 -0.28185932243E+02  0.43400722200E+02  0.00000000000E+00 0.  1.
         11    1    3    3    0    0 -0.11853158497E+02 -0.20756796490E+02  0.23214750473E+02  0.33320663359E+02  0.51100000000E-03 0. -1.
        -11    1    3    3    0    0 -0.70821564056E+01  0.88185385809E+00  0.47026493282E+01  0.85469009908E+01  0.51100000000E-03 0.  1.
         12    1    3    3    0    0 -0.53936330161E+01 -0.24247928880E+01  0.26853244135E+00  0.59197134503E+01  0.00000000000E+00 0. -1.
</event>
<event>
 7    1  0.2598019E-009  0.4778727E+02  0.7816164E-02  0.1312668E+00
        -11   -1    0    0    0    0  0.00000000000E+00  0.00000000000E+00  0.45593999997E+02  0.45594000000E+02  0.51100000000E-03 0.  1.
         11   -1    0    0    0    0 -0.00000000000E+00 -0.00000000000E+00 -0.45593999997E+02  0.45594000000E+02  0.51100000000E-03 0. -1.
    9900012    2    1    2    0    0 -0.33970862994E+02  0.15361622847E+02 -0.22217656180E+02  0.47787271491E+02  0.20000002034E+02 0.  0.
        -12    1    1    2    0    0  0.33970862994E+02 -0.15361622847E+02  0.22217656180E+02  0.43400728509E+02  0.00000000000E+00 0.  1.
         11    1    3    3    0    0 -0.32816120597E+02  0.11523479245E+02 -0.14353155903E+02  0.37625808025E+02  0.51100000000E-03 0. -1.
        -11    1    3    3    0    0 -0.26798607996E+01  0.39555194272E+01 -0.67457505789E+01  0.82663739921E+01  0.51100000000E-03 0.  1.
         12    1    3    3    0    0  0.15251184022E+01 -0.11737582560E+00 -0.11187496981E+01  0.18950894734E+01  0.00000000000E+00 0. -1.
</event>
<event>
 7    1  0.2598019E-009  0.4778728E+02  0.7816164E-02  0.1312668E+00
        -11   -1    0    0    0    0  0.00000000000E+00  0.00000000000E+00  0.45593999997E+02  0.45594000000E+02  0.51100000000E-03 0. -1.
         11   -1    0    0    0    0 -0.00000000000E+00 -0.00000000000E+00 -0.45593999997E+02  0.45594000000E+02  0.51100000000E-03 0.  1.
    9900012    2    1    2    0    0 -0.21687203672E+02 -0.34974702903E+02  0.13786151628E+02  0.47787278543E+02  0.20000034189E+02 0.  0.
        -12    1    1    2    0    0  0.21687203672E+02  0.34974702903E+02 -0.13786151628E+02  0.43400721457E+02  0.00000000000E+00 0.  1.
         11    1    3    3    0    0 -0.58008632283E+00 -0.67141488284E+01 -0.19392610663E+01  0.70126334837E+01  0.51100000000E-03 0. -1.
        -11    1    3    3    0    0 -0.44480292282E+00 -0.88328939390E+01  0.12473975778E+01  0.89316216868E+01  0.51100000000E-03 0.  1.
         12    1    3    3    0    0 -0.20662314426E+02 -0.19427660136E+02  0.14478015116E+02  0.31843023373E+02  0.00000000000E+00 0. -1.
</event>
<event>
 7    1  0.2598019E-009  0.4778727E+02  0.7816164E-02  0.1312668E+00
        -11   -1    0    0    0    0  0.00000000000E+00  0.00000000000E+00  0.45593999997E+02  0.45594000000E+02  0.51100000000E-03 0. -1.
         11   -1    0    0    0    0 -0.00000000000E+00 -0.00000000000E+00 -0.45593999997E+02  0.45594000000E+02  0.51100000000E-03 0.  1.
    9900012    2    1    2    0    0  0.14988137720E+02 -0.23504463246E+02  0.33264386557E+02  0.47787268695E+02  0.19999989286E+02 0.  0.
        -12    1    1    2    0    0 -0.14988137720E+02  0.23504463246E+02 -0.33264386557E+02  0.43400731305E+02  0.00000000000E+00 0.  1.
         11    1    3    3    0    0  0.17887195148E+01 -0.12677760260E+02  0.58639411840E+01  0.14082291333E+02  0.51100000000E-03 0. -1.
        -11    1    3    3    0    0  0.14045741215E+02 -0.73001885700E+01  0.23883872269E+02  0.28653358516E+02  0.51100000000E-03 0.  1.
        -12    1    3    3    0    0 -0.84632300930E+00 -0.35265144164E+01  0.35165731041E+01  0.50516188456E+01  0.00000000000E+00 0.  1.
</event>
<event>
 7    1  0.2598019E-009  0.4778727E+02  0.7816164E-02  0.1312668E+00
        -11   -1    0    0    0    0  0.00000000000E+00  0.00000000000E+00  0.45593999997E+02  0.45594000000E+02  0.51100000000E-03 0.  1.
         11   -1    0    0    0    0 -0.00000000000E+00 -0.00000000000E+00 -0.45593999997E+02  0.45594000000E+02  0.51100000000E-03 0. -1.
    9900012    2    1    2    0    0  0.14596649407E+02  0.97065567584E+01 -0.39703197783E+02  0.47787270373E+02  0.19999996937E+02 0.  0.
        -12    1    1    2    0    0 -0.14596649407E+02 -0.97065567584E+01  0.39703197783E+02  0.43400729627E+02  0.00000000000E+00 0.  1.
         11    1    3    3    0    0  0.12902630355E+02  0.60703359305E+01 -0.26195704042E+02  0.29825186653E+02  0.51100000000E-03 0.  1.
        -11    1    3    3    0    0 -0.31351454943E+01  0.21520247459E+01 -0.12149440891E+02  0.12730642639E+02  0.51100000000E-03 0. -1.
         12    1    3    3    0    0  0.48291645469E+01  0.14841960820E+01 -0.13580528491E+01  0.52314410799E+01  0.00000000000E+00 0. -1.
</event>
<event>
 7    1  0.2598019E-009  0.4778727E+02  0.7816164E-02  0.1312668E+00
        -11   -1    0    0    0    0  0.00000000000E+00  0.00000000000E+00  0.45593999997E+02  0.45594000000E+02  0.51100000000E-03 0.  1.
         11   -1    0    0    0    0 -0.00000000000E+00 -0.00000000000E+00 -0.45593999997E+02  0.45594000000E+02  0.51100000000E-03 0. -1.
    9900012    2    1    2    0    0  0.38457976651E+02 -0.98703361663E+01 -0.17526660056E+02  0.47787270550E+02  0.19999997744E+02 0.  0.
        -12    1    1    2    0    0 -0.38457976651E+02  0.98703361663E+01  0.17526660056E+02  0.43400729450E+02  0.00000000000E+00 0.  1.
         11    1    3    3    0    0  0.27343525051E+02 -0.10309980949E+02 -0.11384422909E+02  0.31361906106E+02  0.51100000000E-03 0. -1.
        -11    1    3    3    0    0  0.45817562317E+01 -0.49620511380E+01 -0.28898309189E+01  0.73461258268E+01  0.51100000000E-03 0.  1.
         12    1    3    3    0    0  0.65326953679E+01  0.54016959203E+01 -0.32524062274E+01  0.90792386164E+01  0.00000000000E+00 0. -1.
</event>
<event>
 7    1  0.2598019E-009  0.4778730E+02  0.7816164E-02  0.1312668E+00
        -11   -1    0    0    0    0  0.00000000000E+00  0.00000000000E+00  0.45593999997E+02  0.45594000000E+02  0.51100000000E-03 0.  1.
         11   -1    0    0    0    0 -0.00000000000E+00 -0.00000000000E+00 -0.45593999997E+02  0.45594000000E+02  0.51100000000E-03 0. -1.
    9900012    2    1    2    0    0 -0.87452400699E+01 -0.40740776713E+01 -0.42314811106E+02  0.47787302175E+02  0.20000141937E+02 0.  0.
        -12    1    1    2    0    0  0.87452400699E+01  0.40740776713E+01  0.42314811106E+02  0.43400697825E+02  0.00000000000E+00 0.  1.
         11    1    3    3    0    0 -0.33434606648E+01 -0.17086754984E+01 -0.91444725533E+01  0.98853264850E+01  0.51100000000E-03 0. -1.
        -11    1    3    3    0    0 -0.27366434363E+01 -0.98738111794E+01 -0.20821578401E+02  0.23206022750E+02  0.51100000000E-03 0.  1.
        -12    1    3    3    0    0 -0.26651359688E+01  0.75084090065E+01 -0.12348760151E+02  0.14695952940E+02  0.00000000000E+00 0.  1.
</event>
<event>
 7    1  0.2598019E-009  0.4778728E+02  0.7816164E-02  0.1312668E+00
        -11   -1    0    0    0    0  0.00000000000E+00  0.00000000000E+00  0.45593999997E+02  0.45594000000E+02  0.51100000000E-03 0.  1.
         11   -1    0    0    0    0 -0.00000000000E+00 -0.00000000000E+00 -0.45593999997E+02  0.45594000000E+02  0.51100000000E-03 0. -1.
    9900012    2    1    2    0    0  0.16712601889E+01  0.10133759174E+02 -0.42167951605E+02  0.47787281940E+02  0.20000049676E+02 0.  0.
        -12    1    1    2    0    0 -0.16712601889E+01 -0.10133759174E+02  0.42167951605E+02  0.43400718060E+02  0.00000000000E+00 0.  1.
         11    1    3    3    0    0  0.40927791635E+00 -0.38577684419E+01 -0.17867132056E+02  0.18283443164E+02  0.51100000000E-03 0. -1.
        -11    1    3    3    0    0  0.18979548708E+01  0.13481818260E+02 -0.24975800886E+02  0.28445602234E+02  0.51100000000E-03 0.  1.
        -12    1    3    3    0    0 -0.63597259824E+00  0.50970935586E+00  0.67498133709E+00  0.10582365419E+01  0.00000000000E+00 0.  1.
</event>
<event>
 7    1  0.2598019E-009  0.4778728E+02  0.7816164E-02  0.1312668E+00
        -11   -1    0    0    0    0  0.00000000000E+00  0.00000000000E+00  0.45593999997E+02  0.45594000000E+02  0.51100000000E-03 0. -1.
         11   -1    0    0    0    0 -0.00000000000E+00 -0.00000000000E+00 -0.45593999997E+02  0.45594000000E+02  0.51100000000E-03 0.  1.
    9900012    2    1    2    0    0  0.27326978195E+02 -0.59907837138E+01  0.33180853625E+02  0.47787282563E+02  0.20000052520E+02 0.  0.
        -12    1    1    2    0    0 -0.27326978195E+02  0.59907837138E+01 -0.33180853625E+02  0.43400717437E+02  0.00000000000E+00 0.  1.
         11    1    3    3    0    0  0.36590309621E+01  0.27220125904E+01  0.13109685807E+02  0.13880263770E+02  0.51100000000E-03 0. -1.
        -11    1    3    3    0    0  0.24260885674E+02 -0.71108679838E+01  0.17239097444E+02  0.30599697681E+02  0.51100000000E-03 0.  1.
        -12    1    3    3    0    0 -0.59293844208E+00 -0.16019283205E+01  0.28320703737E+01  0.33073211125E+01  0.00000000000E+00 0.  1.
</event>
<event>
 7    1  0.2598019E-009  0.4778728E+02  0.7816164E-02  0.1312668E+00
        -11   -1    0    0    0    0  0.00000000000E+00  0.00000000000E+00  0.45593999997E+02  0.45594000000E+02  0.51100000000E-03 0.  1.
         11   -1    0    0    0    0 -0.00000000000E+00 -0.00000000000E+00 -0.45593999997E+02  0.45594000000E+02  0.51100000000E-03 0. -1.
    9900012    2    1    2    0    0 -0.18689800503E+02 -0.64954108066E+01 -0.38628016816E+02  0.47787277799E+02  0.20000030798E+02 0.  0.
        -12    1    1    2    0    0  0.18689800503E+02  0.64954108066E+01  0.38628016816E+02  0.43400722201E+02  0.00000000000E+00 0.  1.
         11    1    3    3    0    0 -0.61220375343E+01  0.44326222261E+01 -0.19194281122E+02  0.20628812652E+02  0.51100000000E-03 0. -1.
        -11    1    3    3    0    0 -0.13960758075E+02 -0.93221203147E+01 -0.16527156470E+02  0.23557410606E+02  0.51100000000E-03 0.  1.
        -12    1    3    3    0    0  0.13929951067E+01 -0.16059127179E+01 -0.29065792238E+01  0.36010545413E+01  0.00000000000E+00 0.  1.
</event>
<event>
 7    1  0.2598019E-009  0.4778727E+02  0.7816164E-02  0.1312668E+00
        -11   -1    0    0    0    0  0.00000000000E+00  0.00000000000E+00  0.45593999997E+02  0.45594000000E+02  0.51100000000E-03 0.  1.
         11   -1    0    0    0    0 -0.00000000000E+00 -0.00000000000E+00 -0.45593999997E+02  0.45594000000E+02  0.51100000000E-03 0. -1.
    9900012    2    1    2    0    0 -0.30964344969E+02  0.38090188083E+01 -0.30171576567E+02  0.47787270558E+02  0.19999997780E+02 0.  0.
        -12    1    1    2    0    0  0.30964344969E+02 -0.38090188083E+01  0.30171576567E+02  0.43400729442E+02  0.00000000000E+00 0.  1.
         11    1    3    3    0    0 -0.58025369432E+01  0.38394083233E+01  0.66929546427E+00  0.69898818252E+01  0.51100000000E-03 0. -1.
        -11    1    3    3    0    0 -0.98884316106E+00 -0.15734631856E+01 -0.52117593186E+01  0.55331756387E+01  0.51100000000E-03 0.  1.
         12    1    3    3    0    0 -0.24172964865E+02  0.15430736706E+01 -0.25629112712E+02  0.35264213094E+02  0.00000000000E+00 0. -1.
</event>
<event>
 7    1  0.2598019E-009  0.4778727E+02  0.7816164E-02  0.1312668E+00
        -11   -1    0    0    0    0  0.00000000000E+00  0.00000000000E+00  0.45593999997E+02  0.45594000000E+02  0.51100000000E-03 0.  1.
         11   -1    0    0    0    0 -0.00000000000E+00 -0.00000000000E+00 -0.45593999997E+02  0.45594000000E+02  0.51100000000E-03 0. -1.
    9900012    2    1    2    0    0  0.19522010787E+02 -0.34021195364E+02 -0.18576132549E+02  0.47787270286E+02  0.19999996544E+02 0.  0.
        -12    1    1    2    0    0 -0.19522010787E+02  0.34021195364E+02  0.18576132549E+02  0.43400729714E+02  0.00000000000E+00 0.  1.
         11    1    3    3    0    0  0.40550403836E+01 -0.18796863921E+02 -0.45718011166E+01  0.19765293104E+02  0.51100000000E-03 0. -1.
        -11    1    3    3    0    0  0.89649569406E+01 -0.70508242321E+01 -0.13347954819E+02  0.17557120305E+02  0.51100000000E-03 0.  1.
        -12    1    3    3    0    0  0.65020134630E+01 -0.81735072111E+01 -0.65637661378E+00  0.10464856877E+02  0.00000000000E+00 0.  1.
</event>
<event>
 7    1  0.2598019E-009  0.4778727E+02  0.7816164E-02  0.1312668E+00
        -11   -1    0    0    0    0  0.00000000000E+00  0.00000000000E+00  0.45593999997E+02  0.45594000000E+02  0.51100000000E-03 0.  1.
         11   -1    0    0    0    0 -0.00000000000E+00 -0.00000000000E+00 -0.45593999997E+02  0.45594000000E+02  0.51100000000E-03 0. -1.
    9900012    2    1    2    0    0 -0.45036300491E+01 -0.23579662255E+02 -0.36157161944E+02  0.47787268260E+02  0.19999987306E+02 0.  0.
        -12    1    1    2    0    0  0.45036300491E+01  0.23579662255E+02  0.36157161944E+02  0.43400731740E+02  0.00000000000E+00 0.  1.
         11    1    3    3    0    0  0.66773960960E+00  0.14513562803E+01 -0.48566190431E+01  0.51126372871E+01  0.51100000000E-03 0. -1.
        -11    1    3    3    0    0 -0.38689719416E+01 -0.17998847504E+02 -0.11707812220E+02  0.21817431623E+02  0.51100000000E-03 0.  1.
        -12    1    3    3    0    0 -0.13023977172E+01 -0.70321710317E+01 -0.19592730680E+02  0.20857199350E+02  0.00000000000E+00 0.  1.
</event>
<event>
 7    1  0.2598019E-009  0.4778727E+02  0.7816164E-02  0.1312668E+00
        -11   -1    0    0    0    0  0.00000000000E+00  0.00000000000E+00  0.45593999997E+02  0.45594000000E+02  0.51100000000E-03 0.  1.
         11   -1    0    0    0    0 -0.00000000000E+00 -0.00000000000E+00 -0.45593999997E+02  0.45594000000E+02  0.51100000000E-03 0. -1.
    9900012    2    1    2    0    0 -0.21600670640E+02 -0.25116650721E+02 -0.28039051303E+02  0.47787268284E+02  0.19999987414E+02 0.  0.
        -12    1    1    2    0    0  0.21600670640E+02  0.25116650721E+02  0.28039051303E+02  0.43400731716E+02  0.00000000000E+00 0.  1.
         11    1    3    3    0    0 -0.11084895767E+02 -0.39509811483E+01 -0.55594392113E+01  0.13015088583E+02  0.51100000000E-03 0. -1.
        -11    1    3    3    0    0 -0.42102390035E+01 -0.18637181410E+02 -0.19664835027E+02  0.27418540813E+02  0.51100000000E-03 0.  1.
        -12    1    3    3    0    0 -0.63055358689E+01 -0.25284881625E+01 -0.28147770640E+01  0.73536388884E+01  0.00000000000E+00 0.  1.
</event>
<event>
 7    1  0.2598019E-009  0.4778726E+02  0.7816164E-02  0.1312668E+00
        -11   -1    0    0    0    0  0.00000000000E+00  0.00000000000E+00  0.45593999997E+02  0.45594000000E+02  0.51100000000E-03 0.  1.
         11   -1    0    0    0    0 -0.00000000000E+00 -0.00000000000E+00 -0.45593999997E+02  0.45594000000E+02  0.51100000000E-03 0. -1.
    9900012    2    1    2    0    0 -0.28642029645E+02 -0.32563761740E+02  0.16910504123E+01  0.47787261615E+02  0.19999957009E+02 0.  0.
        -12    1    1    2    0    0  0.28642029645E+02  0.32563761740E+02 -0.16910504123E+01  0.43400738385E+02  0.00000000000E+00 0.  1.
         11    1    3    3    0    0 -0.14485868165E+02 -0.13486673682E+02  0.91271529464E+01  0.21795312906E+02  0.51100000000E-03 0. -1.
        -11    1    3    3    0    0 -0.26052199938E+01 -0.31910217510E+01 -0.45528409505E+01  0.61398820846E+01  0.51100000000E-03 0.  1.
         12    1    3    3    0    0 -0.11550941486E+02 -0.15886066306E+02 -0.28832615836E+01  0.19852066625E+02  0.00000000000E+00 0. -1.
</event>
<event>
 7    1  0.2598019E-009  0.4778727E+02  0.7816164E-02  0.1312668E+00
        -11   -1    0    0    0    0  0.00000000000E+00  0.00000000000E+00  0.45593999997E+02  0.45594000000E+02  0.51100000000E-03 0.  1.
         11   -1    0    0    0    0 -0.00000000000E+00 -0.00000000000E+00 -0.45593999997E+02  0.45594000000E+02  0.51100000000E-03 0. -1.
    9900012    2    1    2    0    0 -0.55576161924E+01 -0.41997072190E+02 -0.94330219736E+01  0.47787273349E+02  0.20000010510E+02 0.  0.
        -12    1    1    2    0    0  0.55576161924E+01  0.41997072190E+02  0.94330219736E+01  0.43400726651E+02  0.00000000000E+00 0.  1.
         11    1    3    3    0    0  0.36605512207E+00 -0.31638185296E+02 -0.73464657276E+00  0.31648830485E+02  0.51100000000E-03 0. -1.
        -11    1    3    3    0    0 -0.19893683918E+01  0.34710152370E+00 -0.22986062417E+01  0.30596824969E+01  0.51100000000E-03 0.  1.
         12    1    3    3    0    0 -0.39343029226E+01 -0.10705988417E+02 -0.63997691591E+01  0.13078760368E+02  0.00000000000E+00 0. -1.
</event>
<event>
 7    1  0.2598019E-009  0.4778727E+02  0.7816164E-02  0.1312668E+00
        -11   -1    0    0    0    0  0.00000000000E+00  0.00000000000E+00  0.45593999997E+02  0.45594000000E+02  0.51100000000E-03 0.  1.
         11   -1    0    0    0    0 -0.00000000000E+00 -0.00000000000E+00 -0.45593999997E+02  0.45594000000E+02  0.51100000000E-03 0. -1.
    9900012    2    1    2    0    0  0.52130588773E+01 -0.68248855717E+01 -0.42542547422E+02  0.47787269740E+02  0.19999994052E+02 0.  0.
        -12    1    1    2    0    0 -0.52130588773E+01  0.68248855717E+01  0.42542547422E+02  0.43400730260E+02  0.00000000000E+00 0.  1.
         11    1    3    3    0    0  0.11212408805E+02 -0.31588685162E+01 -0.31361248363E+02  0.33454812220E+02  0.51100000000E-03 0. -1.
        -11    1    3    3    0    0 -0.16608973428E+01 -0.29473040450E+01 -0.15029816075E+01  0.37019096546E+01  0.51100000000E-03 0.  1.
         12    1    3    3    0    0 -0.43384525848E+01 -0.71871301050E+00 -0.96783174519E+01  0.10630547866E+02  0.00000000000E+00 0. -1.
</event>
<event>
 7    1  0.2598019E-009  0.4778727E+02  0.7816164E-02  0.1312668E+00
        -11   -1    0    0    0    0  0.00000000000E+00  0.00000000000E+00  0.45593999997E+02  0.45594000000E+02  0.51100000000E-03 0.  1.
         11   -1    0    0    0    0 -0.00000000000E+00 -0.00000000000E+00 -0.45593999997E+02  0.45594000000E+02  0.51100000000E-03 0. -1.
    9900012    2    1    2    0    0  0.22958597302E+02 -0.36830991079E+02  0.64456134078E-01  0.47787271337E+02  0.20000001332E+02 0.  0.
        -12    1    1    2    0    0 -0.22958597302E+02  0.36830991079E+02 -0.64456134078E-01  0.43400728663E+02  0.00000000000E+00 0.  1.
         11    1    3    3    0    0  0.83064347648E+00 -0.98476047587E+01 -0.67082758096E+00  0.99053166518E+01  0.51100000000E-03 0. -1.
        -11    1    3    3    0    0  0.20648656212E+02 -0.28681506382E+02 -0.43527954392E+00  0.35343815304E+02  0.51100000000E-03 0.  1.
        -12    1    3    3    0    0  0.14792976135E+01  0.16981200618E+01  0.11705632590E+01  0.25381393809E+01  0.00000000000E+00 0.  1.
</event>
<event>
 7    1  0.2598019E-009  0.4778727E+02  0.7816164E-02  0.1312668E+00
        -11   -1    0    0    0    0  0.00000000000E+00  0.00000000000E+00  0.45593999997E+02  0.45594000000E+02  0.51100000000E-03 0.  1.
         11   -1    0    0    0    0 -0.00000000000E+00 -0.00000000000E+00 -0.45593999997E+02  0.45594000000E+02  0.51100000000E-03 0. -1.
    9900012    2    1    2    0    0 -0.41065245025E+02 -0.84204018291E-01  0.14044997864E+02  0.47787269542E+02  0.19999993151E+02 0.  0.
        -12    1    1    2    0    0  0.41065245025E+02  0.84204018291E-01 -0.14044997864E+02  0.43400730458E+02  0.00000000000E+00 0.  1.
         11    1    3    3    0    0 -0.18335450462E+02 -0.12629877053E+01  0.11588722465E+01  0.18415397545E+02  0.51100000000E-03 0. -1.
        -11    1    3    3    0    0  0.10587815616E+01  0.23491744019E+01  0.12839134835E+01  0.28789013286E+01  0.51100000000E-03 0.  1.
        -12    1    3    3    0    0 -0.23788576124E+02 -0.11703907148E+01  0.11602212134E+02  0.26492970669E+02  0.00000000000E+00 0.  1.
</event>
<event>
 7    1  0.2598019E-009  0.4778727E+02  0.7816164E-02  0.1312668E+00
        -11   -1    0    0    0    0  0.00000000000E+00  0.00000000000E+00  0.45593999997E+02  0.45594000000E+02  0.51100000000E-03 0. -1.
         11   -1    0    0    0    0 -0.00000000000E+00 -0.00000000000E+00 -0.45593999997E+02  0.45594000000E+02  0.51100000000E-03 0.  1.
    9900012    2    1    2    0    0  0.31894192979E+02 -0.58725239224E+01  0.28842631949E+02  0.47787268431E+02  0.19999988083E+02 0.  0.
        -12    1    1    2    0    0 -0.31894192979E+02  0.58725239224E+01 -0.28842631949E+02  0.43400731569E+02  0.00000000000E+00 0.  1.
         11    1    3    3    0    0  0.31939744043E+02 -0.26393272192E+01  0.21705469637E+02  0.38707114464E+02  0.51100000000E-03 0. -1.
        -11    1    3    3    0    0 -0.34490489559E+00 -0.74135691295E+00  0.64173260209E+01  0.64692072914E+01  0.51100000000E-03 0.  1.
         12    1    3    3    0    0  0.29935383194E+00 -0.24918397903E+01  0.71983629094E+00  0.26109466756E+01  0.00000000000E+00 0. -1.
</event>
<event>
 7    1  0.2598019E-009  0.4778727E+02  0.7816164E-02  0.1312668E+00
        -11   -1    0    0    0    0  0.00000000000E+00  0.00000000000E+00  0.45593999997E+02  0.45594000000E+02  0.51100000000E-03 0.  1.
         11   -1    0    0    0    0 -0.00000000000E+00 -0.00000000000E+00 -0.45593999997E+02  0.45594000000E+02  0.51100000000E-03 0. -1.
    9900012    2    1    2    0    0  0.19159663226E+02  0.36919828181E+02 -0.12387767567E+02  0.47787271974E+02  0.20000004241E+02 0.  0.
        -12    1    1    2    0    0 -0.19159663226E+02 -0.36919828181E+02  0.12387767567E+02  0.43400728026E+02  0.00000000000E+00 0.  1.
         11    1    3    3    0    0  0.13260485555E+02  0.11503004935E+02 -0.54232015120E+01  0.18373097577E+02  0.51100000000E-03 0. -1.
        -11    1    3    3    0    0  0.15701403110E+01  0.23670595258E+02 -0.70413973550E+01  0.24745579352E+02  0.51100000000E-03 0.  1.
        -12    1    3    3    0    0  0.43290373600E+01  0.17462279879E+01  0.76831300461E-01  0.46685950455E+01  0.00000000000E+00 0.  1.
</event>
<event>
 7    1  0.2598019E-009  0.4778727E+02  0.7816164E-02  0.1312668E+00
        -11   -1    0    0    0    0  0.00000000000E+00  0.00000000000E+00  0.45593999997E+02  0.45594000000E+02  0.51100000000E-03 0. -1.
         11   -1    0    0    0    0 -0.00000000000E+00 -0.00000000000E+00 -0.45593999997E+02  0.45594000000E+02  0.51100000000E-03 0.  1.
    9900012    2    1    2    0    0  0.37054112651E+02  0.20728964328E+02  0.89958819411E+01  0.47787272836E+02  0.20000008168E+02 0.  0.
        -12    1    1    2    0    0 -0.37054112651E+02 -0.20728964328E+02 -0.89958819411E+01  0.43400727164E+02  0.00000000000E+00 0.  1.
         11    1    3    3    0    0  0.12394325749E+02  0.30085051956E+00 -0.14268985268E+01  0.12479818167E+02  0.51100000000E-03 0. -1.
        -11    1    3    3    0    0  0.12744705229E+02  0.17152999412E+02  0.62435437412E+01  0.22262855587E+02  0.51100000000E-03 0.  1.
        -12    1    3    3    0    0  0.11915081673E+02  0.32751143968E+01  0.41792367268E+01  0.13044599082E+02  0.00000000000E+00 0.  1.
</event>
<event>
 7    1  0.2598019E-009  0.4778727E+02  0.7816164E-02  0.1312668E+00
        -11   -1    0    0    0    0  0.00000000000E+00  0.00000000000E+00  0.45593999997E+02  0.45594000000E+02  0.51100000000E-03 0.  1.
         11   -1    0    0    0    0 -0.00000000000E+00 -0.00000000000E+00 -0.45593999997E+02  0.45594000000E+02  0.51100000000E-03 0. -1.
    9900012    2    1    2    0    0 -0.78026280762E+01  0.84541983570E+01 -0.41848159653E+02  0.47787274878E+02  0.20000017479E+02 0.  0.
        -12    1    1    2    0    0  0.78026280762E+01 -0.84541983570E+01  0.41848159653E+02  0.43400725122E+02  0.00000000000E+00 0.  1.
         11    1    3    3    0    0 -0.25504542035E+00  0.22480277396E+00 -0.88333848102E+01  0.88399248821E+01  0.51100000000E-03 0. -1.
        -11    1    3    3    0    0  0.36160285807E+01 -0.22969875417E+01 -0.29744347528E+01  0.52152734178E+01  0.51100000000E-03 0.  1.
        -12    1    3    3    0    0 -0.11163611237E+02  0.10526383125E+02 -0.30040340090E+02  0.33732076578E+02  0.00000000000E+00 0.  1.
</event>
<event>
 7    1  0.2598019E-009  0.4778728E+02  0.7816164E-02  0.1312668E+00
        -11   -1    0    0    0    0  0.00000000000E+00  0.00000000000E+00  0.45593999997E+02  0.45594000000E+02  0.51100000000E-03 0.  1.
         11   -1    0    0    0    0 -0.00000000000E+00 -0.00000000000E+00 -0.45593999997E+02  0.45594000000E+02  0.51100000000E-03 0. -1.
    9900012    2    1    2    0    0 -0.22521972514E+01  0.56802434182E+01 -0.42968422022E+02  0.47787275942E+02  0.20000022328E+02 0.  0.
        -12    1    1    2    0    0  0.22521972514E+01 -0.56802434182E+01  0.42968422022E+02  0.43400724058E+02  0.00000000000E+00 0.  1.
         11    1    3    3    0    0 -0.21730954662E+01  0.23581782058E+01  0.27727855867E+00  0.32187314296E+01  0.51100000000E-03 0. -1.
        -11    1    3    3    0    0  0.43609951286E+01  0.71329515190E+00 -0.30553285331E+02  0.30871189049E+02  0.51100000000E-03 0.  1.
         12    1    3    3    0    0 -0.44400969137E+01  0.26087700605E+01 -0.12692415249E+02  0.13697355463E+02  0.00000000000E+00 0. -1.
</event>
<event>
 7    1  0.2598019E-009  0.4778727E+02  0.7816164E-02  0.1312668E+00
        -11   -1    0    0    0    0  0.00000000000E+00  0.00000000000E+00  0.45593999997E+02  0.45594000000E+02  0.51100000000E-03 0.  1.
         11   -1    0    0    0    0 -0.00000000000E+00 -0.00000000000E+00 -0.45593999997E+02  0.45594000000E+02  0.51100000000E-03 0. -1.
    9900012    2    1    2    0    0 -0.26975441786E+02  0.25416749956E+02 -0.22581796202E+02  0.47787272384E+02  0.20000006107E+02 0.  0.
        -12    1    1    2    0    0  0.26975441786E+02 -0.25416749956E+02  0.22581796202E+02  0.43400727616E+02  0.00000000000E+00 0.  1.
         11    1    3    3    0    0 -0.73828836621E+01  0.13193330545E+02 -0.15700911200E+02  0.21796549149E+02  0.51100000000E-03 0. -1.
        -11    1    3    3    0    0 -0.19122662338E+02  0.12886425819E+02 -0.45257525382E+01  0.23499332364E+02  0.51100000000E-03 0.  1.
        -12    1    3    3    0    0 -0.46989578653E+00 -0.66300640769E+00 -0.23551324641E+01  0.24913908707E+01  0.00000000000E+00 0.  1.
</event>
<event>
 7    1  0.2598019E-009  0.4778727E+02  0.7816164E-02  0.1312668E+00
        -11   -1    0    0    0    0  0.00000000000E+00  0.00000000000E+00  0.45593999997E+02  0.45594000000E+02  0.51100000000E-03 0.  1.
         11   -1    0    0    0    0 -0.00000000000E+00 -0.00000000000E+00 -0.45593999997E+02  0.45594000000E+02  0.51100000000E-03 0. -1.
    9900012    2    1    2    0    0  0.37148258658E+02  0.77528851593E+01 -0.21059983949E+02  0.47787271048E+02  0.20000000018E+02 0.  0.
        -12    1    1    2    0    0 -0.37148258658E+02 -0.77528851593E+01  0.21059983949E+02  0.43400728952E+02  0.00000000000E+00 0.  1.
         11    1    3    3    0    0  0.15099651411E+02  0.88656944281E+00 -0.14741656931E+02  0.21121125146E+02  0.51100000000E-03 0. -1.
        -11    1    3    3    0    0  0.18689020984E+02  0.71824492025E+01 -0.60510004962E+00  0.20030806979E+02  0.51100000000E-03 0.  1.
        -12    1    3    3    0    0  0.33595862628E+01 -0.31613348593E+00 -0.57132269682E+01  0.66353389234E+01  0.00000000000E+00 0.  1.
</event>
<event>
 7    1  0.2598019E-009  0.4778726E+02  0.7816164E-02  0.1312668E+00
        -11   -1    0    0    0    0  0.00000000000E+00  0.00000000000E+00  0.45593999997E+02  0.45594000000E+02  0.51100000000E-03 0.  1.
         11   -1    0    0    0    0 -0.00000000000E+00 -0.00000000000E+00 -0.45593999997E+02  0.45594000000E+02  0.51100000000E-03 0. -1.
    9900012    2    1    2    0    0 -0.36549836529E+02 -0.23297689629E+02 -0.22250859708E+01  0.47787263832E+02  0.19999967117E+02 0.  0.
        -12    1    1    2    0    0  0.36549836529E+02  0.23297689629E+02  0.22250859708E+01  0.43400736168E+02  0.00000000000E+00 0.  1.
         11    1    3    3    0    0 -0.98264561236E+01  0.12957048920E+01 -0.38087467802E+01  0.10618128056E+02  0.51100000000E-03 0. -1.
        -11    1    3    3    0    0 -0.70557873150E+01 -0.11493003063E+02  0.11341120517E+01  0.13533641951E+02  0.51100000000E-03 0.  1.
         12    1    3    3    0    0 -0.19667593090E+02 -0.13100391458E+02  0.44954875773E+00  0.23635493826E+02  0.00000000000E+00 0. -1.
</event>
<event>
 7    1  0.2598019E-009  0.4778726E+02  0.7816164E-02  0.1312668E+00
        -11   -1    0    0    0    0  0.00000000000E+00  0.00000000000E+00  0.45593999997E+02  0.45594000000E+02  0.51100000000E-03 0.  1.
         11   -1    0    0    0    0 -0.00000000000E+00 -0.00000000000E+00 -0.45593999997E+02  0.45594000000E+02  0.51100000000E-03 0. -1.
    9900012    2    1    2    0    0  0.37792447756E+02 -0.51724946099E+01 -0.20702668719E+02  0.47787259223E+02  0.19999946103E+02 0.  0.
        -12    1    1    2    0    0 -0.37792447756E+02  0.51724946099E+01  0.20702668719E+02  0.43400740777E+02  0.00000000000E+00 0.  1.
         11    1    3    3    0    0  0.26823866289E+01 -0.33776107218E+01 -0.11047290634E+01  0.44524014621E+01  0.51100000000E-03 0. -1.
        -11    1    3    3    0    0  0.16043131599E+02  0.19526296484E+01 -0.62026987326E+00  0.16173421686E+02  0.51100000000E-03 0.  1.
        -12    1    3    3    0    0  0.19066929528E+02 -0.37475135365E+01 -0.18977669782E+02  0.27161436075E+02  0.00000000000E+00 0.  1.
</event>
<event>
 7    1  0.2598019E-009  0.4778727E+02  0.7816164E-02  0.1312668E+00
        -11   -1    0    0    0    0  0.00000000000E+00  0.00000000000E+00  0.45593999997E+02  0.45594000000E+02  0.51100000000E-03 0.  1.
         11   -1    0    0    0    0 -0.00000000000E+00 -0.00000000000E+00 -0.45593999997E+02  0.45594000000E+02  0.51100000000E-03 0. -1.
    9900012    2    1    2    0    0 -0.11303676883E+02  0.84318916142E+01 -0.41045745093E+02  0.47787273076E+02  0.20000009262E+02 0.  0.
        -12    1    1    2    0    0  0.11303676883E+02 -0.84318916142E+01  0.41045745093E+02  0.43400726924E+02  0.00000000000E+00 0.  1.
         11    1    3    3    0    0  0.25881711565E+01 -0.44431160374E+01 -0.62886908608E+01  0.81232716969E+01  0.51100000000E-03 0. -1.
        -11    1    3    3    0    0 -0.73302483598E+01  0.64797744964E+01 -0.15351865723E+02  0.18204389580E+02  0.51100000000E-03 0.  1.
         12    1    3    3    0    0 -0.65615996801E+01  0.63952331551E+01 -0.19405188509E+02  0.21459611799E+02  0.00000000000E+00 0. -1.
</event>
<event>
 7    1  0.2598019E-009  0.4778727E+02  0.7816164E-02  0.1312668E+00
        -11   -1    0    0    0    0  0.00000000000E+00  0.00000000000E+00  0.45593999997E+02  0.45594000000E+02  0.51100000000E-03 0.  1.
         11   -1    0    0    0    0 -0.00000000000E+00 -0.00000000000E+00 -0.45593999997E+02  0.45594000000E+02  0.51100000000E-03 0. -1.
    9900012    2    1    2    0    0  0.81703321588E+01 -0.31744634553E+02 -0.28445507800E+02  0.47787273457E+02  0.20000010998E+02 0.  0.
        -12    1    1    2    0    0 -0.81703321588E+01  0.31744634553E+02  0.28445507800E+02  0.43400726543E+02  0.00000000000E+00 0.  1.
         11    1    3    3    0    0  0.31363335781E+01 -0.17633188687E+02 -0.37928887566E+01  0.18307155349E+02  0.51100000000E-03 0. -1.
        -11    1    3    3    0    0  0.21685449923E+01 -0.32110030636E+01 -0.11624896893E+02  0.12253626243E+02  0.51100000000E-03 0.  1.
         12    1    3    3    0    0  0.28654535884E+01 -0.10900442802E+02 -0.13027722151E+02  0.17226491865E+02  0.00000000000E+00 0. -1.
</event>
<event>
 7    1  0.2598019E-009  0.4778727E+02  0.7816164E-02  0.1312668E+00
        -11   -1    0    0    0    0  0.00000000000E+00  0.00000000000E+00  0.45593999997E+02  0.45594000000E+02  0.51100000000E-03 0. -1.
         11   -1    0    0    0    0 -0.00000000000E+00 -0.00000000000E+00 -0.45593999997E+02  0.45594000000E+02  0.51100000000E-03 0.  1.
    9900012    2    1    2    0    0 -0.37136959134E+02  0.13304039098E+02  0.18096190112E+02  0.47787270898E+02  0.19999999333E+02 0.  0.
        -12    1    1    2    0    0  0.37136959134E+02 -0.13304039098E+02 -0.18096190112E+02  0.43400729102E+02  0.00000000000E+00 0.  1.
         11    1    3    3    0    0 -0.28172403728E+02  0.12692051571E+02  0.12693732266E+02  0.33405139485E+02  0.51100000000E-03 0. -1.
        -11    1    3    3    0    0 -0.91224206135E+01  0.17342579046E+01  0.44465873772E+00  0.92964471699E+01  0.51100000000E-03 0.  1.
         12    1    3    3    0    0  0.15786520818E+00 -0.11222703773E+01  0.49577991084E+01  0.50856842433E+01  0.00000000000E+00 0. -1.
</event>
<event>
 7    1  0.2598019E-009  0.4778727E+02  0.7816164E-02  0.1312668E+00
        -11   -1    0    0    0    0  0.00000000000E+00  0.00000000000E+00  0.45593999997E+02  0.45594000000E+02  0.51100000000E-03 0.  1.
         11   -1    0    0    0    0 -0.00000000000E+00 -0.00000000000E+00 -0.45593999997E+02  0.45594000000E+02  0.51100000000E-03 0. -1.
    9900012    2    1    2    0    0 -0.50103871472E+01  0.39827519782E+02  0.16501158074E+02  0.47787268103E+02  0.19999986590E+02 0.  0.
        -12    1    1    2    0    0  0.50103871472E+01 -0.39827519782E+02 -0.16501158074E+02  0.43400731897E+02  0.00000000000E+00 0.  1.
         11    1    3    3    0    0 -0.25783000461E+01  0.59286465872E+01 -0.26584233908E+01  0.69902572677E+01  0.51100000000E-03 0. -1.
        -11    1    3    3    0    0  0.32120607992E+01  0.25927275004E+02  0.12401334807E+02  0.28919440329E+02  0.51100000000E-03 0.  1.
        -12    1    3    3    0    0 -0.56441479004E+01  0.79715981914E+01  0.67582466573E+01  0.11877570506E+02  0.00000000000E+00 0.  1.
</event>
<event>
 7    1  0.2598019E-009  0.4778727E+02  0.7816164E-02  0.1312668E+00
        -11   -1    0    0    0    0  0.00000000000E+00  0.00000000000E+00  0.45593999997E+02  0.45594000000E+02  0.51100000000E-03 0.  1.
         11   -1    0    0    0    0 -0.00000000000E+00 -0.00000000000E+00 -0.45593999997E+02  0.45594000000E+02  0.51100000000E-03 0. -1.
    9900012    2    1    2    0    0  0.95311332849E+01 -0.24383628740E+02 -0.34615303553E+02  0.47787273136E+02  0.20000009536E+02 0.  0.
        -12    1    1    2    0    0 -0.95311332849E+01  0.24383628740E+02  0.34615303553E+02  0.43400726864E+02  0.00000000000E+00 0.  1.
         11    1    3    3    0    0  0.23366821471E+01 -0.42090961178E+01 -0.62031575304E+01  0.78521167333E+01  0.51100000000E-03 0. -1.
        -11    1    3    3    0    0  0.95067867831E+01 -0.21890035914E+02 -0.20313485391E+02  0.31339916341E+02  0.51100000000E-03 0.  1.
        -12    1    3    3    0    0 -0.23123356453E+01  0.17155032921E+01 -0.80986606322E+01  0.85952400617E+01  0.00000000000E+00 0.  1.
</event>
<event>
 7    1  0.2598019E-009  0.4778727E+02  0.7816164E-02  0.1312668E+00
        -11   -1    0    0    0    0  0.00000000000E+00  0.00000000000E+00  0.45593999997E+02  0.45594000000E+02  0.51100000000E-03 0. -1.
         11   -1    0    0    0    0 -0.00000000000E+00 -0.00000000000E+00 -0.45593999997E+02  0.45594000000E+02  0.51100000000E-03 0.  1.
    9900012    2    1    2    0    0  0.11052425704E+02  0.41943433168E+02  0.14884266858E+01  0.47787272888E+02  0.20000008407E+02 0.  0.
        -12    1    1    2    0    0 -0.11052425704E+02 -0.41943433168E+02 -0.14884266858E+01  0.43400727112E+02  0.00000000000E+00 0.  1.
         11    1    3    3    0    0  0.92166664421E+01  0.16094277761E+02 -0.57132031761E+01  0.19406530029E+02  0.51100000000E-03 0. -1.
        -11    1    3    3    0    0  0.40816450812E+01  0.61981545491E+01  0.37061139850E+01  0.82953135875E+01  0.51100000000E-03 0.  1.
         12    1    3    3    0    0 -0.22458858198E+01  0.19651000857E+02  0.34955158769E+01  0.20085429272E+02  0.00000000000E+00 0. -1.
</event>
<event>
 7    1  0.2598019E-009  0.4778727E+02  0.7816164E-02  0.1312668E+00
        -11   -1    0    0    0    0  0.00000000000E+00  0.00000000000E+00  0.45593999997E+02  0.45594000000E+02  0.51100000000E-03 0. -1.
         11   -1    0    0    0    0 -0.00000000000E+00 -0.00000000000E+00 -0.45593999997E+02  0.45594000000E+02  0.51100000000E-03 0.  1.
    9900012    2    1    2    0    0 -0.38159009629E+02  0.20630616977E+02  0.13750707775E+01  0.47787271983E+02  0.20000004281E+02 0.  0.
        -12    1    1    2    0    0  0.38159009629E+02 -0.20630616977E+02 -0.13750707775E+01  0.43400728017E+02  0.00000000000E+00 0.  1.
         11    1    3    3    0    0 -0.10040641485E+02 -0.33293516820E+00 -0.43726796398E+01  0.10956534797E+02  0.51100000000E-03 0. -1.
        -11    1    3    3    0    0 -0.60862702495E+01  0.31301459802E+01  0.49998505262E+01  0.84757893409E+01  0.51100000000E-03 0.  1.
         12    1    3    3    0    0 -0.22032097895E+02  0.17833406165E+02  0.74789989115E+00  0.28354947846E+02  0.00000000000E+00 0. -1.
</event>
<event>
 7    1  0.2598019E-009  0.4778727E+02  0.7816164E-02  0.1312668E+00
        -11   -1    0    0    0    0  0.00000000000E+00  0.00000000000E+00  0.45593999997E+02  0.45594000000E+02  0.51100000000E-03 0.  1.
         11   -1    0    0    0    0 -0.00000000000E+00 -0.00000000000E+00 -0.45593999997E+02  0.45594000000E+02  0.51100000000E-03 0. -1.
    9900012    2    1    2    0    0 -0.16289548978E+02 -0.19319910385E+02 -0.35284770175E+02  0.47787270173E+02  0.19999996028E+02 0.  0.
        -12    1    1    2    0    0  0.16289548978E+02  0.19319910385E+02  0.35284770175E+02  0.43400729827E+02  0.00000000000E+00 0.  1.
         11    1    3    3    0    0 -0.19980670125E+01 -0.76083667211E+01 -0.85913179230E+01  0.11648616221E+02  0.51100000000E-03 0. -1.
        -11    1    3    3    0    0 -0.13750692487E+02 -0.15272278364E+02 -0.20856489682E+02  0.29279979378E+02  0.51100000000E-03 0.  1.
        -12    1    3    3    0    0 -0.54078947851E+00  0.35607347001E+01 -0.58369625702E+01  0.68586745739E+01  0.00000000000E+00 0.  1.
</event>
<event>
 7    1  0.2598019E-009  0.4778728E+02  0.7816164E-02  0.1312668E+00
        -11   -1    0    0    0    0  0.00000000000E+00  0.00000000000E+00  0.45593999997E+02  0.45594000000E+02  0.51100000000E-03 0. -1.
         11   -1    0    0    0    0 -0.00000000000E+00 -0.00000000000E+00 -0.45593999997E+02  0.45594000000E+02  0.51100000000E-03 0.  1.
    9900012    2    1    2    0    0 -0.62902189239E+01  0.40555177015E+02 -0.14118555827E+02  0.47787275865E+02  0.20000021978E+02 0.  0.
        -12    1    1    2    0    0  0.62902189239E+01 -0.40555177015E+02  0.14118555827E+02  0.43400724135E+02  0.00000000000E+00 0.  1.
         11    1    3    3    0    0 -0.47757348590E+01  0.29362321250E+02 -0.22327760400E+01  0.29831842748E+02  0.51100000000E-03 0. -1.
        -11    1    3    3    0    0 -0.39726831879E+01  0.55370401914E+01 -0.85841105504E+01  0.10960291054E+02  0.51100000000E-03 0.  1.
        -12    1    3    3    0    0  0.24581991230E+01  0.56558155734E+01 -0.33016692362E+01  0.69951420624E+01  0.00000000000E+00 0.  1.
</event>
<event>
 7    1  0.2598019E-009  0.4778727E+02  0.7816164E-02  0.1312668E+00
        -11   -1    0    0    0    0  0.00000000000E+00  0.00000000000E+00  0.45593999997E+02  0.45594000000E+02  0.51100000000E-03 0. -1.
         11   -1    0    0    0    0 -0.00000000000E+00 -0.00000000000E+00 -0.45593999997E+02  0.45594000000E+02  0.51100000000E-03 0.  1.
    9900012    2    1    2    0    0  0.27820848569E+02  0.10838479762E+02  0.31498427833E+02  0.47787271727E+02  0.20000003113E+02 0.  0.
        -12    1    1    2    0    0 -0.27820848569E+02 -0.10838479762E+02 -0.31498427833E+02  0.43400728273E+02  0.00000000000E+00 0.  1.
         11    1    3    3    0    0  0.17578972700E+02  0.50818517802E+01  0.25090702784E+02  0.31054611013E+02  0.51100000000E-03 0. -1.
        -11    1    3    3    0    0 -0.14095316044E+01 -0.64508824946E+00  0.23824805055E+01  0.28423813632E+01  0.51100000000E-03 0.  1.
         12    1    3    3    0    0  0.11651407473E+02  0.64017162315E+01  0.40252445431E+01  0.13890279351E+02  0.00000000000E+00 0. -1.
</event>
<event>
 7    1  0.4316535E-009  0.4778727E+02  0.7816164E-02  0.1312668E+00
        -11   -1    0    0    0    0  0.00000000000E+00  0.00000000000E+00  0.45593999997E+02  0.45594000000E+02  0.51100000000E-03 0. -1.
         11   -1    0    0    0    0 -0.00000000000E+00 -0.00000000000E+00 -0.45593999997E+02  0.45594000000E+02  0.51100000000E-03 0.  1.
    9900012    2    1    2    0    0  0.76448516692E+01 -0.30906222587E+02  0.29495508438E+02  0.47787269941E+02  0.19999994968E+02 0.  0.
        -12    1    1    2    0    0 -0.76448516692E+01  0.30906222587E+02 -0.29495508438E+02  0.43400730059E+02  0.00000000000E+00 0.  1.
         11    1    3    3    0    0  0.15239470655E+01 -0.22099362355E+02  0.17935193646E+02  0.28502199959E+02  0.51100000000E-03 0. -1.
        -11    1    3    3    0    0 -0.58987838878E+00  0.84262663701E+00 -0.14333075720E+01  0.17641845199E+01  0.51100000000E-03 0.  1.
         12    1    3    3    0    0  0.67107829925E+01 -0.96494868696E+01  0.12993622364E+02  0.17520885462E+02  0.00000000000E+00 0. -1.
</event>
<event>
 7    1  0.2598019E-009  0.4778727E+02  0.7816164E-02  0.1312668E+00
        -11   -1    0    0    0    0  0.00000000000E+00  0.00000000000E+00  0.45593999997E+02  0.45594000000E+02  0.51100000000E-03 0.  1.
         11   -1    0    0    0    0 -0.00000000000E+00 -0.00000000000E+00 -0.45593999997E+02  0.45594000000E+02  0.51100000000E-03 0. -1.
    9900012    2    1    2    0    0  0.28224980917E+02 -0.18706394094E+02 -0.27148566383E+02  0.47787269771E+02  0.19999994193E+02 0.  0.
        -12    1    1    2    0    0 -0.28224980917E+02  0.18706394094E+02  0.27148566383E+02  0.43400730229E+02  0.00000000000E+00 0.  1.
         11    1    3    3    0    0  0.48253657411E+01 -0.70606084030E+01  0.54588901015E+00  0.85693839118E+01  0.51100000000E-03 0. -1.
        -11    1    3    3    0    0  0.67189177763E+01 -0.62969382179E+01 -0.47812753974E+01  0.10375735236E+02  0.51100000000E-03 0.  1.
         12    1    3    3    0    0  0.16680697400E+02 -0.53488474733E+01 -0.22913179996E+02  0.28842150623E+02  0.00000000000E+00 0. -1.
</event>
<event>
 7    1  0.2598019E-009  0.4778727E+02  0.7816164E-02  0.1312668E+00
        -11   -1    0    0    0    0  0.00000000000E+00  0.00000000000E+00  0.45593999997E+02  0.45594000000E+02  0.51100000000E-03 0.  1.
         11   -1    0    0    0    0 -0.00000000000E+00 -0.00000000000E+00 -0.45593999997E+02  0.45594000000E+02  0.51100000000E-03 0. -1.
    9900012    2    1    2    0    0  0.58937801590E+01 -0.40566922416E+02  0.14255221256E+02  0.47787272219E+02  0.20000005356E+02 0.  0.
        -12    1    1    2    0    0 -0.58937801590E+01  0.40566922416E+02 -0.14255221256E+02  0.43400727781E+02  0.00000000000E+00 0.  1.
         11    1    3    3    0    0  0.44596403466E+00 -0.21277339317E+02  0.14673183445E+02  0.25850074758E+02  0.51100000000E-03 0. -1.
        -11    1    3    3    0    0 -0.11631206635E+01 -0.19555451337E+01  0.22434964886E+01  0.31953533769E+01  0.51100000000E-03 0.  1.
         12    1    3    3    0    0  0.66109367879E+01 -0.17334037965E+02 -0.26614586772E+01  0.18741844084E+02  0.00000000000E+00 0. -1.
</event>
<event>
 7    1  0.2598019E-009  0.4778727E+02  0.7816164E-02  0.1312668E+00
        -11   -1    0    0    0    0  0.00000000000E+00  0.00000000000E+00  0.45593999997E+02  0.45594000000E+02  0.51100000000E-03 0.  1.
         11   -1    0    0    0    0 -0.00000000000E+00 -0.00000000000E+00 -0.45593999997E+02  0.45594000000E+02  0.51100000000E-03 0. -1.
    9900012    2    1    2    0    0 -0.33014447729E+02 -0.19310793330E+02 -0.20512503298E+02  0.47787270865E+02  0.19999999181E+02 0.  0.
        -12    1    1    2    0    0  0.33014447729E+02  0.19310793330E+02  0.20512503298E+02  0.43400729135E+02  0.00000000000E+00 0.  1.
         11    1    3    3    0    0 -0.24646263854E+02 -0.14808798308E+02 -0.20235601067E+02  0.35159897328E+02  0.51100000000E-03 0. -1.
        -11    1    3    3    0    0 -0.98644378202E+01 -0.43701914846E+01  0.73837260365E+00  0.10814384009E+02  0.51100000000E-03 0.  1.
         12    1    3    3    0    0  0.14962539449E+01 -0.13180353739E+00 -0.10152748351E+01  0.18129895286E+01  0.00000000000E+00 0. -1.
</event>
<event>
 7    1  0.2598019E-009  0.4778727E+02  0.7816164E-02  0.1312668E+00
        -11   -1    0    0    0    0  0.00000000000E+00  0.00000000000E+00  0.45593999997E+02  0.45594000000E+02  0.51100000000E-03 0.  1.
         11   -1    0    0    0    0 -0.00000000000E+00 -0.00000000000E+00 -0.45593999997E+02  0.45594000000E+02  0.51100000000E-03 0. -1.
    9900012    2    1    2    0    0  0.70761399655E+01  0.83037030681E+01 -0.42007141818E+02  0.47787271836E+02  0.20000003608E+02 0.  0.
        -12    1    1    2    0    0 -0.70761399655E+01 -0.83037030681E+01  0.42007141818E+02  0.43400728164E+02  0.00000000000E+00 0.  1.
         11    1    3    3    0    0 -0.49708944065E+00 -0.22916043821E+01  0.54449421150E+00  0.24072853515E+01  0.51100000000E-03 0. -1.
        -11    1    3    3    0    0 -0.44060822011E+00  0.17762330498E+01 -0.86605012520E+00  0.20246438035E+01  0.51100000000E-03 0.  1.
         12    1    3    3    0    0  0.80138376262E+01  0.88190744004E+01 -0.41685585904E+02  0.43355342681E+02  0.00000000000E+00 0. -1.
</event>
<event>
 7    1  0.2598019E-009  0.4778727E+02  0.7816164E-02  0.1312668E+00
        -11   -1    0    0    0    0  0.00000000000E+00  0.00000000000E+00  0.45593999997E+02  0.45594000000E+02  0.51100000000E-03 0.  1.
         11   -1    0    0    0    0 -0.00000000000E+00 -0.00000000000E+00 -0.45593999997E+02  0.45594000000E+02  0.51100000000E-03 0. -1.
    9900012    2    1    2    0    0  0.24907940701E+02  0.35377752559E+02  0.34106365414E+01  0.47787270424E+02  0.19999997172E+02 0.  0.
        -12    1    1    2    0    0 -0.24907940701E+02 -0.35377752559E+02 -0.34106365414E+01  0.43400729576E+02  0.00000000000E+00 0.  1.
         11    1    3    3    0    0  0.57737042812E+01  0.16579790444E+02  0.97837701417E+01  0.20098439510E+02  0.51100000000E-03 0. -1.
        -11    1    3    3    0    0  0.61748588494E+01  0.50269411186E+01 -0.28265446843E+01  0.84491640967E+01  0.51100000000E-03 0.  1.
         12    1    3    3    0    0  0.12959377571E+02  0.13771020997E+02 -0.35465889160E+01  0.19239666818E+02  0.00000000000E+00 0. -1.
</event>
<event>
 7    1  0.2598019E-009  0.4778726E+02  0.7816164E-02  0.1312668E+00
        -11   -1    0    0    0    0  0.00000000000E+00  0.00000000000E+00  0.45593999997E+02  0.45594000000E+02  0.51100000000E-03 0.  1.
         11   -1    0    0    0    0 -0.00000000000E+00 -0.00000000000E+00 -0.45593999997E+02  0.45594000000E+02  0.51100000000E-03 0. -1.
    9900012    2    1    2    0    0 -0.13589971132E+02  0.24860433273E+02 -0.32876974936E+02  0.47787263383E+02  0.19999965070E+02 0.  0.
        -12    1    1    2    0    0  0.13589971132E+02 -0.24860433273E+02  0.32876974936E+02  0.43400736617E+02  0.00000000000E+00 0.  1.
         11    1    3    3    0    0 -0.26299438370E+01  0.10631276307E+02 -0.17671668333E+02  0.20790105879E+02  0.51100000000E-03 0. -1.
        -11    1    3    3    0    0 -0.97038046314E+01  0.11181559879E+02 -0.40270761114E+01  0.15343026035E+02  0.51100000000E-03 0.  1.
        -12    1    3    3    0    0 -0.12562226637E+01  0.30475970877E+01 -0.11178230491E+02  0.11654131470E+02  0.00000000000E+00 0.  1.
</event>
<event>
 7    1  0.2598019E-009  0.4778727E+02  0.7816164E-02  0.1312668E+00
        -11   -1    0    0    0    0  0.00000000000E+00  0.00000000000E+00  0.45593999997E+02  0.45594000000E+02  0.51100000000E-03 0.  1.
         11   -1    0    0    0    0 -0.00000000000E+00 -0.00000000000E+00 -0.45593999997E+02  0.45594000000E+02  0.51100000000E-03 0. -1.
    9900012    2    1    2    0    0 -0.38550234788E+02  0.26008788670E+01 -0.19767102759E+02  0.47787268156E+02  0.19999986832E+02 0.  0.
        -12    1    1    2    0    0  0.38550234788E+02 -0.26008788670E+01  0.19767102759E+02  0.43400731844E+02  0.00000000000E+00 0.  1.
         11    1    3    3    0    0 -0.96518390066E+01 -0.95842230002E+00  0.29974689572E+01  0.10151915579E+02  0.51100000000E-03 0.  1.
        -11    1    3    3    0    0 -0.23769503770E+02  0.55948451043E+01 -0.17870416883E+02  0.30259600146E+02  0.51100000000E-03 0. -1.
        -12    1    3    3    0    0 -0.51288920113E+01 -0.20355439373E+01 -0.48941548337E+01  0.73757524308E+01  0.00000000000E+00 0.  1.
</event>
<event>
 7    1  0.2598019E-009  0.4778727E+02  0.7816164E-02  0.1312668E+00
        -11   -1    0    0    0    0  0.00000000000E+00  0.00000000000E+00  0.45593999997E+02  0.45594000000E+02  0.51100000000E-03 0.  1.
         11   -1    0    0    0    0 -0.00000000000E+00 -0.00000000000E+00 -0.45593999997E+02  0.45594000000E+02  0.51100000000E-03 0. -1.
    9900012    2    1    2    0    0 -0.35162719806E+02 -0.15683305670E+02 -0.20030986199E+02  0.47787270178E+02  0.19999996051E+02 0.  0.
        -12    1    1    2    0    0  0.35162719806E+02  0.15683305670E+02  0.20030986199E+02  0.43400729822E+02  0.00000000000E+00 0.  1.
         11    1    3    3    0    0 -0.25505754160E+02 -0.31708534453E+01 -0.96885032673E+01  0.27467524509E+02  0.51100000000E-03 0. -1.
        -11    1    3    3    0    0 -0.62668849299E+01 -0.11614270277E+02 -0.53995174538E+01  0.14259029062E+02  0.51100000000E-03 0.  1.
         12    1    3    3    0    0 -0.33900807169E+01 -0.89818194790E+00 -0.49429654783E+01  0.60607166076E+01  0.00000000000E+00 0. -1.
</event>
<event>
 7    1  0.2598019E-009  0.4778726E+02  0.7816164E-02  0.1312668E+00
        -11   -1    0    0    0    0  0.00000000000E+00  0.00000000000E+00  0.45593999997E+02  0.45594000000E+02  0.51100000000E-03 0. -1.
         11   -1    0    0    0    0 -0.00000000000E+00 -0.00000000000E+00 -0.45593999997E+02  0.45594000000E+02  0.51100000000E-03 0.  1.
    9900012    2    1    2    0    0  0.41700868619E+02  0.11143890537E+02 -0.45249517286E+01  0.47787263508E+02  0.19999965640E+02 0.  0.
        -12    1    1    2    0    0 -0.41700868619E+02 -0.11143890537E+02  0.45249517286E+01  0.43400736492E+02  0.00000000000E+00 0.  1.
         11    1    3    3    0    0  0.89382606159E+01  0.53739558782E+01 -0.71771344657E+01  0.12660298733E+02  0.51100000000E-03 0. -1.
        -11    1    3    3    0    0  0.26026519106E+02  0.35750196719E+01  0.65024149189E+01  0.27063663138E+02  0.51100000000E-03 0.  1.
        -12    1    3    3    0    0  0.67360888974E+01  0.21949149865E+01 -0.38502321818E+01  0.80633016368E+01  0.00000000000E+00 0.  1.
</event>
<event>
 7    1  0.2598019E-009  0.4778727E+02  0.7816164E-02  0.1312668E+00
        -11   -1    0    0    0    0  0.00000000000E+00  0.00000000000E+00  0.45593999997E+02  0.45594000000E+02  0.51100000000E-03 0.  1.
         11   -1    0    0    0    0 -0.00000000000E+00 -0.00000000000E+00 -0.45593999997E+02  0.45594000000E+02  0.51100000000E-03 0. -1.
    9900012    2    1    2    0    0 -0.16494319061E+01  0.10599333461E+02 -0.42054212092E+02  0.47787271318E+02  0.20000001249E+02 0.  0.
        -12    1    1    2    0    0  0.16494319061E+01 -0.10599333461E+02  0.42054212092E+02  0.43400728682E+02  0.00000000000E+00 0.  1.
         11    1    3    3    0    0 -0.15910528064E+01  0.88212453011E+00 -0.29553612586E+02  0.29609552679E+02  0.51100000000E-03 0. -1.
        -11    1    3    3    0    0  0.35992413704E+01  0.85964353289E+01 -0.95759518761E+01  0.13362338620E+02  0.51100000000E-03 0.  1.
         12    1    3    3    0    0 -0.36576204701E+01  0.11207736017E+01 -0.29246476302E+01  0.48153800193E+01  0.00000000000E+00 0. -1.
</event>
<event>
 7    1  0.2598019E-009  0.4778727E+02  0.7816164E-02  0.1312668E+00
        -11   -1    0    0    0    0  0.00000000000E+00  0.00000000000E+00  0.45593999997E+02  0.45594000000E+02  0.51100000000E-03 0.  1.
         11   -1    0    0    0    0 -0.00000000000E+00 -0.00000000000E+00 -0.45593999997E+02  0.45594000000E+02  0.51100000000E-03 0. -1.
    9900012    2    1    2    0    0  0.27727360479E+02  0.68999445219E+01 -0.32668141429E+02  0.47787271689E+02  0.20000002937E+02 0.  0.
        -12    1    1    2    0    0 -0.27727360479E+02 -0.68999445219E+01  0.32668141429E+02  0.43400728311E+02  0.00000000000E+00 0.  1.
         11    1    3    3    0    0  0.85420544503E+01  0.84579243554E+01 -0.19841466986E+02  0.23198857538E+02  0.51100000000E-03 0. -1.
        -11    1    3    3    0    0  0.15450939265E+02  0.20638870012E+01 -0.81358206489E+01  0.17583592682E+02  0.51100000000E-03 0.  1.
         12    1    3    3    0    0  0.37343667637E+01 -0.36218668347E+01 -0.46908537940E+01  0.70048214689E+01  0.00000000000E+00 0. -1.
</event>
<event>
 7    1  0.2598019E-009  0.4778727E+02  0.7816164E-02  0.1312668E+00
        -11   -1    0    0    0    0  0.00000000000E+00  0.00000000000E+00  0.45593999997E+02  0.45594000000E+02  0.51100000000E-03 0.  1.
         11   -1    0    0    0    0 -0.00000000000E+00 -0.00000000000E+00 -0.45593999997E+02  0.45594000000E+02  0.51100000000E-03 0. -1.
    9900012    2    1    2    0    0 -0.23689092491E+02 -0.83290121415E+01 -0.35398836640E+02  0.47787272106E+02  0.20000004838E+02 0.  0.
        -12    1    1    2    0    0  0.23689092491E+02  0.83290121415E+01  0.35398836640E+02  0.43400727894E+02  0.00000000000E+00 0.  1.
         11    1    3    3    0    0 -0.23718848223E+02 -0.74035404371E+01 -0.27065696787E+02  0.36741640068E+02  0.51100000000E-03 0. -1.
        -11    1    3    3    0    0 -0.34010151497E+01 -0.15483893870E+01 -0.47802845366E+01  0.60675805932E+01  0.51100000000E-03 0.  1.
         12    1    3    3    0    0  0.34307708822E+01  0.62291768259E+00 -0.35528553161E+01  0.49780514444E+01  0.00000000000E+00 0. -1.
</event>
<event>
 7    1  0.2598019E-009  0.4778727E+02  0.7816164E-02  0.1312668E+00
        -11   -1    0    0    0    0  0.00000000000E+00  0.00000000000E+00  0.45593999997E+02  0.45594000000E+02  0.51100000000E-03 0. -1.
         11   -1    0    0    0    0 -0.00000000000E+00 -0.00000000000E+00 -0.45593999997E+02  0.45594000000E+02  0.51100000000E-03 0.  1.
    9900012    2    1    2    0    0 -0.27818221243E+02 -0.15034979952E+02  0.29727418348E+02  0.47787268935E+02  0.19999990384E+02 0.  0.
        -12    1    1    2    0    0  0.27818221243E+02  0.15034979952E+02 -0.29727418348E+02  0.43400731065E+02  0.00000000000E+00 0.  1.
         11    1    3    3    0    0 -0.74783098672E+01 -0.30621513124E+01  0.66910946097E+01  0.10491550718E+02  0.51100000000E-03 0. -1.
        -11    1    3    3    0    0 -0.63542121011E+01 -0.11706623205E+02  0.18076994262E+02  0.22454370624E+02  0.51100000000E-03 0.  1.
        -12    1    3    3    0    0 -0.13985699275E+02 -0.26620543507E+00  0.49593294758E+01  0.14841347594E+02  0.00000000000E+00 0.  1.
</event>
<event>
 7    1  0.2598019E-009  0.4778727E+02  0.7816164E-02  0.1312668E+00
        -11   -1    0    0    0    0  0.00000000000E+00  0.00000000000E+00  0.45593999997E+02  0.45594000000E+02  0.51100000000E-03 0.  1.
         11   -1    0    0    0    0 -0.00000000000E+00 -0.00000000000E+00 -0.45593999997E+02  0.45594000000E+02  0.51100000000E-03 0. -1.
    9900012    2    1    2    0    0  0.11606861522E+02  0.39591422748E+02 -0.13469358813E+02  0.47787267098E+02  0.19999982006E+02 0.  0.
        -12    1    1    2    0    0 -0.11606861522E+02 -0.39591422748E+02  0.13469358813E+02  0.43400732902E+02  0.00000000000E+00 0.  1.
         11    1    3    3    0    0 -0.29008666967E+01  0.96262256192E+01 -0.29177878838E+01  0.10468654816E+02  0.51100000000E-03 0. -1.
        -11    1    3    3    0    0  0.94267212539E+01  0.57270575242E+01 -0.33678718271E+01  0.11532771670E+02  0.51100000000E-03 0.  1.
        -12    1    3    3    0    0  0.50810069650E+01  0.24238139605E+02 -0.71836991026E+01  0.25785840612E+02  0.00000000000E+00 0.  1.
</event>
<event>
 7    1  0.2598019E-009  0.4778727E+02  0.7816164E-02  0.1312668E+00
        -11   -1    0    0    0    0  0.00000000000E+00  0.00000000000E+00  0.45593999997E+02  0.45594000000E+02  0.51100000000E-03 0.  1.
         11   -1    0    0    0    0 -0.00000000000E+00 -0.00000000000E+00 -0.45593999997E+02  0.45594000000E+02  0.51100000000E-03 0. -1.
    9900012    2    1    2    0    0  0.38658261298E+02  0.14913989528E+02 -0.12912580888E+02  0.47787274253E+02  0.20000014627E+02 0.  0.
        -12    1    1    2    0    0 -0.38658261298E+02 -0.14913989528E+02  0.12912580888E+02  0.43400725747E+02  0.00000000000E+00 0.  1.
         11    1    3    3    0    0  0.24886262664E+02  0.84223724242E+01 -0.14753094212E+02  0.30131648075E+02  0.51100000000E-03 0. -1.
        -11    1    3    3    0    0  0.60540352845E+01  0.58222821532E+01  0.44188901163E+01  0.94908852495E+01  0.51100000000E-03 0.  1.
        -12    1    3    3    0    0  0.77179633492E+01  0.66933495062E+00 -0.25783767927E+01  0.81647409280E+01  0.00000000000E+00 0.  1.
</event>
<event>
 7    1  0.2598019E-009  0.4778728E+02  0.7816164E-02  0.1312668E+00
        -11   -1    0    0    0    0  0.00000000000E+00  0.00000000000E+00  0.45593999997E+02  0.45594000000E+02  0.51100000000E-03 0.  1.
         11   -1    0    0    0    0 -0.00000000000E+00 -0.00000000000E+00 -0.45593999997E+02  0.45594000000E+02  0.51100000000E-03 0. -1.
    9900012    2    1    2    0    0  0.39067656177E+01 -0.35241178880E+02 -0.25028360560E+02  0.47787281817E+02  0.20000049118E+02 0.  0.
        -12    1    1    2    0    0 -0.39067656177E+01  0.35241178880E+02  0.25028360560E+02  0.43400718183E+02  0.00000000000E+00 0.  1.
         11    1    3    3    0    0  0.99713096628E+01 -0.27819661333E+02 -0.13846272769E+02  0.32635561018E+02  0.51100000000E-03 0. -1.
        -11    1    3    3    0    0 -0.91742585102E+00  0.14782909014E+00 -0.40983333395E+00  0.10156216100E+01  0.51100000000E-03 0.  1.
         12    1    3    3    0    0 -0.51471181941E+01 -0.75693466374E+01 -0.10772254457E+02  0.14136099190E+02  0.00000000000E+00 0. -1.
</event>
<event>
 7    1  0.2598019E-009  0.4778727E+02  0.7816164E-02  0.1312668E+00
        -11   -1    0    0    0    0  0.00000000000E+00  0.00000000000E+00  0.45593999997E+02  0.45594000000E+02  0.51100000000E-03 0.  1.
         11   -1    0    0    0    0 -0.00000000000E+00 -0.00000000000E+00 -0.45593999997E+02  0.45594000000E+02  0.51100000000E-03 0. -1.
    9900012    2    1    2    0    0  0.79589803204E+01  0.33202991660E+02 -0.26792520320E+02  0.47787272264E+02  0.20000005562E+02 0.  0.
        -12    1    1    2    0    0 -0.79589803204E+01 -0.33202991660E+02  0.26792520320E+02  0.43400727736E+02  0.00000000000E+00 0.  1.
         11    1    3    3    0    0  0.73994130294E+01  0.32200350250E+01 -0.62425511837E+01  0.10202420511E+02  0.51100000000E-03 0. -1.
        -11    1    3    3    0    0  0.39663695459E+01  0.25036456494E+02 -0.15304247390E+02  0.29610407454E+02  0.51100000000E-03 0.  1.
        -12    1    3    3    0    0 -0.34068022548E+01  0.49465001408E+01 -0.52457217460E+01  0.79744442993E+01  0.00000000000E+00 0.  1.
</event>
<event>
 7    1  0.2598019E-009  0.4778727E+02  0.7816164E-02  0.1312668E+00
        -11   -1    0    0    0    0  0.00000000000E+00  0.00000000000E+00  0.45593999997E+02  0.45594000000E+02  0.51100000000E-03 0.  1.
         11   -1    0    0    0    0 -0.00000000000E+00 -0.00000000000E+00 -0.45593999997E+02  0.45594000000E+02  0.51100000000E-03 0. -1.
    9900012    2    1    2    0    0 -0.13917993347E+02  0.15825413777E+02 -0.37940335392E+02  0.47787270632E+02  0.19999998119E+02 0.  0.
        -12    1    1    2    0    0  0.13917993347E+02 -0.15825413777E+02  0.37940335392E+02  0.43400729368E+02  0.00000000000E+00 0.  1.
         11    1    3    3    0    0 -0.76676553865E+00 -0.13647523005E+00  0.19300794533E+01  0.20812885040E+01  0.51100000000E-03 0.  1.
        -11    1    3    3    0    0 -0.91946847686E+01  0.13578193190E+02 -0.36416479286E+02  0.39938321474E+02  0.51100000000E-03 0. -1.
         12    1    3    3    0    0 -0.39565430394E+01  0.23836958171E+01 -0.34539355592E+01  0.57676606539E+01  0.00000000000E+00 0. -1.
</event>
<event>
 7    1  0.2598019E-009  0.4778727E+02  0.7816164E-02  0.1312668E+00
        -11   -1    0    0    0    0  0.00000000000E+00  0.00000000000E+00  0.45593999997E+02  0.45594000000E+02  0.51100000000E-03 0.  1.
         11   -1    0    0    0    0 -0.00000000000E+00 -0.00000000000E+00 -0.45593999997E+02  0.45594000000E+02  0.51100000000E-03 0. -1.
    9900012    2    1    2    0    0  0.96124102042E+01 -0.62045638730E+00 -0.42318317927E+02  0.47787269266E+02  0.19999991891E+02 0.  0.
        -12    1    1    2    0    0 -0.96124102042E+01  0.62045638730E+00  0.42318317927E+02  0.43400730734E+02  0.00000000000E+00 0.  1.
         11    1    3    3    0    0  0.11381283035E+02 -0.46958533053E+01 -0.30847483658E+02  0.33213730445E+02  0.51100000000E-03 0. -1.
        -11    1    3    3    0    0 -0.10050094758E+01  0.64173132377E+01 -0.77637510859E+01  0.10122637227E+02  0.51100000000E-03 0.  1.
         12    1    3    3    0    0 -0.76386335468E+00 -0.23419163197E+01 -0.37070831836E+01  0.44509015944E+01  0.00000000000E+00 0. -1.
</event>
<event>
 7    1  0.2598019E-009  0.4778728E+02  0.7816164E-02  0.1312668E+00
        -11   -1    0    0    0    0  0.00000000000E+00  0.00000000000E+00  0.45593999997E+02  0.45594000000E+02  0.51100000000E-03 0.  1.
         11   -1    0    0    0    0 -0.00000000000E+00 -0.00000000000E+00 -0.45593999997E+02  0.45594000000E+02  0.51100000000E-03 0. -1.
    9900012    2    1    2    0    0 -0.31219356413E+02 -0.76279966296E+01 -0.29168274398E+02  0.47787276748E+02  0.20000026006E+02 0.  0.
        -12    1    1    2    0    0  0.31219356413E+02  0.76279966296E+01  0.29168274398E+02  0.43400723252E+02  0.00000000000E+00 0.  1.
         11    1    3    3    0    0 -0.11950138574E+02 -0.54900309083E+01 -0.15329527954E+02  0.20197541407E+02  0.51100000000E-03 0. -1.
        -11    1    3    3    0    0 -0.53507453724E+01  0.49309401949E+01 -0.93459510659E+00  0.73360831184E+01  0.51100000000E-03 0.  1.
        -12    1    3    3    0    0 -0.13918472466E+02 -0.70689059162E+01 -0.12904151337E+02  0.20253652223E+02  0.00000000000E+00 0.  1.
</event>
<event>
 7    1  0.2598019E-009  0.4778727E+02  0.7816164E-02  0.1312668E+00
        -11   -1    0    0    0    0  0.00000000000E+00  0.00000000000E+00  0.45593999997E+02  0.45594000000E+02  0.51100000000E-03 0.  1.
         11   -1    0    0    0    0 -0.00000000000E+00 -0.00000000000E+00 -0.45593999997E+02  0.45594000000E+02  0.51100000000E-03 0. -1.
    9900012    2    1    2    0    0  0.22141476541E+02  0.21508455930E+02 -0.30508430670E+02  0.47787274178E+02  0.20000014288E+02 0.  0.
        -12    1    1    2    0    0 -0.22141476541E+02 -0.21508455930E+02  0.30508430670E+02  0.43400725822E+02  0.00000000000E+00 0.  1.
         11    1    3    3    0    0  0.94538854819E+01  0.16028250149E+02 -0.92047957323E+01  0.20760756688E+02  0.51100000000E-03 0. -1.
        -11    1    3    3    0    0  0.12481029459E+02  0.14269143554E+01 -0.15691474294E+02  0.20100610606E+02  0.51100000000E-03 0.  1.
        -12    1    3    3    0    0  0.20656160009E+00  0.40532914257E+01 -0.56121606434E+01  0.69259068839E+01  0.00000000000E+00 0.  1.
</event>
<event>
 7    1  0.2598019E-009  0.4778728E+02  0.7816164E-02  0.1312668E+00
        -11   -1    0    0    0    0  0.00000000000E+00  0.00000000000E+00  0.45593999997E+02  0.45594000000E+02  0.51100000000E-03 0.  1.
         11   -1    0    0    0    0 -0.00000000000E+00 -0.00000000000E+00 -0.45593999997E+02  0.45594000000E+02  0.51100000000E-03 0. -1.
    9900012    2    1    2    0    0  0.29000237714E+02 -0.31539756538E+02 -0.69175753735E+01  0.47787275593E+02  0.20000020739E+02 0.  0.
        -12    1    1    2    0    0 -0.29000237714E+02  0.31539756538E+02  0.69175753735E+01  0.43400724407E+02  0.00000000000E+00 0.  1.
         11    1    3    3    0    0  0.90459047726E+01 -0.17613757839E+02 -0.85800779123E+01  0.21579865514E+02  0.51100000000E-03 0. -1.
        -11    1    3    3    0    0  0.18824189045E+02 -0.15268209427E+02  0.79681635678E+00  0.24250839756E+02  0.51100000000E-03 0.  1.
        -12    1    3    3    0    0  0.11301438966E+01  0.13422107273E+01  0.86568618196E+00  0.19565703231E+01  0.00000000000E+00 0.  1.
</event>
<event>
 7    1  0.2598019E-009  0.4778727E+02  0.7816164E-02  0.1312668E+00
        -11   -1    0    0    0    0  0.00000000000E+00  0.00000000000E+00  0.45593999997E+02  0.45594000000E+02  0.51100000000E-03 0.  1.
         11   -1    0    0    0    0 -0.00000000000E+00 -0.00000000000E+00 -0.45593999997E+02  0.45594000000E+02  0.51100000000E-03 0. -1.
    9900012    2    1    2    0    0  0.27338606228E+02  0.29040083515E+02 -0.17114251450E+02  0.47787269088E+02  0.19999991078E+02 0.  0.
        -12    1    1    2    0    0 -0.27338606228E+02 -0.29040083515E+02  0.17114251450E+02  0.43400730912E+02  0.00000000000E+00 0.  1.
         11    1    3    3    0    0  0.28675148122E+01  0.16854473166E+00  0.14173851026E+01  0.32031280516E+01  0.51100000000E-03 0. -1.
        -11    1    3    3    0    0 -0.63409882911E+00 -0.11662832337E+01 -0.11288820779E+01  0.17426052087E+01  0.51100000000E-03 0.  1.
         12    1    3    3    0    0  0.25105190245E+02  0.30037822017E+02 -0.17402754475E+02  0.42841535827E+02  0.00000000000E+00 0. -1.
</event>
<event>
 7    1  0.2598019E-009  0.4778727E+02  0.7816164E-02  0.1312668E+00
        -11   -1    0    0    0    0  0.00000000000E+00  0.00000000000E+00  0.45593999997E+02  0.45594000000E+02  0.51100000000E-03 0. -1.
         11   -1    0    0    0    0 -0.00000000000E+00 -0.00000000000E+00 -0.45593999997E+02  0.45594000000E+02  0.51100000000E-03 0.  1.
    9900012    2    1    2    0    0 -0.30132719006E+02  0.28177138291E+02 -0.13479301609E+02  0.47787269029E+02  0.19999990811E+02 0.  0.
        -12    1    1    2    0    0  0.30132719006E+02 -0.28177138291E+02  0.13479301609E+02  0.43400730971E+02  0.00000000000E+00 0.  1.
         11    1    3    3    0    0 -0.15889298524E+02  0.10882646136E+02 -0.90784874675E+01  0.21291329913E+02  0.51100000000E-03 0. -1.
        -11    1    3    3    0    0 -0.11230540391E+02  0.18807532984E+02 -0.13466397944E+01  0.21946794149E+02  0.51100000000E-03 0.  1.
        -12    1    3    3    0    0 -0.30128800913E+01 -0.15130408290E+01 -0.30541743471E+01  0.45491449677E+01  0.00000000000E+00 0.  1.
</event>
<event>
 7    1  0.2598019E-009  0.4778727E+02  0.7816164E-02  0.1312668E+00
        -11   -1    0    0    0    0  0.00000000000E+00  0.00000000000E+00  0.45593999997E+02  0.45594000000E+02  0.51100000000E-03 0.  1.
         11   -1    0    0    0    0 -0.00000000000E+00 -0.00000000000E+00 -0.45593999997E+02  0.45594000000E+02  0.51100000000E-03 0. -1.
    9900012    2    1    2    0    0 -0.25796439372E+01 -0.48205202959E+01 -0.43054981221E+02  0.47787269745E+02  0.19999994074E+02 0.  0.
        -12    1    1    2    0    0  0.25796439372E+01  0.48205202959E+01  0.43054981221E+02  0.43400730255E+02  0.00000000000E+00 0.  1.
         11    1    3    3    0    0  0.57892475403E+01 -0.21016222422E+01 -0.29144834527E+02  0.29788480709E+02  0.51100000000E-03 0. -1.
        -11    1    3    3    0    0 -0.90817871316E+01 -0.76469926040E+00 -0.12562190585E+02  0.15520059762E+02  0.51100000000E-03 0.  1.
        -12    1    3    3    0    0  0.71289565412E+00 -0.19541987933E+01 -0.13479561099E+01  0.24787292735E+01  0.00000000000E+00 0.  1.
</event>
<event>
 7    1  0.2598019E-009  0.4778727E+02  0.7816164E-02  0.1312668E+00
        -11   -1    0    0    0    0  0.00000000000E+00  0.00000000000E+00  0.45593999997E+02  0.45594000000E+02  0.51100000000E-03 0.  1.
         11   -1    0    0    0    0 -0.00000000000E+00 -0.00000000000E+00 -0.45593999997E+02  0.45594000000E+02  0.51100000000E-03 0. -1.
    9900012    2    1    2    0    0  0.11413088591E+02 -0.76852478940E+01 -0.41161896111E+02  0.47787270538E+02  0.19999997691E+02 0.  0.
        -12    1    1    2    0    0 -0.11413088591E+02  0.76852478940E+01  0.41161896111E+02  0.43400729462E+02  0.00000000000E+00 0.  1.
         11    1    3    3    0    0  0.10803840891E+02 -0.48230366303E+01 -0.98838581555E+01  0.15416721851E+02  0.51100000000E-03 0. -1.
        -11    1    3    3    0    0 -0.33499529305E+00  0.13974345875E+01 -0.93274627063E+00  0.17132020135E+01  0.51100000000E-03 0.  1.
         12    1    3    3    0    0  0.94424299302E+00 -0.42596458512E+01 -0.30345291685E+02  0.30657346673E+02  0.00000000000E+00 0. -1.
</event>
<event>
 7    1  0.2598019E-009  0.4778727E+02  0.7816164E-02  0.1312668E+00
        -11   -1    0    0    0    0  0.00000000000E+00  0.00000000000E+00  0.45593999997E+02  0.45594000000E+02  0.51100000000E-03 0. -1.
         11   -1    0    0    0    0 -0.00000000000E+00 -0.00000000000E+00 -0.45593999997E+02  0.45594000000E+02  0.51100000000E-03 0.  1.
    9900012    2    1    2    0    0 -0.85447218292E+01 -0.40927676161E+02  0.11642001270E+02  0.47787272579E+02  0.20000006998E+02 0.  0.
        -12    1    1    2    0    0  0.85447218292E+01  0.40927676161E+02 -0.11642001270E+02  0.43400727421E+02  0.00000000000E+00 0.  1.
         11    1    3    3    0    0 -0.98765437792E+01 -0.14214007757E+02  0.95147223095E+01  0.19751305638E+02  0.51100000000E-03 0. -1.
        -11    1    3    3    0    0 -0.75160255271E+00 -0.18086809667E+02  0.48716131831E+01  0.18746471817E+02  0.51100000000E-03 0.  1.
         12    1    3    3    0    0  0.20834245027E+01 -0.86268587369E+01 -0.27443342227E+01  0.92894951236E+01  0.00000000000E+00 0. -1.
</event>
<event>
 7    1  0.2598019E-009  0.4778727E+02  0.7816164E-02  0.1312668E+00
        -11   -1    0    0    0    0  0.00000000000E+00  0.00000000000E+00  0.45593999997E+02  0.45594000000E+02  0.51100000000E-03 0. -1.
         11   -1    0    0    0    0 -0.00000000000E+00 -0.00000000000E+00 -0.45593999997E+02  0.45594000000E+02  0.51100000000E-03 0.  1.
    9900012    2    1    2    0    0 -0.37663174386E+01  0.38692076288E+01  0.43063531423E+02  0.47787266673E+02  0.19999980068E+02 0.  0.
        -12    1    1    2    0    0  0.37663174386E+01 -0.38692076288E+01 -0.43063531423E+02  0.43400733327E+02  0.00000000000E+00 0.  1.
         11    1    3    3    0    0 -0.96048587168E+01 -0.13446091004E+01  0.29109707690E+02  0.30682835050E+02  0.51100000000E-03 0. -1.
        -11    1    3    3    0    0  0.69828237143E+01  0.34519734703E+01  0.10857499442E+02  0.13362680954E+02  0.51100000000E-03 0.  1.
         12    1    3    3    0    0 -0.11442824361E+01  0.17618432588E+01  0.30963242902E+01  0.37417506694E+01  0.00000000000E+00 0. -1.
</event>
<event>
 7    1  0.2598019E-009  0.4778727E+02  0.7816164E-02  0.1312668E+00
        -11   -1    0    0    0    0  0.00000000000E+00  0.00000000000E+00  0.45593999997E+02  0.45594000000E+02  0.51100000000E-03 0.  1.
         11   -1    0    0    0    0 -0.00000000000E+00 -0.00000000000E+00 -0.45593999997E+02  0.45594000000E+02  0.51100000000E-03 0. -1.
    9900012    2    1    2    0    0 -0.34127251744E+02 -0.26608042479E+02 -0.33114890445E+01  0.47787271943E+02  0.20000004098E+02 0.  0.
        -12    1    1    2    0    0  0.34127251744E+02  0.26608042479E+02  0.33114890445E+01  0.43400728057E+02  0.00000000000E+00 0.  1.
         11    1    3    3    0    0 -0.14694234054E+02 -0.19288976435E+02 -0.17608843017E+01  0.24312256994E+02  0.51100000000E-03 0. -1.
        -11    1    3    3    0    0 -0.19942265289E+02 -0.76473775000E+01 -0.33108773313E+01  0.21613380958E+02  0.51100000000E-03 0.  1.
        -12    1    3    3    0    0  0.50924759909E+00  0.32831145663E+00  0.17602725884E+01  0.18616339907E+01  0.00000000000E+00 0.  1.
</event>
<event>
 7    1  0.2598019E-009  0.4778727E+02  0.7816164E-02  0.1312668E+00
        -11   -1    0    0    0    0  0.00000000000E+00  0.00000000000E+00  0.45593999997E+02  0.45594000000E+02  0.51100000000E-03 0.  1.
         11   -1    0    0    0    0 -0.00000000000E+00 -0.00000000000E+00 -0.45593999997E+02  0.45594000000E+02  0.51100000000E-03 0. -1.
    9900012    2    1    2    0    0 -0.73027420583E+01 -0.52500905606E+01 -0.42458565314E+02  0.47787271193E+02  0.20000000676E+02 0.  0.
        -12    1    1    2    0    0  0.73027420583E+01  0.52500905606E+01  0.42458565314E+02  0.43400728807E+02  0.00000000000E+00 0.  1.
         11    1    3    3    0    0 -0.11910952497E+02 -0.23423141656E+01 -0.17544994550E+02  0.21335042982E+02  0.51100000000E-03 0. -1.
        -11    1    3    3    0    0  0.35012694645E+01  0.11768880250E+01 -0.58043683326E+01  0.68800178261E+01  0.51100000000E-03 0.  1.
         12    1    3    3    0    0  0.11069409746E+01 -0.40846644199E+01 -0.19109202432E+02  0.19572210384E+02  0.00000000000E+00 0. -1.
</event>
<event>
 7    1  0.2598019E-009  0.4778727E+02  0.7816164E-02  0.1312668E+00
        -11   -1    0    0    0    0  0.00000000000E+00  0.00000000000E+00  0.45593999997E+02  0.45594000000E+02  0.51100000000E-03 0. -1.
         11   -1    0    0    0    0 -0.00000000000E+00 -0.00000000000E+00 -0.45593999997E+02  0.45594000000E+02  0.51100000000E-03 0.  1.
    9900012    2    1    2    0    0 -0.38768263360E+02  0.84682032167E+01  0.17576546217E+02  0.47787266290E+02  0.19999978321E+02 0.  0.
        -12    1    1    2    0    0  0.38768263360E+02 -0.84682032167E+01 -0.17576546217E+02  0.43400733710E+02  0.00000000000E+00 0.  1.
         11    1    3    3    0    0 -0.14021254107E+02  0.10292074491E+02  0.11452222635E+02  0.20824883376E+02  0.51100000000E-03 0. -1.
        -11    1    3    3    0    0 -0.12503455736E+02 -0.52231768312E+01  0.30895267557E+01  0.13898314912E+02  0.51100000000E-03 0.  1.
        -12    1    3    3    0    0 -0.12243553517E+02  0.33993055569E+01  0.30347968262E+01  0.13064068002E+02  0.00000000000E+00 0.  1.
</event>
<event>
 7    1  0.2598019E-009  0.4778727E+02  0.7816164E-02  0.1312668E+00
        -11   -1    0    0    0    0  0.00000000000E+00  0.00000000000E+00  0.45593999997E+02  0.45594000000E+02  0.51100000000E-03 0. -1.
         11   -1    0    0    0    0 -0.00000000000E+00 -0.00000000000E+00 -0.45593999997E+02  0.45594000000E+02  0.51100000000E-03 0.  1.
    9900012    2    1    2    0    0  0.15569120470E+01  0.33852095445E+02  0.27115216926E+02  0.47787270397E+02  0.19999997047E+02 0.  0.
        -12    1    1    2    0    0 -0.15569120470E+01 -0.33852095445E+02 -0.27115216926E+02  0.43400729603E+02  0.00000000000E+00 0.  1.
         11    1    3    3    0    0  0.19232601791E+01  0.30978795981E+02  0.29227425797E+02  0.42633638704E+02  0.51100000000E-03 0. -1.
        -11    1    3    3    0    0 -0.98942074473E+00  0.28618354311E+01 -0.28703192375E+01  0.41722641612E+01  0.51100000000E-03 0.  1.
        -12    1    3    3    0    0  0.62307261265E+00  0.11464033214E-01  0.75811036592E+00  0.98136753136E+00  0.00000000000E+00 0.  1.
</event>
<event>
 7    1  0.2598019E-009  0.4778728E+02  0.7816164E-02  0.1312668E+00
        -11   -1    0    0    0    0  0.00000000000E+00  0.00000000000E+00  0.45593999997E+02  0.45594000000E+02  0.51100000000E-03 0.  1.
         11   -1    0    0    0    0 -0.00000000000E+00 -0.00000000000E+00 -0.45593999997E+02  0.45594000000E+02  0.51100000000E-03 0. -1.
    9900012    2    1    2    0    0 -0.25081257415E+02  0.12842299300E+02 -0.33009518335E+02  0.47787280818E+02  0.20000044560E+02 0.  0.
        -12    1    1    2    0    0  0.25081257415E+02 -0.12842299300E+02  0.33009518335E+02  0.43400719182E+02  0.00000000000E+00 0.  1.
         11    1    3    3    0    0 -0.15948544462E+01  0.74691369463E+01 -0.45446408552E+01  0.88873690252E+01  0.51100000000E-03 0.  1.
        -11    1    3    3    0    0 -0.12103979102E+02 -0.28788914963E+01 -0.12765630080E+02  0.17825701611E+02  0.51100000000E-03 0. -1.
         12    1    3    3    0    0 -0.11382423867E+02  0.82520538496E+01 -0.15699247400E+02  0.21074210181E+02  0.00000000000E+00 0. -1.
</event>
<event>
 7    1  0.2598019E-009  0.4778727E+02  0.7816164E-02  0.1312668E+00
        -11   -1    0    0    0    0  0.00000000000E+00  0.00000000000E+00  0.45593999997E+02  0.45594000000E+02  0.51100000000E-03 0.  1.
         11   -1    0    0    0    0 -0.00000000000E+00 -0.00000000000E+00 -0.45593999997E+02  0.45594000000E+02  0.51100000000E-03 0. -1.
    9900012    2    1    2    0    0  0.52232179445E+01  0.17422193888E+02 -0.39405687066E+02  0.47787273984E+02  0.20000013405E+02 0.  0.
        -12    1    1    2    0    0 -0.52232179445E+01 -0.17422193888E+02  0.39405687066E+02  0.43400726016E+02  0.00000000000E+00 0.  1.
         11    1    3    3    0    0  0.77276449237E+01  0.47533267421E+01 -0.16181567871E+02  0.18551381355E+02  0.51100000000E-03 0. -1.
        -11    1    3    3    0    0 -0.56254066838E+01  0.52006412299E+01 -0.18104102338E+02  0.19658341519E+02  0.51100000000E-03 0.  1.
        -12    1    3    3    0    0  0.31209797047E+01  0.74682259158E+01 -0.51200168572E+01  0.95775511100E+01  0.00000000000E+00 0.  1.
</event>
<event>
 7    1  0.2598019E-009  0.4778729E+02  0.7816164E-02  0.1312668E+00
        -11   -1    0    0    0    0  0.00000000000E+00  0.00000000000E+00  0.45593999997E+02  0.45594000000E+02  0.51100000000E-03 0. -1.
         11   -1    0    0    0    0 -0.00000000000E+00 -0.00000000000E+00 -0.45593999997E+02  0.45594000000E+02  0.51100000000E-03 0.  1.
    9900012    2    1    2    0    0  0.33621778744E+02  0.13720566799E+02  0.23768543742E+02  0.47787289973E+02  0.20000086303E+02 0.  0.
        -12    1    1    2    0    0 -0.33621778744E+02 -0.13720566799E+02 -0.23768543742E+02  0.43400710027E+02  0.00000000000E+00 0.  1.
         11    1    3    3    0    0  0.16953384379E+02  0.95911245084E+01  0.13954398437E+02  0.23961054802E+02  0.51100000000E-03 0. -1.
        -11    1    3    3    0    0  0.75524049445E+01  0.45190088311E+01 -0.18739116585E+01  0.89984335540E+01  0.51100000000E-03 0.  1.
        -12    1    3    3    0    0  0.91159894212E+01 -0.38956654020E+00  0.11688056964E+02  0.14827801617E+02  0.00000000000E+00 0.  1.
</event>
<event>
 7    1  0.2598019E-009  0.4778726E+02  0.7816164E-02  0.1312668E+00
        -11   -1    0    0    0    0  0.00000000000E+00  0.00000000000E+00  0.45593999997E+02  0.45594000000E+02  0.51100000000E-03 0.  1.
         11   -1    0    0    0    0 -0.00000000000E+00 -0.00000000000E+00 -0.45593999997E+02  0.45594000000E+02  0.51100000000E-03 0. -1.
    9900012    2    1    2    0    0 -0.13535883382E+02 -0.35686412541E+02 -0.20661163137E+02  0.47787264509E+02  0.19999970204E+02 0.  0.
        -12    1    1    2    0    0  0.13535883382E+02  0.35686412541E+02  0.20661163137E+02  0.43400735491E+02  0.00000000000E+00 0.  1.
         11    1    3    3    0    0 -0.11821175839E+02 -0.25557254366E+02 -0.98603340067E+01  0.29835207992E+02  0.51100000000E-03 0. -1.
        -11    1    3    3    0    0 -0.14773905138E+01  0.12985407051E+01 -0.44749615881E+01  0.48881665448E+01  0.51100000000E-03 0.  1.
        -12    1    3    3    0    0 -0.23731702949E+00 -0.11427698880E+02 -0.63258675417E+01  0.13063889973E+02  0.00000000000E+00 0.  1.
</event>
<event>
 7    1  0.2598019E-009  0.4778728E+02  0.7816164E-02  0.1312668E+00
        -11   -1    0    0    0    0  0.00000000000E+00  0.00000000000E+00  0.45593999997E+02  0.45594000000E+02  0.51100000000E-03 0.  1.
         11   -1    0    0    0    0 -0.00000000000E+00 -0.00000000000E+00 -0.45593999997E+02  0.45594000000E+02  0.51100000000E-03 0. -1.
    9900012    2    1    2    0    0  0.90707811587E+01  0.23106432119E+02 -0.35601072465E+02  0.47787278384E+02  0.20000033466E+02 0.  0.
        -12    1    1    2    0    0 -0.90707811587E+01 -0.23106432119E+02  0.35601072465E+02  0.43400721616E+02  0.00000000000E+00 0.  1.
         11    1    3    3    0    0  0.10608879330E+02  0.11094973975E+02 -0.14478398291E+02  0.21101440365E+02  0.51100000000E-03 0. -1.
        -11    1    3    3    0    0 -0.27430081536E+01 -0.24852792054E+00 -0.71057777253E+00  0.28444298005E+01  0.51100000000E-03 0.  1.
        -12    1    3    3    0    0  0.12049099826E+01  0.12259986064E+02 -0.20412096402E+02  0.23841408219E+02  0.00000000000E+00 0.  1.
</event>
<event>
 7    1  0.2598019E-009  0.4778728E+02  0.7816164E-02  0.1312668E+00
        -11   -1    0    0    0    0  0.00000000000E+00  0.00000000000E+00  0.45593999997E+02  0.45594000000E+02  0.51100000000E-03 0.  1.
         11   -1    0    0    0    0 -0.00000000000E+00 -0.00000000000E+00 -0.45593999997E+02  0.45594000000E+02  0.51100000000E-03 0. -1.
    9900012    2    1    2    0    0 -0.33048938390E+02  0.23214888686E+02 -0.15888975009E+02  0.47787275211E+02  0.20000018996E+02 0.  0.
        -12    1    1    2    0    0  0.33048938390E+02 -0.23214888686E+02  0.15888975009E+02  0.43400724789E+02  0.00000000000E+00 0.  1.
         11    1    3    3    0    0 -0.19970137034E+02  0.16187633302E+02 -0.14190764724E+01  0.25746060346E+02  0.51100000000E-03 0. -1.
        -11    1    3    3    0    0  0.38004333873E+00  0.22759516847E+01 -0.14735456058E+01  0.27378323403E+01  0.51100000000E-03 0.  1.
         12    1    3    3    0    0 -0.13458844695E+02  0.47513036989E+01 -0.12996352931E+02  0.19303382524E+02  0.00000000000E+00 0. -1.
</event>
<event>
 7    1  0.2598019E-009  0.4778727E+02  0.7816164E-02  0.1312668E+00
        -11   -1    0    0    0    0  0.00000000000E+00  0.00000000000E+00  0.45593999997E+02  0.45594000000E+02  0.51100000000E-03 0.  1.
         11   -1    0    0    0    0 -0.00000000000E+00 -0.00000000000E+00 -0.45593999997E+02  0.45594000000E+02  0.51100000000E-03 0. -1.
    9900012    2    1    2    0    0  0.23886419501E+02 -0.17915122098E+02 -0.31497783222E+02  0.47787274381E+02  0.20000015214E+02 0.  0.
        -12    1    1    2    0    0 -0.23886419501E+02  0.17915122098E+02  0.31497783222E+02  0.43400725619E+02  0.00000000000E+00 0.  1.
         11    1    3    3    0    0 -0.17780725599E+01 -0.38499465616E+01 -0.82220756273E+01  0.92512787461E+01  0.51100000000E-03 0. -1.
        -11    1    3    3    0    0  0.10652327356E+02 -0.12089334726E+01 -0.10471162095E+02  0.14985954562E+02  0.51100000000E-03 0.  1.
         12    1    3    3    0    0  0.15012164704E+02 -0.12856242064E+02 -0.12804545500E+02  0.23550041074E+02  0.00000000000E+00 0. -1.
</event>
<event>
 7    1  0.2598019E-009  0.4778727E+02  0.7816164E-02  0.1312668E+00
        -11   -1    0    0    0    0  0.00000000000E+00  0.00000000000E+00  0.45593999997E+02  0.45594000000E+02  0.51100000000E-03 0. -1.
         11   -1    0    0    0    0 -0.00000000000E+00 -0.00000000000E+00 -0.45593999997E+02  0.45594000000E+02  0.51100000000E-03 0.  1.
    9900012    2    1    2    0    0  0.14128602798E+02 -0.28739628734E+02  0.29292307378E+02  0.47787274795E+02  0.20000017100E+02 0.  0.
        -12    1    1    2    0    0 -0.14128602798E+02  0.28739628734E+02 -0.29292307378E+02  0.43400725205E+02  0.00000000000E+00 0.  1.
         11    1    3    3    0    0  0.32061997724E+00 -0.48957369578E+01  0.33836251913E+01  0.59598621818E+01  0.51100000000E-03 0. -1.
        -11    1    3    3    0    0  0.59093657193E+00 -0.64895245832E+00 -0.26157215380E+01  0.27590477978E+01  0.51100000000E-03 0.  1.
        -12    1    3    3    0    0  0.13217046248E+02 -0.23194939318E+02  0.28524403725E+02  0.39068364815E+02  0.00000000000E+00 0.  1.
</event>
<event>
 7    1  0.2598019E-009  0.4778726E+02  0.7816164E-02  0.1312668E+00
        -11   -1    0    0    0    0  0.00000000000E+00  0.00000000000E+00  0.45593999997E+02  0.45594000000E+02  0.51100000000E-03 0. -1.
         11   -1    0    0    0    0 -0.00000000000E+00 -0.00000000000E+00 -0.45593999997E+02  0.45594000000E+02  0.51100000000E-03 0.  1.
    9900012    2    1    2    0    0  0.18045835236E+02 -0.37559329781E+02  0.12135423596E+02  0.47787263499E+02  0.19999965597E+02 0.  0.
        -12    1    1    2    0    0 -0.18045835236E+02  0.37559329781E+02 -0.12135423596E+02  0.43400736501E+02  0.00000000000E+00 0.  1.
         11    1    3    3    0    0  0.48426436652E+01 -0.12218277156E+02  0.46125340178E+01  0.13928853673E+02  0.51100000000E-03 0. -1.
        -11    1    3    3    0    0  0.12304867242E+02 -0.89854103999E+01  0.85036785650E+01  0.17448779536E+02  0.51100000000E-03 0.  1.
        -12    1    3    3    0    0  0.89832432934E+00 -0.16355642226E+02 -0.98078898697E+00  0.16409630290E+02  0.00000000000E+00 0.  1.
</event>
<event>
 7    1  0.2598019E-009  0.4778727E+02  0.7816164E-02  0.1312668E+00
        -11   -1    0    0    0    0  0.00000000000E+00  0.00000000000E+00  0.45593999997E+02  0.45594000000E+02  0.51100000000E-03 0. -1.
         11   -1    0    0    0    0 -0.00000000000E+00 -0.00000000000E+00 -0.45593999997E+02  0.45594000000E+02  0.51100000000E-03 0.  1.
    9900012    2    1    2    0    0  0.13963921421E+02 -0.19686990026E+02  0.36070130146E+02  0.47787274586E+02  0.20000016147E+02 0.  0.
        -12    1    1    2    0    0 -0.13963921421E+02  0.19686990026E+02 -0.36070130146E+02  0.43400725414E+02  0.00000000000E+00 0.  1.
         11    1    3    3    0    0 -0.43463914468E+01 -0.44508281066E+01  0.65304811392E+01  0.90193222369E+01  0.51100000000E-03 0. -1.
        -11    1    3    3    0    0 -0.77934373678E+00 -0.20551033869E+00  0.10787102467E+01  0.13465612563E+01  0.51100000000E-03 0.  1.
         12    1    3    3    0    0  0.19089656605E+02 -0.15030651580E+02  0.28460938760E+02  0.37421391093E+02  0.00000000000E+00 0. -1.
</event>
<event>
 7    1  0.2598019E-009  0.4778728E+02  0.7816164E-02  0.1312668E+00
        -11   -1    0    0    0    0  0.00000000000E+00  0.00000000000E+00  0.45593999997E+02  0.45594000000E+02  0.51100000000E-03 0.  1.
         11   -1    0    0    0    0 -0.00000000000E+00 -0.00000000000E+00 -0.45593999997E+02  0.45594000000E+02  0.51100000000E-03 0. -1.
    9900012    2    1    2    0    0  0.74124498283E+01  0.23423470308E+02 -0.35777359335E+02  0.47787276334E+02  0.20000024119E+02 0.  0.
        -12    1    1    2    0    0 -0.74124498283E+01 -0.23423470308E+02  0.35777359335E+02  0.43400723666E+02  0.00000000000E+00 0.  1.
         11    1    3    3    0    0  0.39139955824E+01  0.15268517173E+02 -0.11592503507E+02  0.19566121637E+02  0.51100000000E-03 0. -1.
        -11    1    3    3    0    0  0.64083487401E+01  0.88366079742E+01 -0.14923750210E+02  0.18489751071E+02  0.51100000000E-03 0.  1.
         12    1    3    3    0    0 -0.29098944942E+01 -0.68165483920E+00 -0.92611056171E+01  0.97314036263E+01  0.00000000000E+00 0. -1.
</event>
<event>
 7    1  0.2598019E-009  0.4778727E+02  0.7816164E-02  0.1312668E+00
        -11   -1    0    0    0    0  0.00000000000E+00  0.00000000000E+00  0.45593999997E+02  0.45594000000E+02  0.51100000000E-03 0.  1.
         11   -1    0    0    0    0 -0.00000000000E+00 -0.00000000000E+00 -0.45593999997E+02  0.45594000000E+02  0.51100000000E-03 0. -1.
    9900012    2    1    2    0    0 -0.24992980821E+02  0.47174211018E+01 -0.35167028857E+02  0.47787273384E+02  0.20000010667E+02 0.  0.
        -12    1    1    2    0    0  0.24992980821E+02 -0.47174211018E+01  0.35167028857E+02  0.43400726616E+02  0.00000000000E+00 0.  1.
         11    1    3    3    0    0 -0.22283726743E+02  0.38594233768E+00 -0.24558190812E+02  0.33163506529E+02  0.51100000000E-03 0. -1.
        -11    1    3    3    0    0 -0.19572881701E+01 -0.21771773521E+01 -0.57982156464E+01  0.64954124694E+01  0.51100000000E-03 0.  1.
         12    1    3    3    0    0 -0.75196590772E+00  0.65086561162E+01 -0.48106223981E+01  0.81283543859E+01  0.00000000000E+00 0. -1.
</event>
<event>
 7    1  0.2598019E-009  0.4778727E+02  0.7816164E-02  0.1312668E+00
        -11   -1    0    0    0    0  0.00000000000E+00  0.00000000000E+00  0.45593999997E+02  0.45594000000E+02  0.51100000000E-03 0. -1.
         11   -1    0    0    0    0 -0.00000000000E+00 -0.00000000000E+00 -0.45593999997E+02  0.45594000000E+02  0.51100000000E-03 0.  1.
    9900012    2    1    2    0    0  0.29223015136E+02 -0.31765512516E+02 -0.45377043750E+01  0.47787272356E+02  0.20000005979E+02 0.  0.
        -12    1    1    2    0    0 -0.29223015136E+02  0.31765512516E+02  0.45377043750E+01  0.43400727644E+02  0.00000000000E+00 0.  1.
         11    1    3    3    0    0  0.88973539326E+00  0.20025436336E+01 -0.26295742993E+01  0.34229331473E+01  0.51100000000E-03 0.  1.
        -11    1    3    3    0    0  0.17309003793E+02 -0.23497294038E+02 -0.62104226750E-01  0.29184384466E+02  0.51100000000E-03 0. -1.
        -12    1    3    3    0    0  0.11024275949E+02 -0.10270762112E+02 -0.18460258489E+01  0.15179954743E+02  0.00000000000E+00 0.  1.
</event>
<event>
 7    1  0.2598019E-009  0.4778728E+02  0.7816164E-02  0.1312668E+00
        -11   -1    0    0    0    0  0.00000000000E+00  0.00000000000E+00  0.45593999997E+02  0.45594000000E+02  0.51100000000E-03 0. -1.
         11   -1    0    0    0    0 -0.00000000000E+00 -0.00000000000E+00 -0.45593999997E+02  0.45594000000E+02  0.51100000000E-03 0.  1.
    9900012    2    1    2    0    0  0.26261793966E+02  0.33817643549E+02  0.70928105873E+01  0.47787276509E+02  0.20000024914E+02 0.  0.
        -12    1    1    2    0    0 -0.26261793966E+02 -0.33817643549E+02 -0.70928105873E+01  0.43400723491E+02  0.00000000000E+00 0.  1.
         11    1    3    3    0    0  0.14617255091E+02  0.28840563935E+02 -0.23159744650E+00  0.32334129216E+02  0.51100000000E-03 0. -1.
        -11    1    3    3    0    0  0.53635359249E+01  0.43800933979E+00  0.50425116344E+01  0.73747063428E+01  0.51100000000E-03 0.  1.
         12    1    3    3    0    0  0.62810029495E+01  0.45390702747E+01  0.22818963994E+01  0.80784409503E+01  0.00000000000E+00 0. -1.
</event>
<event>
 7    1  0.2598019E-009  0.4778727E+02  0.7816164E-02  0.1312668E+00
        -11   -1    0    0    0    0  0.00000000000E+00  0.00000000000E+00  0.45593999997E+02  0.45594000000E+02  0.51100000000E-03 0.  1.
         11   -1    0    0    0    0 -0.00000000000E+00 -0.00000000000E+00 -0.45593999997E+02  0.45594000000E+02  0.51100000000E-03 0. -1.
    9900012    2    1    2    0    0 -0.39422596587E+02 -0.18141812966E+02 -0.59720738379E+00  0.47787272403E+02  0.20000006193E+02 0.  0.
        -12    1    1    2    0    0  0.39422596587E+02  0.18141812966E+02  0.59720738379E+00  0.43400727597E+02  0.00000000000E+00 0.  1.
         11    1    3    3    0    0 -0.89348905700E+01  0.34882877028E+01  0.65212328005E+00  0.96138278344E+01  0.51100000000E-03 0. -1.
        -11    1    3    3    0    0 -0.89476526172E-01 -0.14540002316E+01 -0.85008067187E+00  0.16866416727E+01  0.51100000000E-03 0.  1.
         12    1    3    3    0    0 -0.30398229490E+02 -0.20176100437E+02 -0.39924999198E+00  0.36486802896E+02  0.00000000000E+00 0. -1.
</event>
<event>
 7    1  0.2598019E-009  0.4778727E+02  0.7816164E-02  0.1312668E+00
        -11   -1    0    0    0    0  0.00000000000E+00  0.00000000000E+00  0.45593999997E+02  0.45594000000E+02  0.51100000000E-03 0. -1.
         11   -1    0    0    0    0 -0.00000000000E+00 -0.00000000000E+00 -0.45593999997E+02  0.45594000000E+02  0.51100000000E-03 0.  1.
    9900012    2    1    2    0    0 -0.46205843887E+01 -0.42832130331E+01  0.42940980934E+02  0.47787267776E+02  0.19999985097E+02 0.  0.
        -12    1    1    2    0    0  0.46205843887E+01  0.42832130331E+01 -0.42940980934E+02  0.43400732224E+02  0.00000000000E+00 0.  1.
         11    1    3    3    0    0 -0.15759027139E+01  0.65842134625E+00  0.35054858122E+02  0.35096439510E+02  0.51100000000E-03 0. -1.
        -11    1    3    3    0    0  0.19736955858E+00  0.13853551595E+01  0.46933697686E+01  0.48975385355E+01  0.51100000000E-03 0.  1.
         12    1    3    3    0    0 -0.32420512334E+01 -0.63269895389E+01  0.31927530434E+01  0.77932897303E+01  0.00000000000E+00 0. -1.
</event>
<event>
 7    1  0.2598019E-009  0.4778727E+02  0.7816164E-02  0.1312668E+00
        -11   -1    0    0    0    0  0.00000000000E+00  0.00000000000E+00  0.45593999997E+02  0.45594000000E+02  0.51100000000E-03 0.  1.
         11   -1    0    0    0    0 -0.00000000000E+00 -0.00000000000E+00 -0.45593999997E+02  0.45594000000E+02  0.51100000000E-03 0. -1.
    9900012    2    1    2    0    0 -0.51856298344E+01  0.16212403841E+01 -0.43059305531E+02  0.47787274546E+02  0.20000015963E+02 0.  0.
        -12    1    1    2    0    0  0.51856298344E+01 -0.16212403841E+01  0.43059305531E+02  0.43400725454E+02  0.00000000000E+00 0.  1.
         11    1    3    3    0    0 -0.21685885532E+01 -0.30821324015E+01 -0.48578648555E+01  0.61482654195E+01  0.51100000000E-03 0. -1.
        -11    1    3    3    0    0  0.24523282071E+01 -0.16808554461E+01 -0.29091035885E+02  0.29242564145E+02  0.51100000000E-03 0.  1.
        -12    1    3    3    0    0 -0.54693694883E+01  0.63842282317E+01 -0.91104047906E+01  0.12396444981E+02  0.00000000000E+00 0.  1.
</event>
<event>
 7    1  0.2598019E-009  0.4778727E+02  0.7816164E-02  0.1312668E+00
        -11   -1    0    0    0    0  0.00000000000E+00  0.00000000000E+00  0.45593999997E+02  0.45594000000E+02  0.51100000000E-03 0.  1.
         11   -1    0    0    0    0 -0.00000000000E+00 -0.00000000000E+00 -0.45593999997E+02  0.45594000000E+02  0.51100000000E-03 0. -1.
    9900012    2    1    2    0    0  0.48038954855E+01  0.42174129559E+02 -0.90492467268E+01  0.47787268644E+02  0.19999989055E+02 0.  0.
        -12    1    1    2    0    0 -0.48038954855E+01 -0.42174129559E+02  0.90492467268E+01  0.43400731356E+02  0.00000000000E+00 0.  1.
         11    1    3    3    0    0 -0.11804567801E+01  0.20297724489E+02 -0.78273251604E+01  0.21786649973E+02  0.51100000000E-03 0. -1.
        -11    1    3    3    0    0 -0.10320764425E+01  0.66226238756E+00  0.30179380892E+01  0.32575640936E+01  0.51100000000E-03 0.  1.
        -12    1    3    3    0    0  0.70164287081E+01  0.21214142683E+02 -0.42398596555E+01  0.22743054577E+02  0.00000000000E+00 0.  1.
</event>
<event>
 7    1  0.2598019E-009  0.4778727E+02  0.7816164E-02  0.1312668E+00
        -11   -1    0    0    0    0  0.00000000000E+00  0.00000000000E+00  0.45593999997E+02  0.45594000000E+02  0.51100000000E-03 0. -1.
         11   -1    0    0    0    0 -0.00000000000E+00 -0.00000000000E+00 -0.45593999997E+02  0.45594000000E+02  0.51100000000E-03 0.  1.
    9900012    2    1    2    0    0 -0.34566925203E+02 -0.14067626416E+02  0.22155197824E+02  0.47787271647E+02  0.20000002747E+02 0.  0.
        -12    1    1    2    0    0  0.34566925203E+02  0.14067626416E+02 -0.22155197824E+02  0.43400728353E+02  0.00000000000E+00 0.  1.
         11    1    3    3    0    0 -0.15314398964E+02 -0.44338832568E+01  0.14765146894E+02  0.21730156452E+02  0.51100000000E-03 0. -1.
        -11    1    3    3    0    0 -0.35794684002E+01 -0.85421212990E+00 -0.34758956851E+01  0.50620276042E+01  0.51100000000E-03 0.  1.
        -12    1    3    3    0    0 -0.15673057839E+02 -0.87795310293E+01  0.10865946616E+02  0.20995087591E+02  0.00000000000E+00 0.  1.
</event>
<event>
 7    1  0.2598019E-009  0.4778727E+02  0.7816164E-02  0.1312668E+00
        -11   -1    0    0    0    0  0.00000000000E+00  0.00000000000E+00  0.45593999997E+02  0.45594000000E+02  0.51100000000E-03 0.  1.
         11   -1    0    0    0    0 -0.00000000000E+00 -0.00000000000E+00 -0.45593999997E+02  0.45594000000E+02  0.51100000000E-03 0. -1.
    9900012    2    1    2    0    0  0.23090417667E+02  0.10617570989E+01 -0.36733207691E+02  0.47787271164E+02  0.20000000546E+02 0.  0.
        -12    1    1    2    0    0 -0.23090417667E+02 -0.10617570989E+01  0.36733207691E+02  0.43400728836E+02  0.00000000000E+00 0.  1.
         11    1    3    3    0    0  0.12647602497E+02 -0.16128254760E+01 -0.16516825655E+02  0.20865487891E+02  0.51100000000E-03 0. -1.
        -11    1    3    3    0    0  0.47961863637E+01 -0.28045255691E+01 -0.36488971183E+00  0.55679360687E+01  0.51100000000E-03 0.  1.
        -12    1    3    3    0    0  0.56466288069E+01  0.54791081439E+01 -0.19851492324E+02  0.21353847204E+02  0.00000000000E+00 0.  1.
</event>
<event>
 7    1  0.2598019E-009  0.4778727E+02  0.7816164E-02  0.1312668E+00
        -11   -1    0    0    0    0  0.00000000000E+00  0.00000000000E+00  0.45593999997E+02  0.45594000000E+02  0.51100000000E-03 0.  1.
         11   -1    0    0    0    0 -0.00000000000E+00 -0.00000000000E+00 -0.45593999997E+02  0.45594000000E+02  0.51100000000E-03 0. -1.
    9900012    2    1    2    0    0  0.40823125846E+02  0.35826453543E+00 -0.14729827898E+02  0.47787265131E+02  0.19999973038E+02 0.  0.
        -12    1    1    2    0    0 -0.40823125846E+02 -0.35826453543E+00  0.14729827898E+02  0.43400734869E+02  0.00000000000E+00 0.  1.
         11    1    3    3    0    0  0.35529877808E+02  0.41967188262E+01 -0.92534816485E+01  0.36954182291E+02  0.51100000000E-03 0. -1.
        -11    1    3    3    0    0  0.22830398195E+01  0.16494948463E+01 -0.55494566208E+00  0.28707262172E+01  0.51100000000E-03 0.  1.
         12    1    3    3    0    0  0.30102082184E+01 -0.54879491370E+01 -0.49214005870E+01  0.79623566227E+01  0.00000000000E+00 0. -1.
</event>
<event>
 7    1  0.2598019E-009  0.4778728E+02  0.7816164E-02  0.1312668E+00
        -11   -1    0    0    0    0  0.00000000000E+00  0.00000000000E+00  0.45593999997E+02  0.45594000000E+02  0.51100000000E-03 0.  1.
         11   -1    0    0    0    0 -0.00000000000E+00 -0.00000000000E+00 -0.45593999997E+02  0.45594000000E+02  0.51100000000E-03 0. -1.
    9900012    2    1    2    0    0  0.15801275353E+02  0.90893890246E+00 -0.40411832328E+02  0.47787278062E+02  0.20000031994E+02 0.  0.
        -12    1    1    2    0    0 -0.15801275353E+02 -0.90893890246E+00  0.40411832328E+02  0.43400721938E+02  0.00000000000E+00 0.  1.
         11    1    3    3    0    0 -0.17697610536E+01  0.45895222451E+01 -0.14786837018E+02  0.15583527132E+02  0.51100000000E-03 0. -1.
        -11    1    3    3    0    0  0.13121394186E+02 -0.20587218417E+00 -0.21586384659E+02  0.25262331081E+02  0.51100000000E-03 0.  1.
        -12    1    3    3    0    0  0.44496422208E+01 -0.34747111585E+01 -0.40386106510E+01  0.69414198489E+01  0.00000000000E+00 0.  1.
</event>
<event>
 7    1  0.2598019E-009  0.4778727E+02  0.7816164E-02  0.1312668E+00
        -11   -1    0    0    0    0  0.00000000000E+00  0.00000000000E+00  0.45593999997E+02  0.45594000000E+02  0.51100000000E-03 0.  1.
         11   -1    0    0    0    0 -0.00000000000E+00 -0.00000000000E+00 -0.45593999997E+02  0.45594000000E+02  0.51100000000E-03 0. -1.
    9900012    2    1    2    0    0  0.27456811477E+02  0.47302080278E+00 -0.33608373767E+02  0.47787273826E+02  0.20000012681E+02 0.  0.
        -12    1    1    2    0    0 -0.27456811477E+02 -0.47302080278E+00  0.33608373767E+02  0.43400726174E+02  0.00000000000E+00 0.  1.
         11    1    3    3    0    0  0.49425563501E+01 -0.49191921029E+00 -0.21716980770E+02  0.22277749029E+02  0.51100000000E-03 0. -1.
        -11    1    3    3    0    0  0.14801820626E+02  0.11709488368E+01 -0.80818140115E+01  0.16905050518E+02  0.51100000000E-03 0.  1.
         12    1    3    3    0    0  0.77124345008E+01 -0.20600882369E+00 -0.38095789856E+01  0.86044742786E+01  0.00000000000E+00 0. -1.
</event>
<event>
 7    1  0.2598019E-009  0.4778728E+02  0.7816164E-02  0.1312668E+00
        -11   -1    0    0    0    0  0.00000000000E+00  0.00000000000E+00  0.45593999997E+02  0.45594000000E+02  0.51100000000E-03 0.  1.
         11   -1    0    0    0    0 -0.00000000000E+00 -0.00000000000E+00 -0.45593999997E+02  0.45594000000E+02  0.51100000000E-03 0. -1.
    9900012    2    1    2    0    0 -0.10681168118E+02 -0.35104264130E+02 -0.23178131221E+02  0.47787280197E+02  0.20000041730E+02 0.  0.
        -12    1    1    2    0    0  0.10681168118E+02  0.35104264130E+02  0.23178131221E+02  0.43400719803E+02  0.00000000000E+00 0.  1.
         11    1    3    3    0    0 -0.14186601510E+02 -0.21873762591E+02 -0.17045575075E+02  0.31149201951E+02  0.51100000000E-03 0. -1.
        -11    1    3    3    0    0  0.37355037269E+01 -0.98287159632E+01 -0.75511585148E+01  0.12945178282E+02  0.51100000000E-03 0.  1.
         12    1    3    3    0    0 -0.23007033578E+00 -0.34017855764E+01  0.14186023681E+01  0.36928999643E+01  0.00000000000E+00 0. -1.
</event>
<event>
 7    1  0.2598019E-009  0.4778727E+02  0.7816164E-02  0.1312668E+00
        -11   -1    0    0    0    0  0.00000000000E+00  0.00000000000E+00  0.45593999997E+02  0.45594000000E+02  0.51100000000E-03 0.  1.
         11   -1    0    0    0    0 -0.00000000000E+00 -0.00000000000E+00 -0.45593999997E+02  0.45594000000E+02  0.51100000000E-03 0. -1.
    9900012    2    1    2    0    0  0.36474031114E+02 -0.11738908778E+02 -0.20383002315E+02  0.47787266038E+02  0.19999977174E+02 0.  0.
        -12    1    1    2    0    0 -0.36474031114E+02  0.11738908778E+02  0.20383002315E+02  0.43400733962E+02  0.00000000000E+00 0.  1.
         11    1    3    3    0    0  0.10518185922E+02 -0.79591787325E+00 -0.40988513794E+01  0.11316638336E+02  0.51100000000E-03 0. -1.
        -11    1    3    3    0    0 -0.17718767635E+01 -0.24902293696E+01  0.30573565917E+00  0.30715247244E+01  0.51100000000E-03 0.  1.
        -12    1    3    3    0    0  0.27727721956E+02 -0.84527615351E+01 -0.16589886595E+02  0.33399102977E+02  0.00000000000E+00 0.  1.
</event>
<event>
 7    1  0.2598019E-009  0.4778727E+02  0.7816164E-02  0.1312668E+00
        -11   -1    0    0    0    0  0.00000000000E+00  0.00000000000E+00  0.45593999997E+02  0.45594000000E+02  0.51100000000E-03 0.  1.
         11   -1    0    0    0    0 -0.00000000000E+00 -0.00000000000E+00 -0.45593999997E+02  0.45594000000E+02  0.51100000000E-03 0. -1.
    9900012    2    1    2    0    0 -0.24804185470E+02  0.33949352336E+02  0.10761842650E+02  0.47787269613E+02  0.19999993475E+02 0.  0.
        -12    1    1    2    0    0  0.24804185470E+02 -0.33949352336E+02 -0.10761842650E+02  0.43400730387E+02  0.00000000000E+00 0.  1.
         11    1    3    3    0    0 -0.81539768469E+01  0.13068426246E+02  0.31624359228E+01  0.15724888050E+02  0.51100000000E-03 0. -1.
        -11    1    3    3    0    0 -0.19223393256E+02  0.14010911691E+02  0.52577303428E+01  0.24361613726E+02  0.51100000000E-03 0.  1.
        -12    1    3    3    0    0  0.25731846331E+01  0.68700143987E+01  0.23416763846E+01  0.77007678374E+01  0.00000000000E+00 0.  1.
</event>
<event>
 7    1  0.2598019E-009  0.4778727E+02  0.7816164E-02  0.1312668E+00
        -11   -1    0    0    0    0  0.00000000000E+00  0.00000000000E+00  0.45593999997E+02  0.45594000000E+02  0.51100000000E-03 0.  1.
         11   -1    0    0    0    0 -0.00000000000E+00 -0.00000000000E+00 -0.45593999997E+02  0.45594000000E+02  0.51100000000E-03 0. -1.
    9900012    2    1    2    0    0  0.33539947819E+02 -0.39218917372E+01 -0.27263789244E+02  0.47787267997E+02  0.19999986104E+02 0.  0.
        -12    1    1    2    0    0 -0.33539947819E+02  0.39218917372E+01  0.27263789244E+02  0.43400732003E+02  0.00000000000E+00 0.  1.
         11    1    3    3    0    0  0.20844911797E+02 -0.32621624868E+01 -0.13239068788E+02  0.24908331830E+02  0.51100000000E-03 0. -1.
        -11    1    3    3    0    0  0.98837531152E+00  0.47045935406E+01 -0.18299216648E+01  0.51438020665E+01  0.51100000000E-03 0.  1.
        -12    1    3    3    0    0  0.11706660710E+02 -0.53643227910E+01 -0.12194798791E+02  0.17735134100E+02  0.00000000000E+00 0.  1.
</event>
<event>
 7    1  0.2598019E-009  0.4778728E+02  0.7816164E-02  0.1312668E+00
        -11   -1    0    0    0    0  0.00000000000E+00  0.00000000000E+00  0.45593999997E+02  0.45594000000E+02  0.51100000000E-03 0. -1.
         11   -1    0    0    0    0 -0.00000000000E+00 -0.00000000000E+00 -0.45593999997E+02  0.45594000000E+02  0.51100000000E-03 0.  1.
    9900012    2    1    2    0    0  0.13177963963E+02 -0.37338230601E+02  0.17771344499E+02  0.47787275537E+02  0.20000020485E+02 0.  0.
        -12    1    1    2    0    0 -0.13177963963E+02  0.37338230601E+02 -0.17771344499E+02  0.43400724463E+02  0.00000000000E+00 0.  1.
         11    1    3    3    0    0 -0.17404989722E+01 -0.11686661835E+02 -0.53530700643E+00  0.11827677514E+02  0.51100000000E-03 0. -1.
        -11    1    3    3    0    0  0.11288484136E+02 -0.22452711232E+02  0.18356557357E+02  0.31121010813E+02  0.51100000000E-03 0.  1.
        -12    1    3    3    0    0  0.36299787990E+01 -0.31988575337E+01 -0.49905851897E-01  0.48385872108E+01  0.00000000000E+00 0.  1.
</event>
<event>
 7    1  0.2598019E-009  0.4778727E+02  0.7816164E-02  0.1312668E+00
        -11   -1    0    0    0    0  0.00000000000E+00  0.00000000000E+00  0.45593999997E+02  0.45594000000E+02  0.51100000000E-03 0.  1.
         11   -1    0    0    0    0 -0.00000000000E+00 -0.00000000000E+00 -0.45593999997E+02  0.45594000000E+02  0.51100000000E-03 0. -1.
    9900012    2    1    2    0    0  0.36564707613E+02  0.23318595946E+02  0.16997122382E+01  0.47787265198E+02  0.19999973342E+02 0.  0.
        -12    1    1    2    0    0 -0.36564707613E+02 -0.23318595946E+02 -0.16997122382E+01  0.43400734802E+02  0.00000000000E+00 0.  1.
         11    1    3    3    0    0  0.42156684685E+01  0.25692302806E+01 -0.45626609653E+01  0.67224013728E+01  0.51100000000E-03 0. -1.
        -11    1    3    3    0    0  0.51737027270E+01  0.84771107129E+01 -0.19845212743E+01  0.10127533308E+02  0.51100000000E-03 0.  1.
         12    1    3    3    0    0  0.27175336417E+02  0.12272254953E+02  0.82468944778E+01  0.30937330517E+02  0.00000000000E+00 0. -1.
</event>
<event>
 7    1  0.2598019E-009  0.4778722E+02  0.7816164E-02  0.1312668E+00
        -11   -1    0    0    0    0  0.00000000000E+00  0.00000000000E+00  0.45593999997E+02  0.45594000000E+02  0.51100000000E-03 0.  1.
         11   -1    0    0    0    0 -0.00000000000E+00 -0.00000000000E+00 -0.45593999997E+02  0.45594000000E+02  0.51100000000E-03 0. -1.
    9900012    2    1    2    0    0  0.29051430521E+02  0.25466750575E+02 -0.19775907332E+02  0.47787222231E+02  0.19999777439E+02 0.  0.
        -12    1    1    2    0    0 -0.29051430521E+02 -0.25466750575E+02  0.19775907332E+02  0.43400777769E+02  0.00000000000E+00 0.  1.
         11    1    3    3    0    0  0.14962360148E+02  0.34560904743E+01 -0.79606912859E+01  0.17297091911E+02  0.51100000000E-03 0. -1.
        -11    1    3    3    0    0  0.99802951006E+00  0.61276693709E+01  0.93481417286E+00  0.62783972972E+01  0.51100000000E-03 0.  1.
        -12    1    3    3    0    0  0.13091040863E+02  0.15882990730E+02 -0.12750030219E+02  0.24211733023E+02  0.00000000000E+00 0.  1.
</event>
<event>
 7    1  0.2598019E-009  0.4778727E+02  0.7816164E-02  0.1312668E+00
        -11   -1    0    0    0    0  0.00000000000E+00  0.00000000000E+00  0.45593999997E+02  0.45594000000E+02  0.51100000000E-03 0. -1.
         11   -1    0    0    0    0 -0.00000000000E+00 -0.00000000000E+00 -0.45593999997E+02  0.45594000000E+02  0.51100000000E-03 0.  1.
    9900012    2    1    2    0    0  0.16572895481E+02 -0.31403789541E+02  0.24955248715E+02  0.47787270737E+02  0.19999998597E+02 0.  0.
        -12    1    1    2    0    0 -0.16572895481E+02  0.31403789541E+02 -0.24955248715E+02  0.43400729263E+02  0.00000000000E+00 0.  1.
         11    1    3    3    0    0  0.15812870020E+02 -0.25382436728E+02  0.20741850903E+02  0.36394221130E+02  0.51100000000E-03 0. -1.
        -11    1    3    3    0    0 -0.13088383040E+01 -0.11512054259E+01  0.56478362394E+01  0.59107009810E+01  0.51100000000E-03 0.  1.
        -12    1    3    3    0    0  0.20688637640E+01 -0.48701473878E+01 -0.14344384273E+01  0.54823486258E+01  0.00000000000E+00 0.  1.
</event>
<event>
 7    1  0.2598019E-009  0.4778728E+02  0.7816164E-02  0.1312668E+00
        -11   -1    0    0    0    0  0.00000000000E+00  0.00000000000E+00  0.45593999997E+02  0.45594000000E+02  0.51100000000E-03 0.  1.
         11   -1    0    0    0    0 -0.00000000000E+00 -0.00000000000E+00 -0.45593999997E+02  0.45594000000E+02  0.51100000000E-03 0. -1.
    9900012    2    1    2    0    0  0.43177345330E+02 -0.31622462427E+01 -0.30561203067E+01  0.47787276246E+02  0.20000023715E+02 0.  0.
        -12    1    1    2    0    0 -0.43177345330E+02  0.31622462427E+01  0.30561203067E+01  0.43400723754E+02  0.00000000000E+00 0.  1.
         11    1    3    3    0    0  0.16140051932E+02 -0.62754175213E+01 -0.73641086939E+01  0.18817870191E+02  0.51100000000E-03 0. -1.
        -11    1    3    3    0    0  0.22378236138E+02 -0.36924019933E+00  0.12951062654E+01  0.22418721896E+02  0.51100000000E-03 0.  1.
         12    1    3    3    0    0  0.46590572606E+01  0.34824114779E+01  0.30128821217E+01  0.65506841580E+01  0.00000000000E+00 0. -1.
</event>
<event>
 7    1  0.2598019E-009  0.4778728E+02  0.7816164E-02  0.1312668E+00
        -11   -1    0    0    0    0  0.00000000000E+00  0.00000000000E+00  0.45593999997E+02  0.45594000000E+02  0.51100000000E-03 0. -1.
         11   -1    0    0    0    0 -0.00000000000E+00 -0.00000000000E+00 -0.45593999997E+02  0.45594000000E+02  0.51100000000E-03 0.  1.
    9900012    2    1    2    0    0 -0.38850552756E+01 -0.22944925255E+01  0.43165547214E+02  0.47787276311E+02  0.20000024013E+02 0.  0.
        -12    1    1    2    0    0  0.38850552756E+01  0.22944925255E+01 -0.43165547214E+02  0.43400723689E+02  0.00000000000E+00 0.  1.
         11    1    3    3    0    0  0.41092094046E+01  0.27331318229E+00  0.17517091839E+01  0.44753533215E+01  0.51100000000E-03 0. -1.
        -11    1    3    3    0    0 -0.32690242906E+00 -0.32725648356E+01  0.43312691007E+01  0.54384223894E+01  0.51100000000E-03 0.  1.
         12    1    3    3    0    0 -0.76673622511E+01  0.70475912784E+00  0.37082568929E+02  0.37873500600E+02  0.00000000000E+00 0. -1.
</event>
<event>
 7    1  0.2598019E-009  0.4778726E+02  0.7816164E-02  0.1312668E+00
        -11   -1    0    0    0    0  0.00000000000E+00  0.00000000000E+00  0.45593999997E+02  0.45594000000E+02  0.51100000000E-03 0.  1.
         11   -1    0    0    0    0 -0.00000000000E+00 -0.00000000000E+00 -0.45593999997E+02  0.45594000000E+02  0.51100000000E-03 0. -1.
    9900012    2    1    2    0    0 -0.96685960374E+01  0.15688952823E+02 -0.39293750409E+02  0.47787264854E+02  0.19999971776E+02 0.  0.
        -12    1    1    2    0    0  0.96685960374E+01 -0.15688952823E+02  0.39293750409E+02  0.43400735146E+02  0.00000000000E+00 0.  1.
         11    1    3    3    0    0  0.43253046291E+01  0.47271073421E+01 -0.10447138725E+02  0.12255468647E+02  0.51100000000E-03 0. -1.
        -11    1    3    3    0    0 -0.13972183887E+02  0.82310719659E+01 -0.17488277750E+02  0.23849786733E+02  0.51100000000E-03 0.  1.
        -12    1    3    3    0    0 -0.21716779643E-01  0.27307735151E+01 -0.11358333933E+02  0.11682009474E+02  0.00000000000E+00 0.  1.
</event>
<event>
 7    1  0.2598019E-009  0.4778727E+02  0.7816164E-02  0.1312668E+00
        -11   -1    0    0    0    0  0.00000000000E+00  0.00000000000E+00  0.45593999997E+02  0.45594000000E+02  0.51100000000E-03 0.  1.
         11   -1    0    0    0    0 -0.00000000000E+00 -0.00000000000E+00 -0.45593999997E+02  0.45594000000E+02  0.51100000000E-03 0. -1.
    9900012    2    1    2    0    0  0.25386868643E+02 -0.34024622967E+02  0.90252657890E+01  0.47787268554E+02  0.19999988643E+02 0.  0.
        -12    1    1    2    0    0 -0.25386868643E+02  0.34024622967E+02 -0.90252657890E+01  0.43400731446E+02  0.00000000000E+00 0.  1.
         11    1    3    3    0    0  0.67426901158E+01 -0.20141867278E+02  0.66865577148E+01  0.22268110422E+02  0.51100000000E-03 0. -1.
        -11    1    3    3    0    0 -0.44790899151E+00 -0.37851533869E+01  0.22831205352E+00  0.38183943330E+01  0.51100000000E-03 0.  1.
         12    1    3    3    0    0  0.19092087519E+02 -0.10097602302E+02  0.21103960207E+01  0.21700763798E+02  0.00000000000E+00 0. -1.
</event>
<event>
 7    1  0.2598019E-009  0.4778728E+02  0.7816164E-02  0.1312668E+00
        -11   -1    0    0    0    0  0.00000000000E+00  0.00000000000E+00  0.45593999997E+02  0.45594000000E+02  0.51100000000E-03 0.  1.
         11   -1    0    0    0    0 -0.00000000000E+00 -0.00000000000E+00 -0.45593999997E+02  0.45594000000E+02  0.51100000000E-03 0. -1.
    9900012    2    1    2    0    0  0.16051069757E+02  0.41008988329E+00 -0.40321423832E+02  0.47787283026E+02  0.20000054627E+02 0.  0.
        -12    1    1    2    0    0 -0.16051069757E+02 -0.41008988329E+00  0.40321423832E+02  0.43400716974E+02  0.00000000000E+00 0.  1.
         11    1    3    3    0    0  0.95498699102E+01  0.23555511613E+00 -0.34377096022E+02  0.35679689358E+02  0.51100000000E-03 0. -1.
        -11    1    3    3    0    0  0.80632670415E+01  0.88295617872E+00 -0.64007096148E+01  0.10332713624E+02  0.51100000000E-03 0.  1.
         12    1    3    3    0    0 -0.15620671945E+01 -0.70842141156E+00  0.45638180555E+00  0.17748800435E+01  0.00000000000E+00 0. -1.
</event>
<event>
 7    1  0.2598019E-009  0.4778727E+02  0.7816164E-02  0.1312668E+00
        -11   -1    0    0    0    0  0.00000000000E+00  0.00000000000E+00  0.45593999997E+02  0.45594000000E+02  0.51100000000E-03 0.  1.
         11   -1    0    0    0    0 -0.00000000000E+00 -0.00000000000E+00 -0.45593999997E+02  0.45594000000E+02  0.51100000000E-03 0. -1.
    9900012    2    1    2    0    0 -0.36755016767E+02  0.73052060567E+01 -0.21893512278E+02  0.47787272207E+02  0.20000005303E+02 0.  0.
        -12    1    1    2    0    0  0.36755016767E+02 -0.73052060567E+01  0.21893512278E+02  0.43400727793E+02  0.00000000000E+00 0.  1.
         11    1    3    3    0    0 -0.18828368483E+02 -0.25884253349E+01 -0.11108795289E+02  0.22013921470E+02  0.51100000000E-03 0. -1.
        -11    1    3    3    0    0 -0.11758484272E+02  0.55045246743E+01 -0.48686209571E+00  0.12992258435E+02  0.51100000000E-03 0.  1.
        -12    1    3    3    0    0 -0.61681640112E+01  0.43891067173E+01 -0.10297854894E+02  0.12781092303E+02  0.00000000000E+00 0.  1.
</event>
<event>
 7    1  0.2598019E-009  0.4778726E+02  0.7816164E-02  0.1312668E+00
        -11   -1    0    0    0    0  0.00000000000E+00  0.00000000000E+00  0.45593999997E+02  0.45594000000E+02  0.51100000000E-03 0.  1.
         11   -1    0    0    0    0 -0.00000000000E+00 -0.00000000000E+00 -0.45593999997E+02  0.45594000000E+02  0.51100000000E-03 0. -1.
    9900012    2    1    2    0    0  0.25139261856E+02 -0.33619351886E+02 -0.11017290016E+02  0.47787262827E+02  0.19999962534E+02 0.  0.
        -12    1    1    2    0    0 -0.25139261856E+02  0.33619351886E+02  0.11017290016E+02  0.43400737173E+02  0.00000000000E+00 0.  1.
         11    1    3    3    0    0  0.95549238569E+01 -0.79205709179E+01 -0.10732848829E+01  0.12457285189E+02  0.51100000000E-03 0. -1.
        -11    1    3    3    0    0  0.28883385371E+01 -0.33160947932E+01  0.41016611268E+01  0.60135354362E+01  0.51100000000E-03 0.  1.
        -12    1    3    3    0    0  0.12695999462E+02 -0.22382686175E+02 -0.14045666259E+02  0.29316442202E+02  0.00000000000E+00 0.  1.
</event>
<event>
 7    1  0.2598019E-009  0.4778727E+02  0.7816164E-02  0.1312668E+00
        -11   -1    0    0    0    0  0.00000000000E+00  0.00000000000E+00  0.45593999997E+02  0.45594000000E+02  0.51100000000E-03 0.  1.
         11   -1    0    0    0    0 -0.00000000000E+00 -0.00000000000E+00 -0.45593999997E+02  0.45594000000E+02  0.51100000000E-03 0. -1.
    9900012    2    1    2    0    0 -0.23373070256E+02  0.42081774701E+01 -0.36326495509E+02  0.47787269053E+02  0.19999990920E+02 0.  0.
        -12    1    1    2    0    0  0.23373070256E+02 -0.42081774701E+01  0.36326495509E+02  0.43400730947E+02  0.00000000000E+00 0.  1.
         11    1    3    3    0    0 -0.13620781752E+02 -0.27054587842E+01 -0.27363761391E+02  0.30685837784E+02  0.51100000000E-03 0. -1.
        -11    1    3    3    0    0 -0.10730825667E+02  0.42747939197E+01 -0.60049441568E+01  0.13018595820E+02  0.51100000000E-03 0.  1.
         12    1    3    3    0    0  0.97853716332E+00  0.26388423346E+01 -0.29577899607E+01  0.40828354484E+01  0.00000000000E+00 0. -1.
</event>
<event>
 7    1  0.2996516E-009  0.4778727E+02  0.7816164E-02  0.1312668E+00
        -11   -1    0    0    0    0  0.00000000000E+00  0.00000000000E+00  0.45593999997E+02  0.45594000000E+02  0.51100000000E-03 0.  1.
         11   -1    0    0    0    0 -0.00000000000E+00 -0.00000000000E+00 -0.45593999997E+02  0.45594000000E+02  0.51100000000E-03 0. -1.
    9900012    2    1    2    0    0 -0.20909898835E+02  0.29950756283E+02 -0.23438253174E+02  0.47787269787E+02  0.19999994265E+02 0.  0.
        -12    1    1    2    0    0  0.20909898835E+02 -0.29950756283E+02  0.23438253174E+02  0.43400730213E+02  0.00000000000E+00 0.  1.
         11    1    3    3    0    0 -0.15116390100E+02  0.12348267939E+02 -0.18321243583E+02  0.26770374249E+02  0.51100000000E-03 0. -1.
        -11    1    3    3    0    0  0.12291916432E+01  0.90444937929E+00  0.10821377250E+01  0.18708188294E+01  0.51100000000E-03 0.  1.
         12    1    3    3    0    0 -0.70227003774E+01  0.16698038965E+02 -0.61991473161E+01  0.19146076708E+02  0.00000000000E+00 0. -1.
</event>
<event>
 7    1  0.2598019E-009  0.4778728E+02  0.7816164E-02  0.1312668E+00
        -11   -1    0    0    0    0  0.00000000000E+00  0.00000000000E+00  0.45593999997E+02  0.45594000000E+02  0.51100000000E-03 0. -1.
         11   -1    0    0    0    0 -0.00000000000E+00 -0.00000000000E+00 -0.45593999997E+02  0.45594000000E+02  0.51100000000E-03 0.  1.
    9900012    2    1    2    0    0 -0.12487834390E+02 -0.29309677067E+02  0.29472349112E+02  0.47787279503E+02  0.20000038566E+02 0.  0.
        -12    1    1    2    0    0  0.12487834390E+02  0.29309677067E+02 -0.29472349112E+02  0.43400720497E+02  0.00000000000E+00 0.  1.
         11    1    3    3    0    0 -0.13904498641E+02 -0.22154714444E+02  0.26311522940E+02  0.37100710158E+02  0.51100000000E-03 0. -1.
        -11    1    3    3    0    0  0.28639401157E+01 -0.69666497034E+01  0.37511183904E+00  0.75416888181E+01  0.51100000000E-03 0.  1.
         12    1    3    3    0    0 -0.14472758651E+01 -0.18831291956E+00  0.27857143330E+01  0.31448805272E+01  0.00000000000E+00 0. -1.
</event>
<event>
 7    1  0.2598019E-009  0.4778727E+02  0.7816164E-02  0.1312668E+00
        -11   -1    0    0    0    0  0.00000000000E+00  0.00000000000E+00  0.45593999997E+02  0.45594000000E+02  0.51100000000E-03 0.  1.
         11   -1    0    0    0    0 -0.00000000000E+00 -0.00000000000E+00 -0.45593999997E+02  0.45594000000E+02  0.51100000000E-03 0. -1.
    9900012    2    1    2    0    0  0.20246677524E+02  0.28602051884E+02 -0.25605035669E+02  0.47787272190E+02  0.20000005225E+02 0.  0.
        -12    1    1    2    0    0 -0.20246677524E+02 -0.28602051884E+02  0.25605035669E+02  0.43400727810E+02  0.00000000000E+00 0.  1.
         11    1    3    3    0    0  0.43799604799E+01  0.44674279711E+01 -0.11333785047E+02  0.12945912492E+02  0.51100000000E-03 0. -1.
        -11    1    3    3    0    0  0.13482995348E+02  0.25313969881E+02 -0.11229242514E+02  0.30800716264E+02  0.51100000000E-03 0.  1.
        -12    1    3    3    0    0  0.23837216968E+01 -0.11793459673E+01 -0.30420081083E+01  0.40406434351E+01  0.00000000000E+00 0.  1.
</event>
<event>
 7    1  0.2598019E-009  0.4778727E+02  0.7816164E-02  0.1312668E+00
        -11   -1    0    0    0    0  0.00000000000E+00  0.00000000000E+00  0.45593999997E+02  0.45594000000E+02  0.51100000000E-03 0. -1.
         11   -1    0    0    0    0 -0.00000000000E+00 -0.00000000000E+00 -0.45593999997E+02  0.45594000000E+02  0.51100000000E-03 0.  1.
    9900012    2    1    2    0    0  0.34542124972E+02  0.17738547472E+02  0.19385786698E+02  0.47787272012E+02  0.20000004413E+02 0.  0.
        -12    1    1    2    0    0 -0.34542124972E+02 -0.17738547472E+02 -0.19385786698E+02  0.43400727988E+02  0.00000000000E+00 0.  1.
         11    1    3    3    0    0  0.12692998790E+02  0.41427322882E+01  0.47470209557E+01  0.14170697136E+02  0.51100000000E-03 0.  1.
        -11    1    3    3    0    0  0.22638046769E+02  0.14315468055E+02  0.16508506776E+02  0.31463384805E+02  0.51100000000E-03 0. -1.
        -12    1    3    3    0    0 -0.78892058737E+00 -0.71965287153E+00 -0.18697410342E+01  0.21531900714E+01  0.00000000000E+00 0.  1.
</event>
<event>
 7    1  0.2598019E-009  0.4778727E+02  0.7816164E-02  0.1312668E+00
        -11   -1    0    0    0    0  0.00000000000E+00  0.00000000000E+00  0.45593999997E+02  0.45594000000E+02  0.51100000000E-03 0. -1.
         11   -1    0    0    0    0 -0.00000000000E+00 -0.00000000000E+00 -0.45593999997E+02  0.45594000000E+02  0.51100000000E-03 0.  1.
    9900012    2    1    2    0    0 -0.64121242789E+01 -0.42292827255E+02  0.73365131278E+01  0.47787274201E+02  0.20000014392E+02 0.  0.
        -12    1    1    2    0    0  0.64121242789E+01  0.42292827255E+02 -0.73365131278E+01  0.43400725799E+02  0.00000000000E+00 0.  1.
         11    1    3    3    0    0 -0.84178610861E+01 -0.32660797140E+02  0.99851801230E+01  0.35175159949E+02  0.51100000000E-03 0. -1.
        -11    1    3    3    0    0  0.63927299351E+00  0.98278355974E+00  0.73956662096E+00  0.13861791131E+01  0.51100000000E-03 0.  1.
         12    1    3    3    0    0  0.13664638137E+01 -0.10614813675E+02 -0.33882336162E+01  0.11225935139E+02  0.00000000000E+00 0. -1.
</event>
<event>
 7    1  0.2598019E-009  0.4778727E+02  0.7816164E-02  0.1312668E+00
        -11   -1    0    0    0    0  0.00000000000E+00  0.00000000000E+00  0.45593999997E+02  0.45594000000E+02  0.51100000000E-03 0.  1.
         11   -1    0    0    0    0 -0.00000000000E+00 -0.00000000000E+00 -0.45593999997E+02  0.45594000000E+02  0.51100000000E-03 0. -1.
    9900012    2    1    2    0    0 -0.22302972950E+02  0.22220366507E+02 -0.29874002917E+02  0.47787270278E+02  0.19999996507E+02 0.  0.
        -12    1    1    2    0    0  0.22302972950E+02 -0.22220366507E+02  0.29874002917E+02  0.43400729722E+02  0.00000000000E+00 0.  1.
         11    1    3    3    0    0 -0.51409645493E+01  0.39339790736E+01 -0.16356915081E+02  0.17591315445E+02  0.51100000000E-03 0. -1.
        -11    1    3    3    0    0 -0.15465858200E+02  0.19351911730E+02 -0.13457323086E+02  0.28191998907E+02  0.51100000000E-03 0.  1.
        -12    1    3    3    0    0 -0.16961502006E+01 -0.10655242966E+01 -0.59764749570E-01  0.20039559264E+01  0.00000000000E+00 0.  1.
</event>
<event>
 7    1  0.2598019E-009  0.4778727E+02  0.7816164E-02  0.1312668E+00
        -11   -1    0    0    0    0  0.00000000000E+00  0.00000000000E+00  0.45593999997E+02  0.45594000000E+02  0.51100000000E-03 0.  1.
         11   -1    0    0    0    0 -0.00000000000E+00 -0.00000000000E+00 -0.45593999997E+02  0.45594000000E+02  0.51100000000E-03 0. -1.
    9900012    2    1    2    0    0 -0.29996734807E+01  0.36647394586E+02 -0.23056321900E+02  0.47787267858E+02  0.19999985472E+02 0.  0.
        -12    1    1    2    0    0  0.29996734807E+01 -0.36647394586E+02  0.23056321900E+02  0.43400732142E+02  0.00000000000E+00 0.  1.
         11    1    3    3    0    0 -0.70630450142E+01  0.22394982736E+02 -0.21254972027E+02  0.31673264637E+02  0.51100000000E-03 0. -1.
        -11    1    3    3    0    0  0.24511943362E+00  0.81942805506E+01  0.13177713402E+01  0.83031824528E+01  0.51100000000E-03 0.  1.
         12    1    3    3    0    0  0.38182520999E+01  0.60581312990E+01 -0.31191212132E+01  0.78108207685E+01  0.00000000000E+00 0. -1.
</event>
<event>
 7    1  0.2598019E-009  0.4778726E+02  0.7816164E-02  0.1312668E+00
        -11   -1    0    0    0    0  0.00000000000E+00  0.00000000000E+00  0.45593999997E+02  0.45594000000E+02  0.51100000000E-03 0.  1.
         11   -1    0    0    0    0 -0.00000000000E+00 -0.00000000000E+00 -0.45593999997E+02  0.45594000000E+02  0.51100000000E-03 0. -1.
    9900012    2    1    2    0    0  0.39461451435E+02  0.11249250820E+02 -0.14137610672E+02  0.47787264650E+02  0.19999970847E+02 0.  0.
        -12    1    1    2    0    0 -0.39461451435E+02 -0.11249250820E+02  0.14137610672E+02  0.43400735350E+02  0.00000000000E+00 0.  1.
         11    1    3    3    0    0  0.46927843688E+01  0.46389528719E+00 -0.88713697531E+00  0.47983785015E+01  0.51100000000E-03 0. -1.
        -11    1    3    3    0    0  0.17401423019E+02  0.13750922112E+02 -0.12261599445E+02  0.25342537427E+02  0.51100000000E-03 0.  1.
        -12    1    3    3    0    0  0.17367244047E+02 -0.29655665796E+01 -0.98887425183E+00  0.17646348722E+02  0.00000000000E+00 0.  1.
</event>
<event>
 7    1  0.2598019E-009  0.4778727E+02  0.7816164E-02  0.1312668E+00
        -11   -1    0    0    0    0  0.00000000000E+00  0.00000000000E+00  0.45593999997E+02  0.45594000000E+02  0.51100000000E-03 0.  1.
         11   -1    0    0    0    0 -0.00000000000E+00 -0.00000000000E+00 -0.45593999997E+02  0.45594000000E+02  0.51100000000E-03 0. -1.
    9900012    2    1    2    0    0 -0.66957342517E-01  0.25445468749E+02 -0.35158879850E+02  0.47787271948E+02  0.20000004120E+02 0.  0.
        -12    1    1    2    0    0  0.66957342517E-01 -0.25445468749E+02  0.35158879850E+02  0.43400728052E+02  0.00000000000E+00 0.  1.
         11    1    3    3    0    0 -0.32471665187E+01  0.17602434497E+01 -0.11508915813E+02  0.12087087774E+02  0.51100000000E-03 0. -1.
        -11    1    3    3    0    0  0.76138438977E+01  0.13341315399E+02 -0.11909887087E+02  0.19437250993E+02  0.51100000000E-03 0.  1.
        -12    1    3    3    0    0 -0.44336347215E+01  0.10343909900E+02 -0.11740076949E+02  0.16262933181E+02  0.00000000000E+00 0.  1.
</event>
<event>
 7    1  0.2598019E-009  0.4778725E+02  0.7816164E-02  0.1312668E+00
        -11   -1    0    0    0    0  0.00000000000E+00  0.00000000000E+00  0.45593999997E+02  0.45594000000E+02  0.51100000000E-03 0. -1.
         11   -1    0    0    0    0 -0.00000000000E+00 -0.00000000000E+00 -0.45593999997E+02  0.45594000000E+02  0.51100000000E-03 0.  1.
    9900012    2    1    2    0    0 -0.89636283722E+01  0.40415947204E+02  0.13031864248E+02  0.47787252221E+02  0.19999914177E+02 0.  0.
        -12    1    1    2    0    0  0.89636283722E+01 -0.40415947204E+02 -0.13031864248E+02  0.43400747779E+02  0.00000000000E+00 0.  1.
         11    1    3    3    0    0 -0.57663134733E+01  0.25986245447E+01  0.45907789405E+01  0.78152717252E+01  0.51100000000E-03 0. -1.
        -11    1    3    3    0    0 -0.58630351333E+01  0.18197385793E+02  0.23876117061E+01  0.19267089053E+02  0.51100000000E-03 0.  1.
         12    1    3    3    0    0  0.26657202344E+01  0.19619936866E+02  0.60534736009E+01  0.20704891443E+02  0.00000000000E+00 0. -1.
</event>
<event>
 7    1  0.2598019E-009  0.4778727E+02  0.7816164E-02  0.1312668E+00
        -11   -1    0    0    0    0  0.00000000000E+00  0.00000000000E+00  0.45593999997E+02  0.45594000000E+02  0.51100000000E-03 0. -1.
         11   -1    0    0    0    0 -0.00000000000E+00 -0.00000000000E+00 -0.45593999997E+02  0.45594000000E+02  0.51100000000E-03 0.  1.
    9900012    2    1    2    0    0  0.42662220040E+02  0.29835200590E+01 -0.73930100636E+01  0.47787274102E+02  0.20000013941E+02 0.  0.
        -12    1    1    2    0    0 -0.42662220040E+02 -0.29835200590E+01  0.73930100636E+01  0.43400725898E+02  0.00000000000E+00 0.  1.
         11    1    3    3    0    0  0.32821797725E+02 -0.60095638020E+00 -0.30256908826E+01  0.32966442939E+02  0.51100000000E-03 0. -1.
        -11    1    3    3    0    0  0.41897035776E+01  0.63069428473E+01 -0.82296353376E+00  0.76163254517E+01  0.51100000000E-03 0.  1.
         12    1    3    3    0    0  0.56507187368E+01 -0.27224664081E+01 -0.35443556473E+01  0.72045057110E+01  0.00000000000E+00 0. -1.
</event>
<event>
 7    1  0.2598019E-009  0.4778731E+02  0.7816164E-02  0.1312668E+00
        -11   -1    0    0    0    0  0.00000000000E+00  0.00000000000E+00  0.45593999997E+02  0.45594000000E+02  0.51100000000E-03 0.  1.
         11   -1    0    0    0    0 -0.00000000000E+00 -0.00000000000E+00 -0.45593999997E+02  0.45594000000E+02  0.51100000000E-03 0. -1.
    9900012    2    1    2    0    0  0.31147403446E+02  0.26997251122E+02 -0.13587040048E+02  0.47787309144E+02  0.20000173709E+02 0.  0.
        -12    1    1    2    0    0 -0.31147403446E+02 -0.26997251122E+02  0.13587040048E+02  0.43400690856E+02  0.00000000000E+00 0.  1.
         11    1    3    3    0    0  0.14467918652E+02  0.11463052469E+02 -0.12145849045E+02  0.22096241565E+02  0.51100000000E-03 0. -1.
        -11    1    3    3    0    0 -0.94845684651E+00 -0.19657566378E+00  0.15994899462E+01  0.18699146318E+01  0.51100000000E-03 0.  1.
        -12    1    3    3    0    0  0.17627941641E+02  0.15730774316E+02 -0.30406809490E+01  0.23821152947E+02  0.00000000000E+00 0.  1.
</event>
<event>
 7    1  0.2598019E-009  0.4778727E+02  0.7816164E-02  0.1312668E+00
        -11   -1    0    0    0    0  0.00000000000E+00  0.00000000000E+00  0.45593999997E+02  0.45594000000E+02  0.51100000000E-03 0.  1.
         11   -1    0    0    0    0 -0.00000000000E+00 -0.00000000000E+00 -0.45593999997E+02  0.45594000000E+02  0.51100000000E-03 0. -1.
    9900012    2    1    2    0    0 -0.58947503681E+01  0.40868358599E+02 -0.13366084986E+02  0.47787273689E+02  0.20000012056E+02 0.  0.
        -12    1    1    2    0    0  0.58947503681E+01 -0.40868358599E+02  0.13366084986E+02  0.43400726311E+02  0.00000000000E+00 0.  1.
         11    1    3    3    0    0 -0.13734473161E+01  0.11103164199E+02 -0.11041464575E+02  0.15718796168E+02  0.51100000000E-03 0. -1.
        -11    1    3    3    0    0 -0.64305607317E+01  0.29159791243E+02 -0.14869770226E+01  0.29897435302E+02  0.51100000000E-03 0.  1.
        -12    1    3    3    0    0  0.19092576797E+01  0.60540315662E+00 -0.83764338878E+00  0.21710422189E+01  0.00000000000E+00 0.  1.
</event>
<event>
 7    1  0.2598019E-009  0.4778727E+02  0.7816164E-02  0.1312668E+00
        -11   -1    0    0    0    0  0.00000000000E+00  0.00000000000E+00  0.45593999997E+02  0.45594000000E+02  0.51100000000E-03 0. -1.
         11   -1    0    0    0    0 -0.00000000000E+00 -0.00000000000E+00 -0.45593999997E+02  0.45594000000E+02  0.51100000000E-03 0.  1.
    9900012    2    1    2    0    0  0.42994581321E+02 -0.59049228080E+01  0.46991341713E+00  0.47787274719E+02  0.20000016753E+02 0.  0.
        -12    1    1    2    0    0 -0.42994581321E+02  0.59049228080E+01 -0.46991341713E+00  0.43400725281E+02  0.00000000000E+00 0.  1.
         11    1    3    3    0    0  0.53566677531E+01  0.14859396124E+01 -0.63313872121E+01  0.84254596456E+01  0.51100000000E-03 0.  1.
        -11    1    3    3    0    0  0.21335065676E+02 -0.66162474736E+01  0.53978103367E+01  0.22980341919E+02  0.51100000000E-03 0. -1.
        -12    1    3    3    0    0  0.16302847892E+02 -0.77461494685E+00  0.14034902925E+01  0.16381473154E+02  0.00000000000E+00 0.  1.
</event>
<event>
 7    1  0.2598019E-009  0.4778728E+02  0.7816164E-02  0.1312668E+00
        -11   -1    0    0    0    0  0.00000000000E+00  0.00000000000E+00  0.45593999997E+02  0.45594000000E+02  0.51100000000E-03 0. -1.
         11   -1    0    0    0    0 -0.00000000000E+00 -0.00000000000E+00 -0.45593999997E+02  0.45594000000E+02  0.51100000000E-03 0.  1.
    9900012    2    1    2    0    0  0.38391192822E+02  0.10190339239E+01  0.20216346736E+02  0.47787276598E+02  0.20000025323E+02 0.  0.
        -12    1    1    2    0    0 -0.38391192822E+02 -0.10190339239E+01 -0.20216346736E+02  0.43400723402E+02  0.00000000000E+00 0.  1.
         11    1    3    3    0    0  0.13549362054E+02 -0.12215728350E+01 -0.19983835807E+01  0.13750308704E+02  0.51100000000E-03 0. -1.
        -11    1    3    3    0    0  0.11150413389E+02 -0.11829522834E+01  0.13067470664E+02  0.17218881632E+02  0.51100000000E-03 0.  1.
        -12    1    3    3    0    0  0.13691417379E+02  0.34235590423E+01  0.91472596523E+01  0.16818086262E+02  0.00000000000E+00 0.  1.
</event>
<event>
 7    1  0.2598019E-009  0.4778727E+02  0.7816164E-02  0.1312668E+00
        -11   -1    0    0    0    0  0.00000000000E+00  0.00000000000E+00  0.45593999997E+02  0.45594000000E+02  0.51100000000E-03 0. -1.
         11   -1    0    0    0    0 -0.00000000000E+00 -0.00000000000E+00 -0.45593999997E+02  0.45594000000E+02  0.51100000000E-03 0.  1.
    9900012    2    1    2    0    0 -0.36224411262E+02  0.70619771544E+01  0.22837327305E+02  0.47787274072E+02  0.20000013804E+02 0.  0.
        -12    1    1    2    0    0  0.36224411262E+02 -0.70619771544E+01 -0.22837327305E+02  0.43400725928E+02  0.00000000000E+00 0.  1.
         11    1    3    3    0    0 -0.10145392218E+01  0.60851896088E+01  0.50368945524E+01  0.79642406669E+01  0.51100000000E-03 0. -1.
        -11    1    3    3    0    0 -0.26371143260E+02  0.12554752624E+01  0.10719251055E+02  0.28494135509E+02  0.51100000000E-03 0.  1.
        -12    1    3    3    0    0 -0.88387287809E+01 -0.27868771676E+00  0.70811816978E+01  0.11328897896E+02  0.00000000000E+00 0.  1.
</event>
<event>
 7    1  0.2598019E-009  0.4778727E+02  0.7816164E-02  0.1312668E+00
        -11   -1    0    0    0    0  0.00000000000E+00  0.00000000000E+00  0.45593999997E+02  0.45594000000E+02  0.51100000000E-03 0.  1.
         11   -1    0    0    0    0 -0.00000000000E+00 -0.00000000000E+00 -0.45593999997E+02  0.45594000000E+02  0.51100000000E-03 0. -1.
    9900012    2    1    2    0    0 -0.39268422739E+01 -0.70791004015E+01 -0.42639062293E+02  0.47787269753E+02  0.19999994114E+02 0.  0.
        -12    1    1    2    0    0  0.39268422739E+01  0.70791004015E+01  0.42639062293E+02  0.43400730247E+02  0.00000000000E+00 0.  1.
         11    1    3    3    0    0 -0.18238641857E+01  0.16069668321E+01 -0.24615034245E+02  0.24734767719E+02  0.51100000000E-03 0. -1.
        -11    1    3    3    0    0  0.84345328197E+00 -0.73148569447E+01 -0.34699029228E+01  0.81399491469E+01  0.51100000000E-03 0.  1.
         12    1    3    3    0    0 -0.29464313702E+01 -0.13712102890E+01 -0.14554125125E+02  0.14912552888E+02  0.00000000000E+00 0. -1.
</event>
<event>
 7    1  0.2598019E-009  0.4778727E+02  0.7816164E-02  0.1312668E+00
        -11   -1    0    0    0    0  0.00000000000E+00  0.00000000000E+00  0.45593999997E+02  0.45594000000E+02  0.51100000000E-03 0.  1.
         11   -1    0    0    0    0 -0.00000000000E+00 -0.00000000000E+00 -0.45593999997E+02  0.45594000000E+02  0.51100000000E-03 0. -1.
    9900012    2    1    2    0    0  0.38512696429E+01 -0.42724050243E+02 -0.65914294015E+01  0.47787266266E+02  0.19999978215E+02 0.  0.
        -12    1    1    2    0    0 -0.38512696429E+01  0.42724050243E+02  0.65914294015E+01  0.43400733734E+02  0.00000000000E+00 0.  1.
         11    1    3    3    0    0  0.43046353122E+01 -0.98931101957E+01 -0.40761895954E+01  0.11533379227E+02  0.51100000000E-03 0. -1.
        -11    1    3    3    0    0 -0.31345515662E+01 -0.89655947218E+00 -0.26586033366E+01  0.42068283030E+01  0.51100000000E-03 0.  1.
        -12    1    3    3    0    0  0.26811858968E+01 -0.31934380576E+02  0.14336353051E+00  0.32047058736E+02  0.00000000000E+00 0.  1.
</event>
<event>
 7    1  0.2598019E-009  0.4778727E+02  0.7816164E-02  0.1312668E+00
        -11   -1    0    0    0    0  0.00000000000E+00  0.00000000000E+00  0.45593999997E+02  0.45594000000E+02  0.51100000000E-03 0.  1.
         11   -1    0    0    0    0 -0.00000000000E+00 -0.00000000000E+00 -0.45593999997E+02  0.45594000000E+02  0.51100000000E-03 0. -1.
    9900012    2    1    2    0    0  0.12056270262E+02 -0.41324252040E+02 -0.55295398902E+01  0.47787271081E+02  0.20000000169E+02 0.  0.
        -12    1    1    2    0    0 -0.12056270262E+02  0.41324252040E+02  0.55295398902E+01  0.43400728919E+02  0.00000000000E+00 0.  1.
         11    1    3    3    0    0  0.31118671720E+01 -0.19518098577E+02 -0.41900425068E+01  0.20203869575E+02  0.51100000000E-03 0. -1.
        -11    1    3    3    0    0  0.91880641313E+01 -0.77960772229E+01  0.38363576429E+01  0.12645828671E+02  0.51100000000E-03 0.  1.
        -12    1    3    3    0    0 -0.24366104183E+00 -0.14010076240E+02 -0.51758550263E+01  0.14937572835E+02  0.00000000000E+00 0.  1.
</event>
<event>
 7    1  0.2598019E-009  0.4778727E+02  0.7816164E-02  0.1312668E+00
        -11   -1    0    0    0    0  0.00000000000E+00  0.00000000000E+00  0.45593999997E+02  0.45594000000E+02  0.51100000000E-03 0.  1.
         11   -1    0    0    0    0 -0.00000000000E+00 -0.00000000000E+00 -0.45593999997E+02  0.45594000000E+02  0.51100000000E-03 0. -1.
    9900012    2    1    2    0    0 -0.22560870995E+02  0.33305452873E+02 -0.16290404114E+02  0.47787270083E+02  0.19999995617E+02 0.  0.
        -12    1    1    2    0    0  0.22560870995E+02 -0.33305452873E+02  0.16290404114E+02  0.43400729917E+02  0.00000000000E+00 0.  1.
         11    1    3    3    0    0 -0.49965505604E+01  0.11212173702E+02 -0.11030965611E+02  0.16503349938E+02  0.51100000000E-03 0. -1.
        -11    1    3    3    0    0 -0.10139863022E+02  0.17051551269E+02  0.17226326528E+01  0.19913304254E+02  0.51100000000E-03 0.  1.
        -12    1    3    3    0    0 -0.74244574122E+01  0.50417279021E+01 -0.69820711563E+01  0.11370615891E+02  0.00000000000E+00 0.  1.
</event>
<event>
 7    1  0.2598019E-009  0.4778727E+02  0.7816164E-02  0.1312668E+00
        -11   -1    0    0    0    0  0.00000000000E+00  0.00000000000E+00  0.45593999997E+02  0.45594000000E+02  0.51100000000E-03 0.  1.
         11   -1    0    0    0    0 -0.00000000000E+00 -0.00000000000E+00 -0.45593999997E+02  0.45594000000E+02  0.51100000000E-03 0. -1.
    9900012    2    1    2    0    0 -0.14084865478E+02  0.34259484960E+02 -0.22616972838E+02  0.47787271831E+02  0.20000003587E+02 0.  0.
        -12    1    1    2    0    0  0.14084865478E+02 -0.34259484960E+02  0.22616972838E+02  0.43400728169E+02  0.00000000000E+00 0.  1.
         11    1    3    3    0    0  0.46553546794E+00 -0.15367950318E+00 -0.41072145141E+01  0.41363694210E+01  0.51100000000E-03 0. -1.
        -11    1    3    3    0    0 -0.12617566995E+02  0.21538878926E+02 -0.61706261616E+01  0.25713866488E+02  0.51100000000E-03 0.  1.
        -12    1    3    3    0    0 -0.19328339508E+01  0.12874285537E+02 -0.12339132162E+02  0.17937035923E+02  0.00000000000E+00 0.  1.
</event>
<event>
 7    1  0.2598019E-009  0.4778727E+02  0.7816164E-02  0.1312668E+00
        -11   -1    0    0    0    0  0.00000000000E+00  0.00000000000E+00  0.45593999997E+02  0.45594000000E+02  0.51100000000E-03 0. -1.
         11   -1    0    0    0    0 -0.00000000000E+00 -0.00000000000E+00 -0.45593999997E+02  0.45594000000E+02  0.51100000000E-03 0.  1.
    9900012    2    1    2    0    0  0.25604281571E+02 -0.14533862507E+02  0.31887476036E+02  0.47787268185E+02  0.19999986963E+02 0.  0.
        -12    1    1    2    0    0 -0.25604281571E+02  0.14533862507E+02 -0.31887476036E+02  0.43400731815E+02  0.00000000000E+00 0.  1.
         11    1    3    3    0    0  0.14399793492E+01 -0.72612073437E+01  0.77598443936E+01  0.10724451403E+02  0.51100000000E-03 0. -1.
        -11    1    3    3    0    0  0.15377793659E+02  0.17727849015E+01  0.14319572516E+02  0.21087187139E+02  0.51100000000E-03 0.  1.
        -12    1    3    3    0    0  0.87865085624E+01 -0.90454400647E+01  0.98080591261E+01  0.15975629643E+02  0.00000000000E+00 0.  1.
</event>
<event>
 7    1  0.2598019E-009  0.4778727E+02  0.7816164E-02  0.1312668E+00
        -11   -1    0    0    0    0  0.00000000000E+00  0.00000000000E+00  0.45593999997E+02  0.45594000000E+02  0.51100000000E-03 0.  1.
         11   -1    0    0    0    0 -0.00000000000E+00 -0.00000000000E+00 -0.45593999997E+02  0.45594000000E+02  0.51100000000E-03 0. -1.
    9900012    2    1    2    0    0 -0.19172155919E+02  0.32470416334E+02  0.21487761296E+02  0.47787269764E+02  0.19999994162E+02 0.  0.
        -12    1    1    2    0    0  0.19172155919E+02 -0.32470416334E+02 -0.21487761296E+02  0.43400730236E+02  0.00000000000E+00 0.  1.
         11    1    3    3    0    0 -0.98295418441E+00  0.74817047628E+00 -0.51686510852E+00  0.13390697487E+01  0.51100000000E-03 0. -1.
        -11    1    3    3    0    0 -0.50377634325E+01  0.10222558950E+02 -0.20832097538E+01  0.11585315491E+02  0.51100000000E-03 0.  1.
        -12    1    3    3    0    0 -0.13151438303E+02  0.21499686908E+02  0.24087836159E+02  0.34862884525E+02  0.00000000000E+00 0.  1.
</event>
<event>
 7    1  0.2598019E-009  0.4778727E+02  0.7816164E-02  0.1312668E+00
        -11   -1    0    0    0    0  0.00000000000E+00  0.00000000000E+00  0.45593999997E+02  0.45594000000E+02  0.51100000000E-03 0. -1.
         11   -1    0    0    0    0 -0.00000000000E+00 -0.00000000000E+00 -0.45593999997E+02  0.45594000000E+02  0.51100000000E-03 0.  1.
    9900012    2    1    2    0    0 -0.24329448927E+02  0.26664654096E+02  0.24097667394E+02  0.47787269166E+02  0.19999991435E+02 0.  0.
        -12    1    1    2    0    0  0.24329448927E+02 -0.26664654096E+02 -0.24097667394E+02  0.43400730834E+02  0.00000000000E+00 0.  1.
         11    1    3    3    0    0 -0.95601926564E+01  0.19963102619E+02  0.14300643854E+02  0.26352061868E+02  0.51100000000E-03 0. -1.
        -11    1    3    3    0    0 -0.59284611111E+01  0.67762776825E+00  0.88791430513E+01  0.10697897556E+02  0.51100000000E-03 0.  1.
        -12    1    3    3    0    0 -0.88407951594E+01  0.60239237078E+01  0.91788048846E+00  0.10737309741E+02  0.00000000000E+00 0.  1.
</event>
<event>
 7    1  0.2598019E-009  0.4778727E+02  0.7816164E-02  0.1312668E+00
        -11   -1    0    0    0    0  0.00000000000E+00  0.00000000000E+00  0.45593999997E+02  0.45594000000E+02  0.51100000000E-03 0. -1.
         11   -1    0    0    0    0 -0.00000000000E+00 -0.00000000000E+00 -0.45593999997E+02  0.45594000000E+02  0.51100000000E-03 0.  1.
    9900012    2    1    2    0    0 -0.21807217182E+02  0.11941466683E+02  0.35573445853E+02  0.47787269619E+02  0.19999993499E+02 0.  0.
        -12    1    1    2    0    0  0.21807217182E+02 -0.11941466683E+02 -0.35573445853E+02  0.43400730381E+02  0.00000000000E+00 0.  1.
         11    1    3    3    0    0 -0.84501506743E+01  0.12236580302E+02  0.22307131092E+02  0.26809458065E+02  0.51100000000E-03 0. -1.
        -11    1    3    3    0    0 -0.11610468867E+02 -0.36966902592E+01  0.11540948719E+02  0.16782788915E+02  0.51100000000E-03 0.  1.
        -12    1    3    3    0    0 -0.17465976408E+01  0.34015766399E+01  0.17253660421E+01  0.41950226382E+01  0.00000000000E+00 0.  1.
</event>
<event>
 7    1  0.2598019E-009  0.4778727E+02  0.7816164E-02  0.1312668E+00
        -11   -1    0    0    0    0  0.00000000000E+00  0.00000000000E+00  0.45593999997E+02  0.45594000000E+02  0.51100000000E-03 0.  1.
         11   -1    0    0    0    0 -0.00000000000E+00 -0.00000000000E+00 -0.45593999997E+02  0.45594000000E+02  0.51100000000E-03 0. -1.
    9900012    2    1    2    0    0 -0.38016075675E+02  0.19980466782E+02  0.62595527167E+01  0.47787273477E+02  0.20000011089E+02 0.  0.
        -12    1    1    2    0    0  0.38016075675E+02 -0.19980466782E+02 -0.62595527167E+01  0.43400726523E+02  0.00000000000E+00 0.  1.
         11    1    3    3    0    0 -0.21443504233E+02  0.42692610662E+01  0.87381934786E+01  0.23545838048E+02  0.51100000000E-03 0. -1.
        -11    1    3    3    0    0  0.44854533491E+00  0.11283884746E+01 -0.13261027690E+01  0.17980551388E+01  0.51100000000E-03 0.  1.
         12    1    3    3    0    0 -0.17021116777E+02  0.14582817241E+02 -0.11525379929E+01  0.22443380290E+02  0.00000000000E+00 0. -1.
</event>
<event>
 7    1  0.2598019E-009  0.4778721E+02  0.7816164E-02  0.1312668E+00
        -11   -1    0    0    0    0  0.00000000000E+00  0.00000000000E+00  0.45593999997E+02  0.45594000000E+02  0.51100000000E-03 0.  1.
         11   -1    0    0    0    0 -0.00000000000E+00 -0.00000000000E+00 -0.45593999997E+02  0.45594000000E+02  0.51100000000E-03 0. -1.
    9900012    2    1    2    0    0  0.36291801093E+02  0.11090324647E+02  0.21060353036E+02  0.47787209715E+02  0.19999720374E+02 0.  0.
        -12    1    1    2    0    0 -0.36291801093E+02 -0.11090324647E+02 -0.21060353036E+02  0.43400790285E+02  0.00000000000E+00 0.  1.
         11    1    3    3    0    0  0.12670725445E+02 -0.31507170529E+01  0.31342342849E+01  0.13427498876E+02  0.51100000000E-03 0. -1.
        -11    1    3    3    0    0  0.17036990213E+02  0.13045272173E+02  0.17438271633E+02  0.27650162376E+02  0.51100000000E-03 0.  1.
        -12    1    3    3    0    0  0.65840854347E+01  0.11957695266E+01  0.48784711761E+00  0.67095484634E+01  0.00000000000E+00 0.  1.
</event>
<event>
 7    1  0.2598019E-009  0.4778727E+02  0.7816164E-02  0.1312668E+00
        -11   -1    0    0    0    0  0.00000000000E+00  0.00000000000E+00  0.45593999997E+02  0.45594000000E+02  0.51100000000E-03 0.  1.
         11   -1    0    0    0    0 -0.00000000000E+00 -0.00000000000E+00 -0.45593999997E+02  0.45594000000E+02  0.51100000000E-03 0. -1.
    9900012    2    1    2    0    0 -0.28173868764E+02 -0.51322210764E+01 -0.32611605156E+02  0.47787269993E+02  0.19999995205E+02 0.  0.
        -12    1    1    2    0    0  0.28173868764E+02  0.51322210764E+01  0.32611605156E+02  0.43400730007E+02  0.00000000000E+00 0.  1.
         11    1    3    3    0    0 -0.10029829135E+02 -0.99970008377E+01 -0.19805410342E+02  0.24347315608E+02  0.51100000000E-03 0. -1.
        -11    1    3    3    0    0 -0.23337034128E+01 -0.11183377552E+01 -0.81084393087E+00  0.27118847865E+01  0.51100000000E-03 0.  1.
         12    1    3    3    0    0 -0.15810336215E+02  0.59831175165E+01 -0.11995350884E+02  0.20728069598E+02  0.00000000000E+00 0. -1.
</event>
<event>
 7    1  0.2598019E-009  0.4778730E+02  0.7816164E-02  0.1312668E+00
        -11   -1    0    0    0    0  0.00000000000E+00  0.00000000000E+00  0.45593999997E+02  0.45594000000E+02  0.51100000000E-03 0.  1.
         11   -1    0    0    0    0 -0.00000000000E+00 -0.00000000000E+00 -0.45593999997E+02  0.45594000000E+02  0.51100000000E-03 0. -1.
    9900012    2    1    2    0    0 -0.28711829399E+02  0.11204353798E+02 -0.30556741599E+02  0.47787295529E+02  0.20000111635E+02 0.  0.
        -12    1    1    2    0    0  0.28711829399E+02 -0.11204353798E+02  0.30556741599E+02  0.43400704471E+02  0.00000000000E+00 0.  1.
         11    1    3    3    0    0 -0.12196538472E+02 -0.16281160855E+01 -0.15386615604E+02  0.19701630712E+02  0.51100000000E-03 0. -1.
        -11    1    3    3    0    0 -0.11374518987E+01  0.68693082750E+01 -0.29676163494E+01  0.75688797095E+01  0.51100000000E-03 0.  1.
        -12    1    3    3    0    0 -0.15377839028E+02  0.59631616081E+01 -0.12202509645E+02  0.20516785108E+02  0.00000000000E+00 0.  1.
</event>
<event>
 7    1  0.2598019E-009  0.4778728E+02  0.7816164E-02  0.1312668E+00
        -11   -1    0    0    0    0  0.00000000000E+00  0.00000000000E+00  0.45593999997E+02  0.45594000000E+02  0.51100000000E-03 0.  1.
         11   -1    0    0    0    0 -0.00000000000E+00 -0.00000000000E+00 -0.45593999997E+02  0.45594000000E+02  0.51100000000E-03 0. -1.
    9900012    2    1    2    0    0 -0.20698821793E+02 -0.22139489449E+02 -0.31064844460E+02  0.47787276757E+02  0.20000026047E+02 0.  0.
        -12    1    1    2    0    0  0.20698821793E+02  0.22139489449E+02  0.31064844460E+02  0.43400723243E+02  0.00000000000E+00 0.  1.
         11    1    3    3    0    0 -0.29551605850E+01 -0.82391497597E+01 -0.59161271535E+01  0.10564900549E+02  0.51100000000E-03 0.  1.
        -11    1    3    3    0    0 -0.93645917624E+01 -0.97739447989E+01 -0.40185497555E+01  0.14119997104E+02  0.51100000000E-03 0. -1.
        -12    1    3    3    0    0 -0.83790694458E+01 -0.41263948900E+01 -0.21130167551E+02  0.23102379105E+02  0.00000000000E+00 0.  1.
</event>
<event>
 7    1  0.2598019E-009  0.4778727E+02  0.7816164E-02  0.1312668E+00
        -11   -1    0    0    0    0  0.00000000000E+00  0.00000000000E+00  0.45593999997E+02  0.45594000000E+02  0.51100000000E-03 0.  1.
         11   -1    0    0    0    0 -0.00000000000E+00 -0.00000000000E+00 -0.45593999997E+02  0.45594000000E+02  0.51100000000E-03 0. -1.
    9900012    2    1    2    0    0  0.41856861979E+01 -0.37640958916E+02 -0.21195783911E+02  0.47787274054E+02  0.20000013723E+02 0.  0.
        -12    1    1    2    0    0 -0.41856861979E+01  0.37640958916E+02  0.21195783911E+02  0.43400725946E+02  0.00000000000E+00 0.  1.
         11    1    3    3    0    0  0.39296750809E+00 -0.68947282541E+01 -0.60423337295E+01  0.91761374401E+01  0.51100000000E-03 0. -1.
        -11    1    3    3    0    0 -0.10251552544E+01  0.20829004795E+01 -0.75728422172E+00  0.24419044528E+01  0.51100000000E-03 0.  1.
        -12    1    3    3    0    0  0.48178739443E+01 -0.32829131141E+02 -0.14396165959E+02  0.36169232161E+02  0.00000000000E+00 0.  1.
</event>
<event>
 7    1  0.2598019E-009  0.4778727E+02  0.7816164E-02  0.1312668E+00
        -11   -1    0    0    0    0  0.00000000000E+00  0.00000000000E+00  0.45593999997E+02  0.45594000000E+02  0.51100000000E-03 0. -1.
         11   -1    0    0    0    0 -0.00000000000E+00 -0.00000000000E+00 -0.45593999997E+02  0.45594000000E+02  0.51100000000E-03 0.  1.
    9900012    2    1    2    0    0 -0.36922404794E+01 -0.10100463554E+02  0.42047249468E+02  0.47787271992E+02  0.20000004320E+02 0.  0.
        -12    1    1    2    0    0  0.36922404794E+01  0.10100463554E+02 -0.42047249468E+02  0.43400728008E+02  0.00000000000E+00 0.  1.
         11    1    3    3    0    0 -0.44147158502E+01 -0.80277459823E+01  0.22074151475E+02  0.23899844878E+02  0.51100000000E-03 0. -1.
        -11    1    3    3    0    0  0.34924137662E+01 -0.28270920029E+01  0.87864080815E+00  0.45783635764E+01  0.51100000000E-03 0.  1.
        -12    1    3    3    0    0 -0.27699383954E+01  0.75437443103E+00  0.19094457186E+02  0.19309063538E+02  0.00000000000E+00 0.  1.
</event>
<event>
 7    1  0.2598019E-009  0.4778727E+02  0.7816164E-02  0.1312668E+00
        -11   -1    0    0    0    0  0.00000000000E+00  0.00000000000E+00  0.45593999997E+02  0.45594000000E+02  0.51100000000E-03 0.  1.
         11   -1    0    0    0    0 -0.00000000000E+00 -0.00000000000E+00 -0.45593999997E+02  0.45594000000E+02  0.51100000000E-03 0. -1.
    9900012    2    1    2    0    0  0.18555548673E+02 -0.36810149076E+02 -0.13576738640E+02  0.47787270816E+02  0.19999998960E+02 0.  0.
        -12    1    1    2    0    0 -0.18555548673E+02  0.36810149076E+02  0.13576738640E+02  0.43400729184E+02  0.00000000000E+00 0.  1.
         11    1    3    3    0    0  0.89058382332E+01 -0.21310076712E+02 -0.16985279175E+02  0.28669374479E+02  0.51100000000E-03 0. -1.
        -11    1    3    3    0    0  0.57192576237E+01 -0.59156214907E+01  0.29756330257E+01  0.87497930005E+01  0.51100000000E-03 0.  1.
         12    1    3    3    0    0  0.39304528165E+01 -0.95844508731E+01  0.43290750937E+00  0.10368103336E+02  0.00000000000E+00 0. -1.
</event>
<event>
 7    1  0.2598019E-009  0.4778727E+02  0.7816164E-02  0.1312668E+00
        -11   -1    0    0    0    0  0.00000000000E+00  0.00000000000E+00  0.45593999997E+02  0.45594000000E+02  0.51100000000E-03 0. -1.
         11   -1    0    0    0    0 -0.00000000000E+00 -0.00000000000E+00 -0.45593999997E+02  0.45594000000E+02  0.51100000000E-03 0.  1.
    9900012    2    1    2    0    0  0.37377152421E+00  0.37521368451E+02  0.21808949176E+02  0.47787273511E+02  0.20000011245E+02 0.  0.
        -12    1    1    2    0    0 -0.37377152421E+00 -0.37521368451E+02 -0.21808949176E+02  0.43400726489E+02  0.00000000000E+00 0.  1.
         11    1    3    3    0    0 -0.15031727484E+00  0.28190138942E+02  0.11358586198E+02  0.30392828258E+02  0.51100000000E-03 0. -1.
        -11    1    3    3    0    0 -0.65754576139E+00 -0.21168509855E+01  0.74159943265E+00  0.23373905328E+01  0.51100000000E-03 0.  1.
        -12    1    3    3    0    0  0.11816345604E+01  0.11448080495E+02  0.97087635459E+01  0.15057054720E+02  0.00000000000E+00 0.  1.
</event>
<event>
 7    1  0.2598019E-009  0.4778726E+02  0.7816164E-02  0.1312668E+00
        -11   -1    0    0    0    0  0.00000000000E+00  0.00000000000E+00  0.45593999997E+02  0.45594000000E+02  0.51100000000E-03 0.  1.
         11   -1    0    0    0    0 -0.00000000000E+00 -0.00000000000E+00 -0.45593999997E+02  0.45594000000E+02  0.51100000000E-03 0. -1.
    9900012    2    1    2    0    0 -0.25696858469E+02  0.18594746863E+01 -0.34926183710E+02  0.47787257036E+02  0.19999936132E+02 0.  0.
        -12    1    1    2    0    0  0.25696858469E+02 -0.18594746863E+01  0.34926183710E+02  0.43400742964E+02  0.00000000000E+00 0.  1.
         11    1    3    3    0    0 -0.11377184932E+02  0.49317123382E+01 -0.65438935364E+01  0.14020865396E+02  0.51100000000E-03 0. -1.
        -11    1    3    3    0    0 -0.84032006883E+01 -0.66225714755E+01 -0.12523028299E+02  0.16471140604E+02  0.51100000000E-03 0.  1.
        -12    1    3    3    0    0 -0.59164728480E+01  0.35503338237E+01 -0.15859261874E+02  0.17295251036E+02  0.00000000000E+00 0.  1.
</event>
<event>
 7    1  0.2598019E-009  0.4778728E+02  0.7816164E-02  0.1312668E+00
        -11   -1    0    0    0    0  0.00000000000E+00  0.00000000000E+00  0.45593999997E+02  0.45594000000E+02  0.51100000000E-03 0.  1.
         11   -1    0    0    0    0 -0.00000000000E+00 -0.00000000000E+00 -0.45593999997E+02  0.45594000000E+02  0.51100000000E-03 0. -1.
    9900012    2    1    2    0    0 -0.24891903625E+02  0.29057328926E+02 -0.20486271745E+02  0.47787279264E+02  0.20000037475E+02 0.  0.
        -12    1    1    2    0    0  0.24891903625E+02 -0.29057328926E+02  0.20486271745E+02  0.43400720736E+02  0.00000000000E+00 0.  1.
         11    1    3    3    0    0 -0.14953992774E+02  0.13752559197E+02 -0.14744383966E+02  0.25102821418E+02  0.51100000000E-03 0. -1.
        -11    1    3    3    0    0  0.28680270610E+01  0.25679155233E+01 -0.14993958539E+01  0.41313384690E+01  0.51100000000E-03 0.  1.
        -12    1    3    3    0    0 -0.12805937912E+02  0.12736854206E+02 -0.42424919255E+01  0.18553119377E+02  0.00000000000E+00 0.  1.
</event>
<event>
 7    1  0.2598019E-009  0.4778727E+02  0.7816164E-02  0.1312668E+00
        -11   -1    0    0    0    0  0.00000000000E+00  0.00000000000E+00  0.45593999997E+02  0.45594000000E+02  0.51100000000E-03 0. -1.
         11   -1    0    0    0    0 -0.00000000000E+00 -0.00000000000E+00 -0.45593999997E+02  0.45594000000E+02  0.51100000000E-03 0.  1.
    9900012    2    1    2    0    0 -0.39764361312E+02 -0.17032706812E+02  0.35079515363E+01  0.47787271251E+02  0.20000000944E+02 0.  0.
        -12    1    1    2    0    0  0.39764361312E+02  0.17032706812E+02 -0.35079515363E+01  0.43400728749E+02  0.00000000000E+00 0.  1.
         11    1    3    3    0    0 -0.58864483683E+01 -0.90169877313E+01  0.45541655178E+01  0.11691739219E+02  0.51100000000E-03 0. -1.
        -11    1    3    3    0    0  0.47967640780E+00 -0.67654704872E+00  0.42526891384E+00  0.93201892445E+00  0.51100000000E-03 0.  1.
         12    1    3    3    0    0 -0.34357589352E+02 -0.73391720321E+01 -0.14714828953E+01  0.35163513108E+02  0.00000000000E+00 0. -1.
</event>
<event>
 7    1  0.2598019E-009  0.4778727E+02  0.7816164E-02  0.1312668E+00
        -11   -1    0    0    0    0  0.00000000000E+00  0.00000000000E+00  0.45593999997E+02  0.45594000000E+02  0.51100000000E-03 0. -1.
         11   -1    0    0    0    0 -0.00000000000E+00 -0.00000000000E+00 -0.45593999997E+02  0.45594000000E+02  0.51100000000E-03 0.  1.
    9900012    2    1    2    0    0 -0.13070724587E+02 -0.12604641006E+02  0.39419574124E+02  0.47787266824E+02  0.19999980756E+02 0.  0.
        -12    1    1    2    0    0  0.13070724587E+02  0.12604641006E+02 -0.39419574124E+02  0.43400733176E+02  0.00000000000E+00 0.  1.
         11    1    3    3    0    0 -0.32539354753E+01 -0.11473444837E+02  0.30548564335E+02  0.32793944802E+02  0.51100000000E-03 0. -1.
        -11    1    3    3    0    0  0.86282589447E+00 -0.40696726787E+00 -0.18560629711E+00  0.97187490961E+00  0.51100000000E-03 0.  1.
         12    1    3    3    0    0 -0.10679615006E+02 -0.72422890075E+00  0.90566160861E+01  0.14021447112E+02  0.00000000000E+00 0. -1.
</event>
<event>
 7    1  0.2598019E-009  0.4778727E+02  0.7816164E-02  0.1312668E+00
        -11   -1    0    0    0    0  0.00000000000E+00  0.00000000000E+00  0.45593999997E+02  0.45594000000E+02  0.51100000000E-03 0.  1.
         11   -1    0    0    0    0 -0.00000000000E+00 -0.00000000000E+00 -0.45593999997E+02  0.45594000000E+02  0.51100000000E-03 0. -1.
    9900012    2    1    2    0    0  0.14535288033E+02 -0.23538585213E+02 -0.33440750583E+02  0.47787269688E+02  0.19999993818E+02 0.  0.
        -12    1    1    2    0    0 -0.14535288033E+02  0.23538585213E+02  0.33440750583E+02  0.43400730312E+02  0.00000000000E+00 0.  1.
         11    1    3    3    0    0  0.27309719080E+01 -0.17542289205E+01 -0.41116211036E+01  0.52384114986E+01  0.51100000000E-03 0. -1.
        -11    1    3    3    0    0  0.69999222931E+01 -0.11299480246E+02 -0.27929393859E+02  0.30931023383E+02  0.51100000000E-03 0.  1.
        -12    1    3    3    0    0  0.48043938317E+01 -0.10484876046E+02 -0.13997356207E+01  0.11617834807E+02  0.00000000000E+00 0.  1.
</event>
<event>
 7    1  0.2598019E-009  0.4778727E+02  0.7816164E-02  0.1312668E+00
        -11   -1    0    0    0    0  0.00000000000E+00  0.00000000000E+00  0.45593999997E+02  0.45594000000E+02  0.51100000000E-03 0. -1.
         11   -1    0    0    0    0 -0.00000000000E+00 -0.00000000000E+00 -0.45593999997E+02  0.45594000000E+02  0.51100000000E-03 0.  1.
    9900012    2    1    2    0    0 -0.18257740463E+02  0.38214346183E+02 -0.94837737639E+01  0.47787270676E+02  0.19999998322E+02 0.  0.
        -12    1    1    2    0    0  0.18257740463E+02 -0.38214346183E+02  0.94837737639E+01  0.43400729324E+02  0.00000000000E+00 0.  1.
         11    1    3    3    0    0 -0.82081607235E+01  0.13560353638E+02  0.35954496466E+01  0.16253748850E+02  0.51100000000E-03 0. -1.
        -11    1    3    3    0    0 -0.10899474557E+02  0.23638126155E+02 -0.94870440305E+01  0.27704937438E+02  0.51100000000E-03 0.  1.
         12    1    3    3    0    0  0.84989481730E+00  0.10158663902E+01 -0.35921793800E+01  0.38285843887E+01  0.00000000000E+00 0. -1.
</event>
<event>
 7    1  0.2598019E-009  0.4778727E+02  0.7816164E-02  0.1312668E+00
        -11   -1    0    0    0    0  0.00000000000E+00  0.00000000000E+00  0.45593999997E+02  0.45594000000E+02  0.51100000000E-03 0.  1.
         11   -1    0    0    0    0 -0.00000000000E+00 -0.00000000000E+00 -0.45593999997E+02  0.45594000000E+02  0.51100000000E-03 0. -1.
    9900012    2    1    2    0    0  0.19295069380E+02 -0.25936902247E+02  0.28958603311E+02  0.47787270671E+02  0.19999998296E+02 0.  0.
        -12    1    1    2    0    0 -0.19295069380E+02  0.25936902247E+02 -0.28958603311E+02  0.43400729329E+02  0.00000000000E+00 0.  1.
         11    1    3    3    0    0  0.11287028589E+02 -0.15564988997E+02  0.64627910625E+01  0.20283825217E+02  0.51100000000E-03 0. -1.
        -11    1    3    3    0    0  0.72673036680E+01 -0.89744962330E+01  0.23087739552E+02  0.25814705172E+02  0.51100000000E-03 0.  1.
        -12    1    3    3    0    0  0.74073712337E+00 -0.13974170173E+01 -0.59192730340E+00  0.16887402816E+01  0.00000000000E+00 0.  1.
</event>
<event>
 7    1  0.2598019E-009  0.4778727E+02  0.7816164E-02  0.1312668E+00
        -11   -1    0    0    0    0  0.00000000000E+00  0.00000000000E+00  0.45593999997E+02  0.45594000000E+02  0.51100000000E-03 0. -1.
         11   -1    0    0    0    0 -0.00000000000E+00 -0.00000000000E+00 -0.45593999997E+02  0.45594000000E+02  0.51100000000E-03 0.  1.
    9900012    2    1    2    0    0  0.28129931375E+02 -0.31895577420E+02 -0.86603915230E+01  0.47787270980E+02  0.19999999708E+02 0.  0.
        -12    1    1    2    0    0 -0.28129931375E+02  0.31895577420E+02  0.86603915230E+01  0.43400729020E+02  0.00000000000E+00 0.  1.
         11    1    3    3    0    0  0.64945218730E+01 -0.16024657018E+02  0.19593414281E+01  0.17401363912E+02  0.51100000000E-03 0. -1.
        -11    1    3    3    0    0  0.19169254963E+02 -0.90987882506E+01 -0.86497257336E+01  0.22914319518E+02  0.51100000000E-03 0.  1.
        -12    1    3    3    0    0  0.24661545392E+01 -0.67721321513E+01 -0.19700072175E+01  0.74715875503E+01  0.00000000000E+00 0.  1.
</event>
<event>
 7    1  0.2598019E-009  0.4778727E+02  0.7816164E-02  0.1312668E+00
        -11   -1    0    0    0    0  0.00000000000E+00  0.00000000000E+00  0.45593999997E+02  0.45594000000E+02  0.51100000000E-03 0. -1.
         11   -1    0    0    0    0 -0.00000000000E+00 -0.00000000000E+00 -0.45593999997E+02  0.45594000000E+02  0.51100000000E-03 0.  1.
    9900012    2    1    2    0    0 -0.18324114016E+02 -0.28245938073E+02  0.27386443649E+02  0.47787268810E+02  0.19999989812E+02 0.  0.
        -12    1    1    2    0    0  0.18324114016E+02  0.28245938073E+02 -0.27386443649E+02  0.43400731190E+02  0.00000000000E+00 0.  1.
         11    1    3    3    0    0 -0.85120747872E+01 -0.14033119612E+02  0.16119762839E+02  0.23005012877E+02  0.51100000000E-03 0. -1.
        -11    1    3    3    0    0 -0.66701529574E+01 -0.90151566505E+01 -0.83141343909E+00  0.11245231811E+02  0.51100000000E-03 0.  1.
        -12    1    3    3    0    0 -0.31418862713E+01 -0.51976618110E+01  0.12098094248E+02  0.13537024122E+02  0.00000000000E+00 0.  1.
</event>
<event>
 7    1  0.2598019E-009  0.4778727E+02  0.7816164E-02  0.1312668E+00
        -11   -1    0    0    0    0  0.00000000000E+00  0.00000000000E+00  0.45593999997E+02  0.45594000000E+02  0.51100000000E-03 0.  1.
         11   -1    0    0    0    0 -0.00000000000E+00 -0.00000000000E+00 -0.45593999997E+02  0.45594000000E+02  0.51100000000E-03 0. -1.
    9900012    2    1    2    0    0  0.42068615682E+01 -0.30023453138E+02 -0.31056687118E+02  0.47787271466E+02  0.20000001921E+02 0.  0.
        -12    1    1    2    0    0 -0.42068615682E+01  0.30023453138E+02  0.31056687118E+02  0.43400728534E+02  0.00000000000E+00 0.  1.
         11    1    3    3    0    0  0.40964992041E+01 -0.13563491820E+02 -0.10000035071E+02  0.17342154357E+02  0.51100000000E-03 0. -1.
        -11    1    3    3    0    0 -0.33793244552E+01  0.70166656578E+00 -0.57819959627E+00  0.34994977893E+01  0.51100000000E-03 0.  1.
        -12    1    3    3    0    0  0.34896868192E+01 -0.17161627884E+02 -0.20478452451E+02  0.26945619319E+02  0.00000000000E+00 0.  1.
</event>
<event>
 7    1  0.2598019E-009  0.4778727E+02  0.7816164E-02  0.1312668E+00
        -11   -1    0    0    0    0  0.00000000000E+00  0.00000000000E+00  0.45593999997E+02  0.45594000000E+02  0.51100000000E-03 0. -1.
         11   -1    0    0    0    0 -0.00000000000E+00 -0.00000000000E+00 -0.45593999997E+02  0.45594000000E+02  0.51100000000E-03 0.  1.
    9900012    2    1    2    0    0  0.19208951614E+02 -0.45880080586E+01  0.38646985903E+02  0.47787272363E+02  0.20000006010E+02 0.  0.
        -12    1    1    2    0    0 -0.19208951614E+02  0.45880080586E+01 -0.38646985903E+02  0.43400727637E+02  0.00000000000E+00 0.  1.
         11    1    3    3    0    0  0.15467118646E+02 -0.17058799181E+01  0.26063883675E+02  0.30355688395E+02  0.51100000000E-03 0. -1.
        -11    1    3    3    0    0 -0.70382096212E+00 -0.62748475966E+01  0.80615568407E+01  0.10240008558E+02  0.51100000000E-03 0.  1.
        -12    1    3    3    0    0  0.44456539304E+01  0.33927194561E+01  0.45215453879E+01  0.71915754096E+01  0.00000000000E+00 0.  1.
</event>
<event>
 7    1  0.2598019E-009  0.4778727E+02  0.7816164E-02  0.1312668E+00
        -11   -1    0    0    0    0  0.00000000000E+00  0.00000000000E+00  0.45593999997E+02  0.45594000000E+02  0.51100000000E-03 0.  1.
         11   -1    0    0    0    0 -0.00000000000E+00 -0.00000000000E+00 -0.45593999997E+02  0.45594000000E+02  0.51100000000E-03 0. -1.
    9900012    2    1    2    0    0 -0.87161469315E+01  0.19051466750E+02 -0.38009126177E+02  0.47787271027E+02  0.19999999920E+02 0.  0.
        -12    1    1    2    0    0  0.87161469315E+01 -0.19051466750E+02  0.38009126177E+02  0.43400728973E+02  0.00000000000E+00 0.  1.
         11    1    3    3    0    0 -0.50592589057E+01  0.88414075989E+01 -0.23302961513E+02  0.25432156899E+02  0.51100000000E-03 0. -1.
        -11    1    3    3    0    0 -0.62532440194E+01  0.84683729389E+01 -0.40990505996E+01  0.11296841022E+02  0.51100000000E-03 0.  1.
        -12    1    3    3    0    0  0.25963559935E+01  0.17416862123E+01 -0.10607114065E+02  0.11058273106E+02  0.00000000000E+00 0.  1.
</event>
<event>
 7    1  0.2598019E-009  0.4778727E+02  0.7816164E-02  0.1312668E+00
        -11   -1    0    0    0    0  0.00000000000E+00  0.00000000000E+00  0.45593999997E+02  0.45594000000E+02  0.51100000000E-03 0.  1.
         11   -1    0    0    0    0 -0.00000000000E+00 -0.00000000000E+00 -0.45593999997E+02  0.45594000000E+02  0.51100000000E-03 0. -1.
    9900012    2    1    2    0    0  0.42260857057E+02  0.61071631091E+01  0.77682498575E+01  0.47787272054E+02  0.20000004601E+02 0.  0.
        -12    1    1    2    0    0 -0.42260857057E+02 -0.61071631091E+01 -0.77682498575E+01  0.43400727946E+02  0.00000000000E+00 0.  1.
         11    1    3    3    0    0  0.22280242033E+02  0.16459098241E+01  0.10329709208E+02  0.24613433259E+02  0.51100000000E-03 0. -1.
        -11    1    3    3    0    0 -0.22866162194E+00  0.27369142355E+01 -0.19101303458E+00  0.27530840726E+01  0.51100000000E-03 0.  1.
         12    1    3    3    0    0  0.20209276646E+02  0.17243390495E+01 -0.23704463155E+01  0.20420754722E+02  0.00000000000E+00 0. -1.
</event>
<event>
 7    1  0.2598019E-009  0.4778727E+02  0.7816164E-02  0.1312668E+00
        -11   -1    0    0    0    0  0.00000000000E+00  0.00000000000E+00  0.45593999997E+02  0.45594000000E+02  0.51100000000E-03 0. -1.
         11   -1    0    0    0    0 -0.00000000000E+00 -0.00000000000E+00 -0.45593999997E+02  0.45594000000E+02  0.51100000000E-03 0.  1.
    9900012    2    1    2    0    0 -0.16103856946E+02 -0.35793206315E+02  0.18523918393E+02  0.47787269827E+02  0.19999994451E+02 0.  0.
        -12    1    1    2    0    0  0.16103856946E+02  0.35793206315E+02 -0.18523918393E+02  0.43400730173E+02  0.00000000000E+00 0.  1.
         11    1    3    3    0    0 -0.10993215358E+02 -0.29281053470E+02  0.17714368410E+02  0.35944814990E+02  0.51100000000E-03 0. -1.
        -11    1    3    3    0    0 -0.73486348317E+01 -0.39273146923E+01  0.11295191483E+01  0.84084510078E+01  0.51100000000E-03 0.  1.
         12    1    3    3    0    0  0.22379932441E+01 -0.25848381531E+01 -0.31996916469E+00  0.34340038300E+01  0.00000000000E+00 0. -1.
</event>
<event>
 7    1  0.2598019E-009  0.4778733E+02  0.7816164E-02  0.1312668E+00
        -11   -1    0    0    0    0  0.00000000000E+00  0.00000000000E+00  0.45593999997E+02  0.45594000000E+02  0.51100000000E-03 0.  1.
         11   -1    0    0    0    0 -0.00000000000E+00 -0.00000000000E+00 -0.45593999997E+02  0.45594000000E+02  0.51100000000E-03 0. -1.
    9900012    2    1    2    0    0 -0.20763557949E+02 -0.22215073392E+01 -0.38046788400E+02  0.47787325568E+02  0.20000248593E+02 0.  0.
        -12    1    1    2    0    0  0.20763557949E+02  0.22215073392E+01  0.38046788400E+02  0.43400674432E+02  0.00000000000E+00 0.  1.
         11    1    3    3    0    0 -0.17566777643E+02  0.53316835150E+01 -0.28393991478E+02  0.33811791999E+02  0.51100000000E-03 0. -1.
        -11    1    3    3    0    0 -0.21007888187E+01 -0.91123199479E+00 -0.57617619297E+01  0.62001256604E+01  0.51100000000E-03 0.  1.
         12    1    3    3    0    0 -0.10959914878E+01 -0.66419588594E+01 -0.38910349927E+01  0.77754079087E+01  0.00000000000E+00 0. -1.
</event>
<event>
 7    1  0.2598019E-009  0.4778727E+02  0.7816164E-02  0.1312668E+00
        -11   -1    0    0    0    0  0.00000000000E+00  0.00000000000E+00  0.45593999997E+02  0.45594000000E+02  0.51100000000E-03 0.  1.
         11   -1    0    0    0    0 -0.00000000000E+00 -0.00000000000E+00 -0.45593999997E+02  0.45594000000E+02  0.51100000000E-03 0. -1.
    9900012    2    1    2    0    0 -0.46954431261E+01 -0.40658640876E+02 -0.14437822436E+02  0.47787274421E+02  0.20000015396E+02 0.  0.
        -12    1    1    2    0    0  0.46954431261E+01  0.40658640876E+02  0.14437822436E+02  0.43400725579E+02  0.00000000000E+00 0.  1.
         11    1    3    3    0    0 -0.80193367294E+01 -0.24402067507E+02 -0.43608589435E+01  0.26053555443E+02  0.51100000000E-03 0. -1.
        -11    1    3    3    0    0  0.56619643570E+01 -0.46877537300E+01 -0.49718038017E+01  0.88742159494E+01  0.51100000000E-03 0.  1.
        -12    1    3    3    0    0 -0.23380707537E+01 -0.11568819639E+02 -0.51051596908E+01  0.12859503029E+02  0.00000000000E+00 0.  1.
</event>
<event>
 7    1  0.2598019E-009  0.4778728E+02  0.7816164E-02  0.1312668E+00
        -11   -1    0    0    0    0  0.00000000000E+00  0.00000000000E+00  0.45593999997E+02  0.45594000000E+02  0.51100000000E-03 0.  1.
         11   -1    0    0    0    0 -0.00000000000E+00 -0.00000000000E+00 -0.45593999997E+02  0.45594000000E+02  0.51100000000E-03 0. -1.
    9900012    2    1    2    0    0  0.17363638314E+02  0.39558590968E+02 -0.41526725256E+01  0.47787277149E+02  0.20000027832E+02 0.  0.
        -12    1    1    2    0    0 -0.17363638314E+02 -0.39558590968E+02  0.41526725256E+01  0.43400722851E+02  0.00000000000E+00 0.  1.
         11    1    3    3    0    0  0.10864184712E+01  0.17047258348E+02  0.40488376210E+01  0.17555124853E+02  0.51100000000E-03 0. -1.
        -11    1    3    3    0    0  0.50722264660E+01  0.15060974650E+01 -0.15484118202E+01  0.55130200727E+01  0.51100000000E-03 0.  1.
         12    1    3    3    0    0  0.11204993377E+02  0.21005235155E+02 -0.66530983264E+01  0.24719132223E+02  0.00000000000E+00 0. -1.
</event>
<event>
 7    1  0.2598019E-009  0.4778727E+02  0.7816164E-02  0.1312668E+00
        -11   -1    0    0    0    0  0.00000000000E+00  0.00000000000E+00  0.45593999997E+02  0.45594000000E+02  0.51100000000E-03 0. -1.
         11   -1    0    0    0    0 -0.00000000000E+00 -0.00000000000E+00 -0.45593999997E+02  0.45594000000E+02  0.51100000000E-03 0.  1.
    9900012    2    1    2    0    0  0.84773778593E+00  0.36873147722E+02 -0.22875211006E+02  0.47787274651E+02  0.20000016442E+02 0.  0.
        -12    1    1    2    0    0 -0.84773778593E+00 -0.36873147722E+02  0.22875211006E+02  0.43400725349E+02  0.00000000000E+00 0.  1.
         11    1    3    3    0    0  0.55218680953E+01  0.13944227158E+02 -0.18919269692E+01  0.15116609613E+02  0.51100000000E-03 0. -1.
        -11    1    3    3    0    0 -0.24608800443E+01  0.20051376296E+02 -0.13339412218E+02  0.24208542718E+02  0.51100000000E-03 0.  1.
         12    1    3    3    0    0 -0.22132502650E+01  0.28775442683E+01 -0.76438718194E+01  0.84621223191E+01  0.00000000000E+00 0. -1.
</event>
<event>
 7    1  0.2598019E-009  0.4778727E+02  0.7816164E-02  0.1312668E+00
        -11   -1    0    0    0    0  0.00000000000E+00  0.00000000000E+00  0.45593999997E+02  0.45594000000E+02  0.51100000000E-03 0.  1.
         11   -1    0    0    0    0 -0.00000000000E+00 -0.00000000000E+00 -0.45593999997E+02  0.45594000000E+02  0.51100000000E-03 0. -1.
    9900012    2    1    2    0    0 -0.37987393929E+02  0.20795312799E+02  0.28524099868E+01  0.47787269884E+02  0.19999994707E+02 0.  0.
        -12    1    1    2    0    0  0.37987393929E+02 -0.20795312799E+02 -0.28524099868E+01  0.43400730116E+02  0.00000000000E+00 0.  1.
         11    1    3    3    0    0 -0.35268445508E+01  0.68143094292E+01 -0.46606882503E+01  0.89774974637E+01  0.51100000000E-03 0. -1.
        -11    1    3    3    0    0 -0.13713776250E+01 -0.68381643829E+00 -0.71814940808E+00  0.16923416751E+01  0.51100000000E-03 0.  1.
         12    1    3    3    0    0 -0.33089171753E+02  0.14664819808E+02  0.82312476452E+01  0.37117430745E+02  0.00000000000E+00 0. -1.
</event>
<event>
 7    1  0.2598019E-009  0.4778727E+02  0.7816164E-02  0.1312668E+00
        -11   -1    0    0    0    0  0.00000000000E+00  0.00000000000E+00  0.45593999997E+02  0.45594000000E+02  0.51100000000E-03 0. -1.
         11   -1    0    0    0    0 -0.00000000000E+00 -0.00000000000E+00 -0.45593999997E+02  0.45594000000E+02  0.51100000000E-03 0.  1.
    9900012    2    1    2    0    0 -0.27625554491E+01  0.43228202908E+02 -0.27044647320E+01  0.47787269951E+02  0.19999995016E+02 0.  0.
        -12    1    1    2    0    0  0.27625554491E+01 -0.43228202908E+02  0.27044647320E+01  0.43400730049E+02  0.00000000000E+00 0.  1.
         11    1    3    3    0    0  0.49578580660E+01  0.27822485392E+02  0.42803212725E+00  0.28264010008E+02  0.51100000000E-03 0. -1.
        -11    1    3    3    0    0 -0.62678201362E+01  0.34742030979E+01 -0.29020737519E+00  0.71721598565E+01  0.51100000000E-03 0.  1.
         12    1    3    3    0    0 -0.14525933788E+01  0.11931514418E+02 -0.28422894841E+01  0.12351100087E+02  0.00000000000E+00 0. -1.
</event>
<event>
 7    1  0.2598019E-009  0.4778727E+02  0.7816164E-02  0.1312668E+00
        -11   -1    0    0    0    0  0.00000000000E+00  0.00000000000E+00  0.45593999997E+02  0.45594000000E+02  0.51100000000E-03 0.  1.
         11   -1    0    0    0    0 -0.00000000000E+00 -0.00000000000E+00 -0.45593999997E+02  0.45594000000E+02  0.51100000000E-03 0. -1.
    9900012    2    1    2    0    0 -0.21807365027E+01  0.17365808104E+02 -0.39715196050E+02  0.47787266134E+02  0.19999977612E+02 0.  0.
        -12    1    1    2    0    0  0.21807365027E+01 -0.17365808104E+02  0.39715196050E+02  0.43400733866E+02  0.00000000000E+00 0.  1.
         11    1    3    3    0    0 -0.22555730274E+01  0.13717929970E+02 -0.18741976754E+02  0.23335185991E+02  0.51100000000E-03 0. -1.
        -11    1    3    3    0    0 -0.34001974895E+01 -0.29559520182E+01 -0.11774966820E+02  0.12607491391E+02  0.51100000000E-03 0.  1.
         12    1    3    3    0    0  0.34750340142E+01  0.66038301518E+01 -0.91982524765E+01  0.11844588752E+02  0.00000000000E+00 0. -1.
</event>
<event>
 7    1  0.2598019E-009  0.4778727E+02  0.7816164E-02  0.1312668E+00
        -11   -1    0    0    0    0  0.00000000000E+00  0.00000000000E+00  0.45593999997E+02  0.45594000000E+02  0.51100000000E-03 0.  1.
         11   -1    0    0    0    0 -0.00000000000E+00 -0.00000000000E+00 -0.45593999997E+02  0.45594000000E+02  0.51100000000E-03 0. -1.
    9900012    2    1    2    0    0  0.32835911285E+02  0.14025596422E+02 -0.24672025189E+02  0.47787271298E+02  0.20000001157E+02 0.  0.
        -12    1    1    2    0    0 -0.32835911285E+02 -0.14025596422E+02  0.24672025189E+02  0.43400728702E+02  0.00000000000E+00 0.  1.
         11    1    3    3    0    0  0.34268307566E+02  0.16457070525E+02 -0.23698284006E+02  0.44796883137E+02  0.51100000000E-03 0. -1.
        -11    1    3    3    0    0 -0.11673939555E+01 -0.18437830389E+01 -0.72909452527E+00  0.23008528049E+01  0.51100000000E-03 0.  1.
         12    1    3    3    0    0 -0.26500232542E+00 -0.58769106479E+00 -0.24464665803E+00  0.68953535616E+00  0.00000000000E+00 0. -1.
</event>
<event>
 7    1  0.2598019E-009  0.4778725E+02  0.7816164E-02  0.1312668E+00
        -11   -1    0    0    0    0  0.00000000000E+00  0.00000000000E+00  0.45593999997E+02  0.45594000000E+02  0.51100000000E-03 0.  1.
         11   -1    0    0    0    0 -0.00000000000E+00 -0.00000000000E+00 -0.45593999997E+02  0.45594000000E+02  0.51100000000E-03 0. -1.
    9900012    2    1    2    0    0  0.34095231577E+02 -0.15188236675E+02 -0.22146272298E+02  0.47787254312E+02  0.19999923708E+02 0.  0.
        -12    1    1    2    0    0 -0.34095231577E+02  0.15188236675E+02  0.22146272298E+02  0.43400745688E+02  0.00000000000E+00 0.  1.
         11    1    3    3    0    0 -0.11520968006E+01  0.97152991121E-01 -0.54407055045E+01  0.55621976223E+01  0.51100000000E-03 0. -1.
        -11    1    3    3    0    0  0.58999136735E+01 -0.11382468174E+01 -0.41858341724E+01  0.73229635498E+01  0.51100000000E-03 0.  1.
         12    1    3    3    0    0  0.29347414705E+02 -0.14147142849E+02 -0.12519732621E+02  0.34902093140E+02  0.00000000000E+00 0. -1.
</event>
<event>
 7    1  0.2598019E-009  0.4778726E+02  0.7816164E-02  0.1312668E+00
        -11   -1    0    0    0    0  0.00000000000E+00  0.00000000000E+00  0.45593999997E+02  0.45594000000E+02  0.51100000000E-03 0.  1.
         11   -1    0    0    0    0 -0.00000000000E+00 -0.00000000000E+00 -0.45593999997E+02  0.45594000000E+02  0.51100000000E-03 0. -1.
    9900012    2    1    2    0    0  0.12011821235E+02  0.77875493748E+01 -0.40971873494E+02  0.47787260464E+02  0.19999951761E+02 0.  0.
        -12    1    1    2    0    0 -0.12011821235E+02 -0.77875493748E+01  0.40971873494E+02  0.43400739536E+02  0.00000000000E+00 0.  1.
         11    1    3    3    0    0  0.44584302433E+01  0.77074133215E+01 -0.19805668254E+02  0.21715117213E+02  0.51100000000E-03 0. -1.
        -11    1    3    3    0    0 -0.16981628978E-01 -0.50314691119E+01 -0.33320555620E+01  0.60347795592E+01  0.51100000000E-03 0.  1.
        -12    1    3    3    0    0  0.75703726203E+01  0.51116051651E+01 -0.17834149678E+02  0.20037363692E+02  0.00000000000E+00 0.  1.
</event>
<event>
 7    1  0.2598019E-009  0.4778727E+02  0.7816164E-02  0.1312668E+00
        -11   -1    0    0    0    0  0.00000000000E+00  0.00000000000E+00  0.45593999997E+02  0.45594000000E+02  0.51100000000E-03 0.  1.
         11   -1    0    0    0    0 -0.00000000000E+00 -0.00000000000E+00 -0.45593999997E+02  0.45594000000E+02  0.51100000000E-03 0. -1.
    9900012    2    1    2    0    0 -0.11450702714E+02 -0.41855569021E+02  0.78471581538E+00  0.47787273858E+02  0.20000012828E+02 0.  0.
        -12    1    1    2    0    0  0.11450702714E+02  0.41855569021E+02 -0.78471581538E+00  0.43400726142E+02  0.00000000000E+00 0.  1.
         11    1    3    3    0    0 -0.88326744642E+01 -0.30641255965E+02  0.27112335502E+01  0.32003960582E+02  0.51100000000E-03 0. -1.
        -11    1    3    3    0    0 -0.84597610563E+00  0.19600189674E+01  0.67336941315E+00  0.22384763907E+01  0.51100000000E-03 0.  1.
         12    1    3    3    0    0 -0.17720521445E+01 -0.13174332024E+02 -0.25998871480E+01  0.13544836885E+02  0.00000000000E+00 0. -1.
</event>
<event>
 7    1  0.2598019E-009  0.4778727E+02  0.7816164E-02  0.1312668E+00
        -11   -1    0    0    0    0  0.00000000000E+00  0.00000000000E+00  0.45593999997E+02  0.45594000000E+02  0.51100000000E-03 0. -1.
         11   -1    0    0    0    0 -0.00000000000E+00 -0.00000000000E+00 -0.45593999997E+02  0.45594000000E+02  0.51100000000E-03 0.  1.
    9900012    2    1    2    0    0  0.39069324833E+02 -0.17619045777E+02  0.68396249680E+01  0.47787269744E+02  0.19999994073E+02 0.  0.
        -12    1    1    2    0    0 -0.39069324833E+02  0.17619045777E+02 -0.68396249680E+01  0.43400730256E+02  0.00000000000E+00 0.  1.
         11    1    3    3    0    0  0.35240851668E+02 -0.17715023611E+02  0.77267779573E+00  0.39450433700E+02  0.51100000000E-03 0. -1.
        -11    1    3    3    0    0 -0.57677142730E+00 -0.10027887218E+01  0.15322832101E+01  0.19199329668E+01  0.51100000000E-03 0.  1.
         12    1    3    3    0    0  0.44052445924E+01  0.10987665562E+01  0.45346639622E+01  0.64169030781E+01  0.00000000000E+00 0. -1.
</event>
<event>
 7    1  0.2598019E-009  0.4778727E+02  0.7816164E-02  0.1312668E+00
        -11   -1    0    0    0    0  0.00000000000E+00  0.00000000000E+00  0.45593999997E+02  0.45594000000E+02  0.51100000000E-03 0.  1.
         11   -1    0    0    0    0 -0.00000000000E+00 -0.00000000000E+00 -0.45593999997E+02  0.45594000000E+02  0.51100000000E-03 0. -1.
    9900012    2    1    2    0    0  0.33160236302E+01  0.39920064815E+01 -0.43089336673E+02  0.47787273470E+02  0.20000011059E+02 0.  0.
        -12    1    1    2    0    0 -0.33160236302E+01 -0.39920064815E+01  0.43089336673E+02  0.43400726530E+02  0.00000000000E+00 0.  1.
         11    1    3    3    0    0  0.95166658396E+01  0.27649226465E+01 -0.24118906804E+02  0.26075532433E+02  0.51100000000E-03 0. -1.
        -11    1    3    3    0    0  0.84780841040E+00 -0.17474320492E+01 -0.86476412090E+01  0.88630692544E+01  0.51100000000E-03 0.  1.
         12    1    3    3    0    0 -0.70484506198E+01  0.29745158842E+01 -0.10322788659E+02  0.12848671783E+02  0.00000000000E+00 0. -1.
</event>
<event>
 7    1  0.2598019E-009  0.4778727E+02  0.7816164E-02  0.1312668E+00
        -11   -1    0    0    0    0  0.00000000000E+00  0.00000000000E+00  0.45593999997E+02  0.45594000000E+02  0.51100000000E-03 0. -1.
         11   -1    0    0    0    0 -0.00000000000E+00 -0.00000000000E+00 -0.45593999997E+02  0.45594000000E+02  0.51100000000E-03 0.  1.
    9900012    2    1    2    0    0 -0.34324860271E+02 -0.13982733251E+02  0.22581201327E+02  0.47787268265E+02  0.19999987326E+02 0.  0.
        -12    1    1    2    0    0  0.34324860271E+02  0.13982733251E+02 -0.22581201327E+02  0.43400731735E+02  0.00000000000E+00 0.  1.
         11    1    3    3    0    0 -0.47691534779E+01 -0.47411354678E+01  0.14025903589E+02  0.15554715110E+02  0.51100000000E-03 0. -1.
        -11    1    3    3    0    0 -0.20741328319E+02 -0.75425766348E+01  0.54403925791E+01  0.22730838840E+02  0.51100000000E-03 0.  1.
         12    1    3    3    0    0 -0.88143784745E+01 -0.16990211482E+01  0.31149051591E+01  0.95017143139E+01  0.00000000000E+00 0. -1.
</event>
<event>
 7    1  0.2598019E-009  0.4778727E+02  0.7816164E-02  0.1312668E+00
        -11   -1    0    0    0    0  0.00000000000E+00  0.00000000000E+00  0.45593999997E+02  0.45594000000E+02  0.51100000000E-03 0.  1.
         11   -1    0    0    0    0 -0.00000000000E+00 -0.00000000000E+00 -0.45593999997E+02  0.45594000000E+02  0.51100000000E-03 0. -1.
    9900012    2    1    2    0    0  0.33342899148E+02  0.15913847730E+01 -0.27737010020E+02  0.47787272426E+02  0.20000006298E+02 0.  0.
        -12    1    1    2    0    0 -0.33342899148E+02 -0.15913847730E+01  0.27737010020E+02  0.43400727574E+02  0.00000000000E+00 0.  1.
         11    1    3    3    0    0  0.19559141347E+02  0.13818219580E+01 -0.25726005238E+02  0.32346511217E+02  0.51100000000E-03 0. -1.
        -11    1    3    3    0    0  0.11217768205E+02 -0.23933202035E+01 -0.25387154698E+01  0.11747824547E+02  0.51100000000E-03 0.  1.
         12    1    3    3    0    0  0.25659895962E+01  0.26028830185E+01  0.52771068747E+00  0.36929366614E+01  0.00000000000E+00 0. -1.
</event>
<event>
 7    1  0.2598019E-009  0.4778728E+02  0.7816164E-02  0.1312668E+00
        -11   -1    0    0    0    0  0.00000000000E+00  0.00000000000E+00  0.45593999997E+02  0.45594000000E+02  0.51100000000E-03 0. -1.
         11   -1    0    0    0    0 -0.00000000000E+00 -0.00000000000E+00 -0.45593999997E+02  0.45594000000E+02  0.51100000000E-03 0.  1.
    9900012    2    1    2    0    0 -0.32894688412E+02 -0.24457421326E+02  0.14261729253E+02  0.47787275295E+02  0.20000019379E+02 0.  0.
        -12    1    1    2    0    0  0.32894688412E+02  0.24457421326E+02 -0.14261729253E+02  0.43400724705E+02  0.00000000000E+00 0.  1.
         11    1    3    3    0    0 -0.21367685701E+02 -0.23855088444E+02  0.13394270726E+02  0.34713826142E+02  0.51100000000E-03 0. -1.
        -11    1    3    3    0    0 -0.10790598719E+02 -0.22998360913E+01  0.73615847267E-02  0.11032965205E+02  0.51100000000E-03 0.  1.
         12    1    3    3    0    0 -0.73640399183E+00  0.16975032099E+01  0.86009694284E+00  0.20404839470E+01  0.00000000000E+00 0. -1.
</event>
<event>
 7    1  0.2598019E-009  0.4778727E+02  0.7816164E-02  0.1312668E+00
        -11   -1    0    0    0    0  0.00000000000E+00  0.00000000000E+00  0.45593999997E+02  0.45594000000E+02  0.51100000000E-03 0.  1.
         11   -1    0    0    0    0 -0.00000000000E+00 -0.00000000000E+00 -0.45593999997E+02  0.45594000000E+02  0.51100000000E-03 0. -1.
    9900012    2    1    2    0    0 -0.13090550014E+02 -0.23368759533E+02 -0.34149118335E+02  0.47787266079E+02  0.19999977361E+02 0.  0.
        -12    1    1    2    0    0  0.13090550014E+02  0.23368759533E+02  0.34149118335E+02  0.43400733921E+02  0.00000000000E+00 0.  1.
         11    1    3    3    0    0 -0.11257781414E+02 -0.18889406219E+02 -0.18320795741E+02  0.28621650311E+02  0.51100000000E-03 0. -1.
        -11    1    3    3    0    0  0.38311744820E+01 -0.13642752989E+01 -0.83010455895E+01  0.92437277730E+01  0.51100000000E-03 0.  1.
        -12    1    3    3    0    0 -0.56639430824E+01 -0.31150780154E+01 -0.75272770047E+01  0.99218879952E+01  0.00000000000E+00 0.  1.
</event>
<event>
 7    1  0.2598019E-009  0.4778726E+02  0.7816164E-02  0.1312668E+00
        -11   -1    0    0    0    0  0.00000000000E+00  0.00000000000E+00  0.45593999997E+02  0.45594000000E+02  0.51100000000E-03 0.  1.
         11   -1    0    0    0    0 -0.00000000000E+00 -0.00000000000E+00 -0.45593999997E+02  0.45594000000E+02  0.51100000000E-03 0. -1.
    9900012    2    1    2    0    0  0.23786709111E+01 -0.16179936878E+02 -0.40201686532E+02  0.47787262303E+02  0.19999960143E+02 0.  0.
        -12    1    1    2    0    0 -0.23786709111E+01  0.16179936878E+02  0.40201686532E+02  0.43400737697E+02  0.00000000000E+00 0.  1.
         11    1    3    3    0    0 -0.31646714381E+01 -0.14622943808E+02 -0.22894012741E+02  0.27349249543E+02  0.51100000000E-03 0. -1.
        -11    1    3    3    0    0  0.71545852234E+01 -0.33522883133E+01 -0.10013159347E+02  0.12754971071E+02  0.51100000000E-03 0.  1.
         12    1    3    3    0    0 -0.16112428742E+01  0.17952952441E+01 -0.72945144441E+01  0.76830416886E+01  0.00000000000E+00 0. -1.
</event>
<event>
 7    1  0.2598019E-009  0.4778727E+02  0.7816164E-02  0.1312668E+00
        -11   -1    0    0    0    0  0.00000000000E+00  0.00000000000E+00  0.45593999997E+02  0.45594000000E+02  0.51100000000E-03 0.  1.
         11   -1    0    0    0    0 -0.00000000000E+00 -0.00000000000E+00 -0.45593999997E+02  0.45594000000E+02  0.51100000000E-03 0. -1.
    9900012    2    1    2    0    0  0.30970002665E+02 -0.30391055182E+02  0.93054784472E+00  0.47787271672E+02  0.20000002859E+02 0.  0.
        -12    1    1    2    0    0 -0.30970002665E+02  0.30391055182E+02 -0.93054784472E+00  0.43400728328E+02  0.00000000000E+00 0.  1.
         11    1    3    3    0    0  0.20005379026E+02 -0.15466946574E+02 -0.10420622473E+01  0.25308645169E+02  0.51100000000E-03 0. -1.
        -11    1    3    3    0    0 -0.61592736615E+00 -0.81225761602E+01 -0.21592410687E+01  0.84272137894E+01  0.51100000000E-03 0.  1.
        -12    1    3    3    0    0  0.11580551005E+02 -0.68015324480E+01  0.41318511607E+01  0.14051412713E+02  0.00000000000E+00 0.  1.
</event>
<event>
 7    1  0.2598019E-009  0.4778727E+02  0.7816164E-02  0.1312668E+00
        -11   -1    0    0    0    0  0.00000000000E+00  0.00000000000E+00  0.45593999997E+02  0.45594000000E+02  0.51100000000E-03 0. -1.
         11   -1    0    0    0    0 -0.00000000000E+00 -0.00000000000E+00 -0.45593999997E+02  0.45594000000E+02  0.51100000000E-03 0.  1.
    9900012    2    1    2    0    0  0.87901528259E+01  0.12586371900E+02  0.40594825080E+02  0.47787269964E+02  0.19999995075E+02 0.  0.
        -12    1    1    2    0    0 -0.87901528259E+01 -0.12586371900E+02 -0.40594825080E+02  0.43400730036E+02  0.00000000000E+00 0.  1.
         11    1    3    3    0    0  0.95053521062E+01  0.92773190970E+01  0.25512657881E+02  0.28763102766E+02  0.51100000000E-03 0. -1.
        -11    1    3    3    0    0 -0.59117725152E+01  0.16220864696E+01  0.78309009223E+01  0.99450102213E+01  0.51100000000E-03 0.  1.
        -12    1    3    3    0    0  0.51965732349E+01  0.16869663338E+01  0.72512662767E+01  0.90791569770E+01  0.00000000000E+00 0.  1.
</event>
<event>
 7    1  0.2598019E-009  0.4778727E+02  0.7816164E-02  0.1312668E+00
        -11   -1    0    0    0    0  0.00000000000E+00  0.00000000000E+00  0.45593999997E+02  0.45594000000E+02  0.51100000000E-03 0.  1.
         11   -1    0    0    0    0 -0.00000000000E+00 -0.00000000000E+00 -0.45593999997E+02  0.45594000000E+02  0.51100000000E-03 0. -1.
    9900012    2    1    2    0    0  0.31905967428E+02  0.27128187748E+02  0.11388312696E+02  0.47787274268E+02  0.20000014697E+02 0.  0.
        -12    1    1    2    0    0 -0.31905967428E+02 -0.27128187748E+02 -0.11388312696E+02  0.43400725732E+02  0.00000000000E+00 0.  1.
         11    1    3    3    0    0  0.18338306801E+02  0.23051049340E+02  0.72427143294E-01  0.29455892754E+02  0.51100000000E-03 0. -1.
        -11    1    3    3    0    0  0.55020065029E+01  0.24804205555E+01  0.61738435249E+01  0.86337075363E+01  0.51100000000E-03 0.  1.
         12    1    3    3    0    0  0.80656541244E+01  0.15967178523E+01  0.51420420279E+01  0.96976739774E+01  0.00000000000E+00 0. -1.
</event>
<event>
 7    1  0.2598019E-009  0.4778725E+02  0.7816164E-02  0.1312668E+00
        -11   -1    0    0    0    0  0.00000000000E+00  0.00000000000E+00  0.45593999997E+02  0.45594000000E+02  0.51100000000E-03 0. -1.
         11   -1    0    0    0    0 -0.00000000000E+00 -0.00000000000E+00 -0.45593999997E+02  0.45594000000E+02  0.51100000000E-03 0.  1.
    9900012    2    1    2    0    0 -0.32421588875E+02  0.27043208264E+02  0.10056356460E+02  0.47787252960E+02  0.19999917544E+02 0.  0.
        -12    1    1    2    0    0  0.32421588875E+02 -0.27043208264E+02 -0.10056356460E+02  0.43400747040E+02  0.00000000000E+00 0.  1.
         11    1    3    3    0    0 -0.29822711440E+02  0.27475572090E+02  0.81066637934E+01  0.41352378135E+02  0.51100000000E-03 0. -1.
        -11    1    3    3    0    0  0.13662210874E+01 -0.88865533618E+00 -0.55626751584E+00  0.17221214175E+01  0.51100000000E-03 0.  1.
         12    1    3    3    0    0 -0.39650985225E+01  0.45629151001E+00  0.25059601828E+01  0.47127534068E+01  0.00000000000E+00 0. -1.
</event>
<event>
 7    1  0.2598019E-009  0.4778725E+02  0.7816164E-02  0.1312668E+00
        -11   -1    0    0    0    0  0.00000000000E+00  0.00000000000E+00  0.45593999997E+02  0.45594000000E+02  0.51100000000E-03 0. -1.
         11   -1    0    0    0    0 -0.00000000000E+00 -0.00000000000E+00 -0.45593999997E+02  0.45594000000E+02  0.51100000000E-03 0.  1.
    9900012    2    1    2    0    0  0.23418605090E+02 -0.34187268923E+02  0.12900559168E+02  0.47787252913E+02  0.19999917333E+02 0.  0.
        -12    1    1    2    0    0 -0.23418605090E+02  0.34187268923E+02 -0.12900559168E+02  0.43400747087E+02  0.00000000000E+00 0.  1.
         11    1    3    3    0    0  0.31498554737E+01 -0.20500417005E+01  0.74404977287E+01  0.83357823382E+01  0.51100000000E-03 0. -1.
        -11    1    3    3    0    0  0.85478375352E+01 -0.10954162875E+02 -0.21809986790E+01  0.14064706407E+02  0.51100000000E-03 0.  1.
         12    1    3    3    0    0  0.11720912081E+02 -0.21183064348E+02  0.76410601186E+01  0.25386764168E+02  0.00000000000E+00 0. -1.
</event>
<event>
 7    1  0.2598019E-009  0.4778727E+02  0.7816164E-02  0.1312668E+00
        -11   -1    0    0    0    0  0.00000000000E+00  0.00000000000E+00  0.45593999997E+02  0.45594000000E+02  0.51100000000E-03 0. -1.
         11   -1    0    0    0    0 -0.00000000000E+00 -0.00000000000E+00 -0.45593999997E+02  0.45594000000E+02  0.51100000000E-03 0.  1.
    9900012    2    1    2    0    0  0.24235176639E+02  0.35868249523E+02  0.31222165331E+01  0.47787270206E+02  0.19999996177E+02 0.  0.
        -12    1    1    2    0    0 -0.24235176639E+02 -0.35868249523E+02 -0.31222165331E+01  0.43400729794E+02  0.00000000000E+00 0.  1.
         11    1    3    3    0    0  0.20145981027E+01  0.99651148402E+01 -0.10231767104E+01  0.10218072721E+02  0.51100000000E-03 0. -1.
        -11    1    3    3    0    0  0.13998645737E+02  0.15792149753E+02 -0.49511700736E+01  0.21676442550E+02  0.51100000000E-03 0.  1.
        -12    1    3    3    0    0  0.82219327995E+01  0.10110984930E+02  0.90965633171E+01  0.15892754934E+02  0.00000000000E+00 0.  1.
</event>
<event>
 7    1  0.2598019E-009  0.4778727E+02  0.7816164E-02  0.1312668E+00
        -11   -1    0    0    0    0  0.00000000000E+00  0.00000000000E+00  0.45593999997E+02  0.45594000000E+02  0.51100000000E-03 0.  1.
         11   -1    0    0    0    0 -0.00000000000E+00 -0.00000000000E+00 -0.45593999997E+02  0.45594000000E+02  0.51100000000E-03 0. -1.
    9900012    2    1    2    0    0 -0.47635122162E+01 -0.29323497811E+01 -0.43038744926E+02  0.47787270874E+02  0.19999999221E+02 0.  0.
        -12    1    1    2    0    0  0.47635122162E+01  0.29323497811E+01  0.43038744926E+02  0.43400729126E+02  0.00000000000E+00 0.  1.
         11    1    3    3    0    0 -0.29392434895E+01  0.48916024001E+01 -0.11906288397E+02  0.13203281031E+02  0.51100000000E-03 0. -1.
        -11    1    3    3    0    0 -0.43922014491E+01  0.20497341664E+01 -0.94031485737E+01  0.10578849043E+02  0.51100000000E-03 0.  1.
         12    1    3    3    0    0  0.25679327224E+01 -0.98736863476E+01 -0.21729307956E+02  0.24005140799E+02  0.00000000000E+00 0. -1.
</event>
<event>
 7    1  0.2598019E-009  0.4778727E+02  0.7816164E-02  0.1312668E+00
        -11   -1    0    0    0    0  0.00000000000E+00  0.00000000000E+00  0.45593999997E+02  0.45594000000E+02  0.51100000000E-03 0.  1.
         11   -1    0    0    0    0 -0.00000000000E+00 -0.00000000000E+00 -0.45593999997E+02  0.45594000000E+02  0.51100000000E-03 0. -1.
    9900012    2    1    2    0    0 -0.60675008258E+01  0.18304658226E+02 -0.38881211606E+02  0.47787266193E+02  0.19999977881E+02 0.  0.
        -12    1    1    2    0    0  0.60675008258E+01 -0.18304658226E+02  0.38881211606E+02  0.43400733807E+02  0.00000000000E+00 0.  1.
         11    1    3    3    0    0 -0.24399403158E+01  0.14742742907E+02 -0.16172571233E+02  0.22019396852E+02  0.51100000000E-03 0. -1.
        -11    1    3    3    0    0 -0.51400214175E+01 -0.24741098155E+01 -0.13479979280E+02  0.14637311270E+02  0.51100000000E-03 0.  1.
        -12    1    3    3    0    0  0.15124609076E+01  0.60360251345E+01 -0.92286610929E+01  0.11130558072E+02  0.00000000000E+00 0.  1.
</event>
<event>
 7    1  0.2598019E-009  0.4778727E+02  0.7816164E-02  0.1312668E+00
        -11   -1    0    0    0    0  0.00000000000E+00  0.00000000000E+00  0.45593999997E+02  0.45594000000E+02  0.51100000000E-03 0.  1.
         11   -1    0    0    0    0 -0.00000000000E+00 -0.00000000000E+00 -0.45593999997E+02  0.45594000000E+02  0.51100000000E-03 0. -1.
    9900012    2    1    2    0    0 -0.69017640868E+00 -0.43369497418E+02 -0.14946519399E+01  0.47787266893E+02  0.19999981074E+02 0.  0.
        -12    1    1    2    0    0  0.69017640868E+00  0.43369497418E+02  0.14946519399E+01  0.43400733107E+02  0.00000000000E+00 0.  1.
         11    1    3    3    0    0 -0.93736252499E+00 -0.37364435933E+02 -0.27598785912E-01  0.37376202095E+02  0.51100000000E-03 0. -1.
        -11    1    3    3    0    0  0.40873786733E+01 -0.25778491717E+01  0.58967428789E+00  0.48682324100E+01  0.51100000000E-03 0.  1.
         12    1    3    3    0    0 -0.38401925570E+01 -0.34272123133E+01 -0.20567274419E+01  0.55428323883E+01  0.00000000000E+00 0. -1.
</event>
<event>
 7    1  0.2598019E-009  0.4778727E+02  0.7816164E-02  0.1312668E+00
        -11   -1    0    0    0    0  0.00000000000E+00  0.00000000000E+00  0.45593999997E+02  0.45594000000E+02  0.51100000000E-03 0.  1.
         11   -1    0    0    0    0 -0.00000000000E+00 -0.00000000000E+00 -0.45593999997E+02  0.45594000000E+02  0.51100000000E-03 0. -1.
    9900012    2    1    2    0    0  0.19528969723E+02  0.28113172789E+02 -0.26681312388E+02  0.47787267593E+02  0.19999984264E+02 0.  0.
        -12    1    1    2    0    0 -0.19528969723E+02 -0.28113172789E+02  0.26681312388E+02  0.43400732407E+02  0.00000000000E+00 0.  1.
         11    1    3    3    0    0  0.95326315499E+01  0.16682569284E+02 -0.13283202990E+02  0.23358567253E+02  0.51100000000E-03 0. -1.
        -11    1    3    3    0    0  0.85835746016E+00 -0.28481486211E+01 -0.26921003513E+00  0.29868381947E+01  0.51100000000E-03 0.  1.
        -12    1    3    3    0    0  0.91379807130E+01  0.14278752126E+02 -0.13128899363E+02  0.21441862145E+02  0.00000000000E+00 0.  1.
</event>
<event>
 7    1  0.2598019E-009  0.4778727E+02  0.7816164E-02  0.1312668E+00
        -11   -1    0    0    0    0  0.00000000000E+00  0.00000000000E+00  0.45593999997E+02  0.45594000000E+02  0.51100000000E-03 0. -1.
         11   -1    0    0    0    0 -0.00000000000E+00 -0.00000000000E+00 -0.45593999997E+02  0.45594000000E+02  0.51100000000E-03 0.  1.
    9900012    2    1    2    0    0 -0.38577354336E+02  0.15578704723E+02 -0.12357795133E+02  0.47787269488E+02  0.19999992904E+02 0.  0.
        -12    1    1    2    0    0  0.38577354336E+02 -0.15578704723E+02  0.12357795133E+02  0.43400730512E+02  0.00000000000E+00 0.  1.
         11    1    3    3    0    0 -0.22187355893E+02  0.90194567087E+01 -0.99571930360E+01  0.25937907670E+02  0.51100000000E-03 0. -1.
        -11    1    3    3    0    0  0.13941910155E+01  0.24696989477E+01  0.14709983056E+01  0.31948423680E+01  0.51100000000E-03 0.  1.
        -12    1    3    3    0    0 -0.17784189458E+02  0.40895490668E+01 -0.38716004025E+01  0.18654519451E+02  0.00000000000E+00 0.  1.
</event>
<event>
 7    1  0.2598019E-009  0.4778724E+02  0.7816164E-02  0.1312668E+00
        -11   -1    0    0    0    0  0.00000000000E+00  0.00000000000E+00  0.45593999997E+02  0.45594000000E+02  0.51100000000E-03 0. -1.
         11   -1    0    0    0    0 -0.00000000000E+00 -0.00000000000E+00 -0.45593999997E+02  0.45594000000E+02  0.51100000000E-03 0.  1.
    9900012    2    1    2    0    0 -0.52520663900E+01 -0.13252945285E+02  0.40992701765E+02  0.47787235513E+02  0.19999837996E+02 0.  0.
        -12    1    1    2    0    0  0.52520663900E+01  0.13252945285E+02 -0.40992701765E+02  0.43400764487E+02  0.00000000000E+00 0.  1.
         11    1    3    3    0    0 -0.21036948551E+01 -0.13077390287E+02  0.13340566572E+02  0.18799318751E+02  0.51100000000E-03 0. -1.
        -11    1    3    3    0    0 -0.20758887198E+00 -0.96599156305E-01  0.25077501001E+02  0.25078546235E+02  0.51100000000E-03 0.  1.
        -12    1    3    3    0    0 -0.29407826629E+01 -0.78955841904E-01  0.25746341919E+01  0.39093705270E+01  0.00000000000E+00 0.  1.
</event>
<event>
 7    1  0.2598019E-009  0.4778727E+02  0.7816164E-02  0.1312668E+00
        -11   -1    0    0    0    0  0.00000000000E+00  0.00000000000E+00  0.45593999997E+02  0.45594000000E+02  0.51100000000E-03 0. -1.
         11   -1    0    0    0    0 -0.00000000000E+00 -0.00000000000E+00 -0.45593999997E+02  0.45594000000E+02  0.51100000000E-03 0.  1.
    9900012    2    1    2    0    0 -0.37919023259E+02  0.20055773584E+02  0.65982487583E+01  0.47787271139E+02  0.20000000431E+02 0.  0.
        -12    1    1    2    0    0  0.37919023259E+02 -0.20055773584E+02 -0.65982487583E+01  0.43400728861E+02  0.00000000000E+00 0.  1.
         11    1    3    3    0    0 -0.16649756005E+02  0.18792691914E+01  0.73202941875E+01  0.18284767840E+02  0.51100000000E-03 0. -1.
        -11    1    3    3    0    0 -0.86160653611E+01  0.11785815771E+02  0.28704090224E+01  0.14878887187E+02  0.51100000000E-03 0.  1.
        -12    1    3    3    0    0 -0.12653201894E+02  0.63906886214E+01 -0.35924544516E+01  0.14623616112E+02  0.00000000000E+00 0.  1.
</event>
<event>
 7    1  0.2598019E-009  0.4778729E+02  0.7816164E-02  0.1312668E+00
        -11   -1    0    0    0    0  0.00000000000E+00  0.00000000000E+00  0.45593999997E+02  0.45594000000E+02  0.51100000000E-03 0.  1.
         11   -1    0    0    0    0 -0.00000000000E+00 -0.00000000000E+00 -0.45593999997E+02  0.45594000000E+02  0.51100000000E-03 0. -1.
    9900012    2    1    2    0    0 -0.17547707955E+02 -0.26433785876E+02 -0.29613424925E+02  0.47787285421E+02  0.20000065548E+02 0.  0.
        -12    1    1    2    0    0  0.17547707955E+02  0.26433785876E+02  0.29613424925E+02  0.43400714579E+02  0.00000000000E+00 0.  1.
         11    1    3    3    0    0 -0.27933679171E+01 -0.62837687259E+01 -0.82672912925E+01  0.10753453366E+02  0.51100000000E-03 0. -1.
        -11    1    3    3    0    0 -0.48522260036E+01 -0.14871777513E+02 -0.36233967285E+01  0.16057486344E+02  0.51100000000E-03 0.  1.
        -12    1    3    3    0    0 -0.99021140339E+01 -0.52782396375E+01 -0.17722736904E+02  0.20976345710E+02  0.00000000000E+00 0.  1.
</event>
<event>
 7    1  0.2598019E-009  0.4778727E+02  0.7816164E-02  0.1312668E+00
        -11   -1    0    0    0    0  0.00000000000E+00  0.00000000000E+00  0.45593999997E+02  0.45594000000E+02  0.51100000000E-03 0.  1.
         11   -1    0    0    0    0 -0.00000000000E+00 -0.00000000000E+00 -0.45593999997E+02  0.45594000000E+02  0.51100000000E-03 0. -1.
    9900012    2    1    2    0    0 -0.19542306718E+02 -0.30754683496E+01 -0.38629822113E+02  0.47787269431E+02  0.19999992644E+02 0.  0.
        -12    1    1    2    0    0  0.19542306718E+02  0.30754683496E+01  0.38629822113E+02  0.43400730569E+02  0.00000000000E+00 0.  1.
         11    1    3    3    0    0 -0.20731854129E+02 -0.74554927322E+01 -0.31372273372E+02  0.38335540746E+02  0.51100000000E-03 0. -1.
        -11    1    3    3    0    0  0.74261049791E+00  0.24992027580E+01 -0.82446528754E+00  0.27344520564E+01  0.51100000000E-03 0.  1.
         12    1    3    3    0    0  0.44693691311E+00  0.18808216245E+01 -0.64330834532E+01  0.67172766285E+01  0.00000000000E+00 0. -1.
</event>
<event>
 7    1  0.2598019E-009  0.4778728E+02  0.7816164E-02  0.1312668E+00
        -11   -1    0    0    0    0  0.00000000000E+00  0.00000000000E+00  0.45593999997E+02  0.45594000000E+02  0.51100000000E-03 0.  1.
         11   -1    0    0    0    0 -0.00000000000E+00 -0.00000000000E+00 -0.45593999997E+02  0.45594000000E+02  0.51100000000E-03 0. -1.
    9900012    2    1    2    0    0 -0.10559561648E+02  0.80809926413E+01 -0.41313629209E+02  0.47787277164E+02  0.20000027900E+02 0.  0.
        -12    1    1    2    0    0  0.10559561648E+02 -0.80809926413E+01  0.41313629209E+02  0.43400722836E+02  0.00000000000E+00 0.  1.
         11    1    3    3    0    0 -0.83907651664E+01  0.45948818400E-01 -0.31827832962E+02  0.32915315625E+02  0.51100000000E-03 0. -1.
        -11    1    3    3    0    0 -0.15761811044E+00 -0.15624831602E+01 -0.75512712878E+00  0.17425310144E+01  0.51100000000E-03 0.  1.
         12    1    3    3    0    0 -0.20111783716E+01  0.95975269830E+01 -0.87306691185E+01  0.13129430524E+02  0.00000000000E+00 0. -1.
</event>
<event>
 7    1  0.2598019E-009  0.4778727E+02  0.7816164E-02  0.1312668E+00
        -11   -1    0    0    0    0  0.00000000000E+00  0.00000000000E+00  0.45593999997E+02  0.45594000000E+02  0.51100000000E-03 0.  1.
         11   -1    0    0    0    0 -0.00000000000E+00 -0.00000000000E+00 -0.45593999997E+02  0.45594000000E+02  0.51100000000E-03 0. -1.
    9900012    2    1    2    0    0 -0.31046919663E+02  0.30452961093E+01 -0.30173466048E+02  0.47787273021E+02  0.20000009012E+02 0.  0.
        -12    1    1    2    0    0  0.31046919663E+02 -0.30452961093E+01  0.30173466048E+02  0.43400726979E+02  0.00000000000E+00 0.  1.
         11    1    3    3    0    0 -0.89309434515E+00  0.17236111146E+01 -0.42331115778E+01  0.46570040450E+01  0.51100000000E-03 0. -1.
        -11    1    3    3    0    0 -0.59066220745E+01  0.66975860193E+01 -0.32900936398E+01  0.95168565839E+01  0.51100000000E-03 0.  1.
        -12    1    3    3    0    0 -0.24247203243E+02 -0.53759010246E+01 -0.22650260831E+02  0.33613412392E+02  0.00000000000E+00 0.  1.
</event>
<event>
 7    1  0.2598019E-009  0.4778723E+02  0.7816164E-02  0.1312668E+00
        -11   -1    0    0    0    0  0.00000000000E+00  0.00000000000E+00  0.45593999997E+02  0.45594000000E+02  0.51100000000E-03 0.  1.
         11   -1    0    0    0    0 -0.00000000000E+00 -0.00000000000E+00 -0.45593999997E+02  0.45594000000E+02  0.51100000000E-03 0. -1.
    9900012    2    1    2    0    0  0.21982283404E+02  0.21550922217E+02 -0.30593526070E+02  0.47787229621E+02  0.19999811135E+02 0.  0.
        -12    1    1    2    0    0 -0.21982283404E+02 -0.21550922217E+02  0.30593526070E+02  0.43400770379E+02  0.00000000000E+00 0.  1.
         11    1    3    3    0    0  0.12887608321E+02  0.12566411238E+02 -0.18554559041E+02  0.25851050290E+02  0.51100000000E-03 0. -1.
        -11    1    3    3    0    0  0.44284473462E+00  0.14366630050E+01 -0.10197803114E+02  0.10308021180E+02  0.51100000000E-03 0.  1.
        -12    1    3    3    0    0  0.86518303491E+01  0.75478479735E+01 -0.18411639155E+01  0.11628158151E+02  0.00000000000E+00 0.  1.
</event>
<event>
 7    1  0.2598019E-009  0.4778727E+02  0.7816164E-02  0.1312668E+00
        -11   -1    0    0    0    0  0.00000000000E+00  0.00000000000E+00  0.45593999997E+02  0.45594000000E+02  0.51100000000E-03 0. -1.
         11   -1    0    0    0    0 -0.00000000000E+00 -0.00000000000E+00 -0.45593999997E+02  0.45594000000E+02  0.51100000000E-03 0.  1.
    9900012    2    1    2    0    0  0.27219468419E+02  0.20199431692E+02  0.27105472194E+02  0.47787272765E+02  0.20000007843E+02 0.  0.
        -12    1    1    2    0    0 -0.27219468419E+02 -0.20199431692E+02 -0.27105472194E+02  0.43400727235E+02  0.00000000000E+00 0.  1.
         11    1    3    3    0    0  0.93982330987E+01  0.59070637447E+01  0.65278765284E+01  0.12877630205E+02  0.51100000000E-03 0. -1.
        -11    1    3    3    0    0 -0.10100373336E+01 -0.25669658662E+01  0.32603746981E+01  0.42707765813E+01  0.51100000000E-03 0.  1.
        -12    1    3    3    0    0  0.18831272654E+02  0.16859333814E+02  0.17317220968E+02  0.30638865978E+02  0.00000000000E+00 0.  1.
</event>
<event>
 7    1  0.2598019E-009  0.4778728E+02  0.7816164E-02  0.1312668E+00
        -11   -1    0    0    0    0  0.00000000000E+00  0.00000000000E+00  0.45593999997E+02  0.45594000000E+02  0.51100000000E-03 0.  1.
         11   -1    0    0    0    0 -0.00000000000E+00 -0.00000000000E+00 -0.45593999997E+02  0.45594000000E+02  0.51100000000E-03 0. -1.
    9900012    2    1    2    0    0  0.77736897573E+01  0.11255420206E+02 -0.41188682763E+02  0.47787281985E+02  0.20000049884E+02 0.  0.
        -12    1    1    2    0    0 -0.77736897573E+01 -0.11255420206E+02  0.41188682763E+02  0.43400718015E+02  0.00000000000E+00 0.  1.
         11    1    3    3    0    0  0.63759815827E+01  0.27053449513E+01 -0.23581517597E+02  0.24577632207E+02  0.51100000000E-03 0. -1.
        -11    1    3    3    0    0 -0.19566938296E+01  0.10494536839E+02 -0.97944786779E+01  0.14487779921E+02  0.51100000000E-03 0.  1.
        -12    1    3    3    0    0  0.33544020042E+01 -0.19444615845E+01 -0.78126864874E+01  0.87218698574E+01  0.00000000000E+00 0.  1.
</event>
<event>
 7    1  0.2598019E-009  0.4778726E+02  0.7816164E-02  0.1312668E+00
        -11   -1    0    0    0    0  0.00000000000E+00  0.00000000000E+00  0.45593999997E+02  0.45594000000E+02  0.51100000000E-03 0.  1.
         11   -1    0    0    0    0 -0.00000000000E+00 -0.00000000000E+00 -0.45593999997E+02  0.45594000000E+02  0.51100000000E-03 0. -1.
    9900012    2    1    2    0    0  0.36784028909E+02 -0.79774748295E+01  0.21608310259E+02  0.47787263143E+02  0.19999963976E+02 0.  0.
        -12    1    1    2    0    0 -0.36784028909E+02  0.79774748295E+01 -0.21608310259E+02  0.43400736857E+02  0.00000000000E+00 0.  1.
         11    1    3    3    0    0  0.16549921664E+02  0.35405803404E+01  0.10686735943E+02  0.20016042106E+02  0.51100000000E-03 0. -1.
        -11    1    3    3    0    0  0.63013405017E+01 -0.95035477480E+01  0.40003318301E+01  0.12084161822E+02  0.51100000000E-03 0.  1.
        -12    1    3    3    0    0  0.13932766744E+02 -0.20145074219E+01  0.69212424860E+01  0.15687059216E+02  0.00000000000E+00 0.  1.
</event>
<event>
 7    1 -0.2598019E-009  0.4778727E+02  0.7816164E-02  0.1312668E+00
        -11   -1    0    0    0    0  0.00000000000E+00  0.00000000000E+00  0.45593999997E+02  0.45594000000E+02  0.51100000000E-03 0.  1.
         11   -1    0    0    0    0 -0.00000000000E+00 -0.00000000000E+00 -0.45593999997E+02  0.45594000000E+02  0.51100000000E-03 0. -1.
    9900012    2    1    2    0    0 -0.27103654636E+02  0.30356034132E+02 -0.15083989201E+02  0.47787266906E+02  0.19999981133E+02 0.  0.
        -12    1    1    2    0    0  0.27103654636E+02 -0.30356034132E+02  0.15083989201E+02  0.43400733094E+02  0.00000000000E+00 0.  1.
         11    1    3    3    0    0 -0.10347242698E+02  0.15489250919E+01 -0.84250139802E+01  0.13432998966E+02  0.51100000000E-03 0. -1.
        -11    1    3    3    0    0 -0.17855343617E+01  0.44144204509E+01  0.67405436557E+00  0.48093232812E+01  0.51100000000E-03 0.  1.
         12    1    3    3    0    0 -0.14970877576E+02  0.24392688590E+02 -0.73330295859E+01  0.29544944660E+02  0.00000000000E+00 0. -1.
</event>
<event>
 7    1  0.2598019E-009  0.4778728E+02  0.7816164E-02  0.1312668E+00
        -11   -1    0    0    0    0  0.00000000000E+00  0.00000000000E+00  0.45593999997E+02  0.45594000000E+02  0.51100000000E-03 0.  1.
         11   -1    0    0    0    0 -0.00000000000E+00 -0.00000000000E+00 -0.45593999997E+02  0.45594000000E+02  0.51100000000E-03 0. -1.
    9900012    2    1    2    0    0  0.69123027521E+01 -0.30420318757E+02 -0.30173614748E+02  0.47787277085E+02  0.20000027539E+02 0.  0.
        -12    1    1    2    0    0 -0.69123027521E+01  0.30420318757E+02  0.30173614748E+02  0.43400722915E+02  0.00000000000E+00 0.  1.
         11    1    3    3    0    0 -0.22461633557E+00 -0.65426426466E+01 -0.16389166118E+02  0.17648268799E+02  0.51100000000E-03 0. -1.
        -11    1    3    3    0    0 -0.98370969625E+00  0.19376466669E+00 -0.17761116562E+01  0.20395593615E+01  0.51100000000E-03 0.  1.
         12    1    3    3    0    0  0.81206287839E+01 -0.24071440777E+02 -0.12008336973E+02  0.28099448924E+02  0.00000000000E+00 0. -1.
</event>
<event>
 7    1  0.2598019E-009  0.4778727E+02  0.7816164E-02  0.1312668E+00
        -11   -1    0    0    0    0  0.00000000000E+00  0.00000000000E+00  0.45593999997E+02  0.45594000000E+02  0.51100000000E-03 0.  1.
         11   -1    0    0    0    0 -0.00000000000E+00 -0.00000000000E+00 -0.45593999997E+02  0.45594000000E+02  0.51100000000E-03 0. -1.
    9900012    2    1    2    0    0 -0.17228536073E+02  0.17888536367E+02 -0.35592150254E+02  0.47787270188E+02  0.19999996094E+02 0.  0.
        -12    1    1    2    0    0  0.17228536073E+02 -0.17888536367E+02  0.35592150254E+02  0.43400729812E+02  0.00000000000E+00 0.  1.
         11    1    3    3    0    0 -0.78940644573E+01  0.28192434609E+01 -0.12554905332E+02  0.15096027143E+02  0.51100000000E-03 0. -1.
        -11    1    3    3    0    0 -0.86014069164E+01  0.11759440058E+02 -0.67539196137E+01  0.16058769001E+02  0.51100000000E-03 0.  1.
        -12    1    3    3    0    0 -0.73306469889E+00  0.33098528480E+01 -0.16283325308E+02  0.16632474044E+02  0.00000000000E+00 0.  1.
</event>
<event>
 7    1  0.2598019E-009  0.4778727E+02  0.7816164E-02  0.1312668E+00
        -11   -1    0    0    0    0  0.00000000000E+00  0.00000000000E+00  0.45593999997E+02  0.45594000000E+02  0.51100000000E-03 0.  1.
         11   -1    0    0    0    0 -0.00000000000E+00 -0.00000000000E+00 -0.45593999997E+02  0.45594000000E+02  0.51100000000E-03 0. -1.
    9900012    2    1    2    0    0 -0.11402833228E+02  0.17021656615E+02 -0.38260449212E+02  0.47787269897E+02  0.19999994768E+02 0.  0.
        -12    1    1    2    0    0  0.11402833228E+02 -0.17021656615E+02  0.38260449212E+02  0.43400730103E+02  0.00000000000E+00 0.  1.
         11    1    3    3    0    0  0.17877341583E+01  0.63239813619E-01 -0.94000229447E+01  0.95687211432E+01  0.51100000000E-03 0. -1.
        -11    1    3    3    0    0 -0.12665274308E+02  0.15522865393E+02 -0.30163036863E+02  0.36210182495E+02  0.51100000000E-03 0.  1.
        -12    1    3    3    0    0 -0.52529307854E+00  0.14355514087E+01  0.13026105952E+01  0.20083662585E+01  0.00000000000E+00 0.  1.
</event>
<event>
 7    1  0.2598019E-009  0.4778727E+02  0.7816164E-02  0.1312668E+00
        -11   -1    0    0    0    0  0.00000000000E+00  0.00000000000E+00  0.45593999997E+02  0.45594000000E+02  0.51100000000E-03 0.  1.
         11   -1    0    0    0    0 -0.00000000000E+00 -0.00000000000E+00 -0.45593999997E+02  0.45594000000E+02  0.51100000000E-03 0. -1.
    9900012    2    1    2    0    0  0.18883731698E+02  0.37244617464E+02 -0.11826531805E+02  0.47787266050E+02  0.19999977229E+02 0.  0.
        -12    1    1    2    0    0 -0.18883731698E+02 -0.37244617464E+02  0.11826531805E+02  0.43400733950E+02  0.00000000000E+00 0.  1.
         11    1    3    3    0    0  0.78533927317E+01  0.16869742110E+01 -0.23288036580E+00  0.80359126994E+01  0.51100000000E-03 0. -1.
        -11    1    3    3    0    0  0.10881834560E+01  0.10478799110E+02 -0.62499310068E+01  0.12249531087E+02  0.51100000000E-03 0.  1.
         12    1    3    3    0    0  0.99421555102E+01  0.25078844143E+02 -0.53437204323E+01  0.27501822263E+02  0.00000000000E+00 0. -1.
</event>
<event>
 7    1  0.2598019E-009  0.4778728E+02  0.7816164E-02  0.1312668E+00
        -11   -1    0    0    0    0  0.00000000000E+00  0.00000000000E+00  0.45593999997E+02  0.45594000000E+02  0.51100000000E-03 0.  1.
         11   -1    0    0    0    0 -0.00000000000E+00 -0.00000000000E+00 -0.45593999997E+02  0.45594000000E+02  0.51100000000E-03 0. -1.
    9900012    2    1    2    0    0  0.32315910190E+02 -0.49583944312E+01 -0.28543281715E+02  0.47787278142E+02  0.20000032361E+02 0.  0.
        -12    1    1    2    0    0 -0.32315910190E+02  0.49583944312E+01  0.28543281715E+02  0.43400721858E+02  0.00000000000E+00 0.  1.
         11    1    3    3    0    0  0.88323436818E+01 -0.11999047517E+00 -0.42828809901E+01  0.98167083314E+01  0.51100000000E-03 0. -1.
        -11    1    3    3    0    0  0.24850861600E+02 -0.64085982345E+01 -0.24934412117E+02  0.35782123490E+02  0.51100000000E-03 0.  1.
        -12    1    3    3    0    0 -0.13672950917E+01  0.15701942784E+01  0.67401139249E+00  0.21884463204E+01  0.00000000000E+00 0.  1.
</event>
<event>
 7    1  0.2598019E-009  0.4778727E+02  0.7816164E-02  0.1312668E+00
        -11   -1    0    0    0    0  0.00000000000E+00  0.00000000000E+00  0.45593999997E+02  0.45594000000E+02  0.51100000000E-03 0.  1.
         11   -1    0    0    0    0 -0.00000000000E+00 -0.00000000000E+00 -0.45593999997E+02  0.45594000000E+02  0.51100000000E-03 0. -1.
    9900012    2    1    2    0    0 -0.37057578342E+02 -0.19832494120E+02 -0.10818105318E+02  0.47787270303E+02  0.19999996620E+02 0.  0.
        -12    1    1    2    0    0  0.37057578342E+02  0.19832494120E+02  0.10818105318E+02  0.43400729697E+02  0.00000000000E+00 0.  1.
         11    1    3    3    0    0 -0.19090472816E+02 -0.70901268041E+01 -0.70209304018E+01  0.21540880075E+02  0.51100000000E-03 0. -1.
        -11    1    3    3    0    0 -0.85867382706E+01 -0.98794030488E+01  0.40327860826E+01  0.13696643479E+02  0.51100000000E-03 0.  1.
        -12    1    3    3    0    0 -0.93803672553E+01 -0.28629642668E+01 -0.78299609990E+01  0.12549746750E+02  0.00000000000E+00 0.  1.
</event>
<event>
 7    1  0.2598019E-009  0.4778723E+02  0.7816164E-02  0.1312668E+00
        -11   -1    0    0    0    0  0.00000000000E+00  0.00000000000E+00  0.45593999997E+02  0.45594000000E+02  0.51100000000E-03 0.  1.
         11   -1    0    0    0    0 -0.00000000000E+00 -0.00000000000E+00 -0.45593999997E+02  0.45594000000E+02  0.51100000000E-03 0. -1.
    9900012    2    1    2    0    0 -0.28015312823E+02 -0.21205101943E+01 -0.33079796175E+02  0.47787225455E+02  0.19999792141E+02 0.  0.
        -12    1    1    2    0    0  0.28015312823E+02  0.21205101943E+01  0.33079796175E+02  0.43400774545E+02  0.00000000000E+00 0.  1.
         11    1    3    3    0    0 -0.29219603158E+01 -0.23476352386E+01 -0.15333372583E+02  0.15784852180E+02  0.51100000000E-03 0. -1.
        -11    1    3    3    0    0 -0.21088964664E+02 -0.23953107148E+01 -0.11522232683E+02  0.24150440789E+02  0.51100000000E-03 0.  1.
        -12    1    3    3    0    0 -0.40043878433E+01  0.26224357591E+01 -0.62241909089E+01  0.78519324871E+01  0.00000000000E+00 0.  1.
</event>
<event>
 7    1  0.2598019E-009  0.4778729E+02  0.7816164E-02  0.1312668E+00
        -11   -1    0    0    0    0  0.00000000000E+00  0.00000000000E+00  0.45593999997E+02  0.45594000000E+02  0.51100000000E-03 0.  1.
         11   -1    0    0    0    0 -0.00000000000E+00 -0.00000000000E+00 -0.45593999997E+02  0.45594000000E+02  0.51100000000E-03 0. -1.
    9900012    2    1    2    0    0 -0.18168095361E+02  0.30088611127E+02 -0.25460117326E+02  0.47787288221E+02  0.20000078316E+02 0.  0.
        -12    1    1    2    0    0  0.18168095361E+02 -0.30088611127E+02  0.25460117326E+02  0.43400711779E+02  0.00000000000E+00 0.  1.
         11    1    3    3    0    0  0.19076343062E+01  0.12128035215E+02 -0.63674386750E+01  0.13830133129E+02  0.51100000000E-03 0. -1.
        -11    1    3    3    0    0 -0.19025386027E+02  0.15806386438E+02 -0.14229967941E+02  0.28535927417E+02  0.51100000000E-03 0.  1.
        -12    1    3    3    0    0 -0.10503436409E+01  0.21541894745E+01 -0.48627107103E+01  0.54212276753E+01  0.00000000000E+00 0.  1.
</event>
<event>
 7    1  0.2598019E-009  0.4778726E+02  0.7816164E-02  0.1312668E+00
        -11   -1    0    0    0    0  0.00000000000E+00  0.00000000000E+00  0.45593999997E+02  0.45594000000E+02  0.51100000000E-03 0.  1.
         11   -1    0    0    0    0 -0.00000000000E+00 -0.00000000000E+00 -0.45593999997E+02  0.45594000000E+02  0.51100000000E-03 0. -1.
    9900012    2    1    2    0    0 -0.72213684925E+01 -0.82246944007E+01 -0.41997979383E+02  0.47787262298E+02  0.19999960120E+02 0.  0.
        -12    1    1    2    0    0  0.72213684925E+01  0.82246944007E+01  0.41997979383E+02  0.43400737702E+02  0.00000000000E+00 0.  1.
         11    1    3    3    0    0 -0.59925545085E+01 -0.49652886611E+01 -0.31920602306E+02  0.32855587849E+02  0.51100000000E-03 0. -1.
        -11    1    3    3    0    0 -0.34870417340E+01 -0.50198218079E+01 -0.21110992218E+01  0.64664372898E+01  0.51100000000E-03 0.  1.
        -12    1    3    3    0    0  0.22582277501E+01  0.17604160683E+01 -0.79662778543E+01  0.84652371589E+01  0.00000000000E+00 0.  1.
</event>
<event>
 7    1  0.2598019E-009  0.4778727E+02  0.7816164E-02  0.1312668E+00
        -11   -1    0    0    0    0  0.00000000000E+00  0.00000000000E+00  0.45593999997E+02  0.45594000000E+02  0.51100000000E-03 0.  1.
         11   -1    0    0    0    0 -0.00000000000E+00 -0.00000000000E+00 -0.45593999997E+02  0.45594000000E+02  0.51100000000E-03 0. -1.
    9900012    2    1    2    0    0 -0.26086436115E+02  0.15604099676E+02 -0.30977950598E+02  0.47787268449E+02  0.19999988168E+02 0.  0.
        -12    1    1    2    0    0  0.26086436115E+02 -0.15604099676E+02  0.30977950598E+02  0.43400731551E+02  0.00000000000E+00 0.  1.
         11    1    3    3    0    0 -0.15836785493E+02  0.16551226301E+02 -0.27251041805E+02  0.35600086327E+02  0.51100000000E-03 0. -1.
        -11    1    3    3    0    0 -0.76348615871E+01 -0.49346737585E+00 -0.47976873949E-01  0.76509426574E+01  0.51100000000E-03 0.  1.
         12    1    3    3    0    0 -0.26147890352E+01 -0.45365924922E+00 -0.36789319191E+01  0.45362394644E+01  0.00000000000E+00 0. -1.
</event>
<event>
 7    1  0.2598019E-009  0.4778727E+02  0.7816164E-02  0.1312668E+00
        -11   -1    0    0    0    0  0.00000000000E+00  0.00000000000E+00  0.45593999997E+02  0.45594000000E+02  0.51100000000E-03 0. -1.
         11   -1    0    0    0    0 -0.00000000000E+00 -0.00000000000E+00 -0.45593999997E+02  0.45594000000E+02  0.51100000000E-03 0.  1.
    9900012    2    1    2    0    0 -0.94101660729E+01 -0.38880645389E+02 -0.16833536909E+02  0.47787265257E+02  0.19999973613E+02 0.  0.
        -12    1    1    2    0    0  0.94101660729E+01  0.38880645389E+02  0.16833536909E+02  0.43400734743E+02  0.00000000000E+00 0.  1.
         11    1    3    3    0    0 -0.51283819853E+01 -0.23960196587E+02 -0.17006565548E+02  0.29826407666E+02  0.51100000000E-03 0. -1.
        -11    1    3    3    0    0  0.23094600128E+01 -0.36955973888E+01 -0.19458248424E+01  0.47725548912E+01  0.51100000000E-03 0.  1.
         12    1    3    3    0    0 -0.65912441004E+01 -0.11224851412E+02  0.21188534805E+01  0.13188302699E+02  0.00000000000E+00 0. -1.
</event>
<event>
 7    1  0.2598019E-009  0.4778727E+02  0.7816164E-02  0.1312668E+00
        -11   -1    0    0    0    0  0.00000000000E+00  0.00000000000E+00  0.45593999997E+02  0.45594000000E+02  0.51100000000E-03 0.  1.
         11   -1    0    0    0    0 -0.00000000000E+00 -0.00000000000E+00 -0.45593999997E+02  0.45594000000E+02  0.51100000000E-03 0. -1.
    9900012    2    1    2    0    0 -0.69440765011E+01 -0.26243203043E+01 -0.42761153603E+02  0.47787268289E+02  0.19999987439E+02 0.  0.
        -12    1    1    2    0    0  0.69440765011E+01  0.26243203043E+01  0.42761153603E+02  0.43400731711E+02  0.00000000000E+00 0.  1.
         11    1    3    3    0    0  0.16648805786E+01  0.41683256687E+01 -0.16215821601E+02  0.16825564973E+02  0.51100000000E-03 0. -1.
        -11    1    3    3    0    0 -0.11084958007E+02 -0.69119052705E+01 -0.19311273983E+02  0.23314717060E+02  0.51100000000E-03 0.  1.
        -12    1    3    3    0    0  0.24760009269E+01  0.11925929743E+00 -0.72340580197E+01  0.76469862562E+01  0.00000000000E+00 0.  1.
</event>
<event>
 7    1  0.2598019E-009  0.4778727E+02  0.7816164E-02  0.1312668E+00
        -11   -1    0    0    0    0  0.00000000000E+00  0.00000000000E+00  0.45593999997E+02  0.45594000000E+02  0.51100000000E-03 0.  1.
         11   -1    0    0    0    0 -0.00000000000E+00 -0.00000000000E+00 -0.45593999997E+02  0.45594000000E+02  0.51100000000E-03 0. -1.
    9900012    2    1    2    0    0 -0.11229825114E+02  0.27101008157E+02 -0.31985148322E+02  0.47787270416E+02  0.19999997136E+02 0.  0.
        -12    1    1    2    0    0  0.11229825114E+02 -0.27101008157E+02  0.31985148322E+02  0.43400729584E+02  0.00000000000E+00 0.  1.
         11    1    3    3    0    0 -0.90247736227E+01  0.15020496379E+02 -0.11914031288E+02  0.21189761495E+02  0.51100000000E-03 0. -1.
        -11    1    3    3    0    0  0.32280815233E+01  0.91122915332E+01 -0.17293067966E+02  0.19811728022E+02  0.51100000000E-03 0.  1.
        -12    1    3    3    0    0 -0.54331330150E+01  0.29682202446E+01 -0.27780490676E+01  0.67857808984E+01  0.00000000000E+00 0.  1.
</event>
<event>
 7    1  0.2598019E-009  0.4778727E+02  0.7816164E-02  0.1312668E+00
        -11   -1    0    0    0    0  0.00000000000E+00  0.00000000000E+00  0.45593999997E+02  0.45594000000E+02  0.51100000000E-03 0.  1.
         11   -1    0    0    0    0 -0.00000000000E+00 -0.00000000000E+00 -0.45593999997E+02  0.45594000000E+02  0.51100000000E-03 0. -1.
    9900012    2    1    2    0    0  0.38968587127E+02 -0.47385654075E+01 -0.18509960968E+02  0.47787269132E+02  0.19999991282E+02 0.  0.
        -12    1    1    2    0    0 -0.38968587127E+02  0.47385654075E+01  0.18509960968E+02  0.43400730868E+02  0.00000000000E+00 0.  1.
         11    1    3    3    0    0  0.23140893711E+02 -0.27154014360E+01 -0.18372046561E+02  0.29671644070E+02  0.51100000000E-03 0. -1.
        -11    1    3    3    0    0  0.23795469407E+01  0.12437129381E+01  0.28944690278E+01  0.39480396059E+01  0.51100000000E-03 0.  1.
        -12    1    3    3    0    0  0.13448146476E+02 -0.32668769096E+01 -0.30323834342E+01  0.14167585457E+02  0.00000000000E+00 0.  1.
</event>
<event>
 7    1  0.2598019E-009  0.4778727E+02  0.7816164E-02  0.1312668E+00
        -11   -1    0    0    0    0  0.00000000000E+00  0.00000000000E+00  0.45593999997E+02  0.45594000000E+02  0.51100000000E-03 0.  1.
         11   -1    0    0    0    0 -0.00000000000E+00 -0.00000000000E+00 -0.45593999997E+02  0.45594000000E+02  0.51100000000E-03 0. -1.
    9900012    2    1    2    0    0 -0.35357641314E+01 -0.10454810405E+02 -0.41974023829E+02  0.47787269995E+02  0.19999995216E+02 0.  0.
        -12    1    1    2    0    0  0.35357641314E+01  0.10454810405E+02  0.41974023829E+02  0.43400730005E+02  0.00000000000E+00 0.  1.
         11    1    3    3    0    0  0.56372596330E+01 -0.76538298074E+01 -0.19731880417E+02  0.21902212489E+02  0.51100000000E-03 0. -1.
        -11    1    3    3    0    0 -0.78075645576E+01 -0.30239988334E+01 -0.80144656343E+01  0.11590267164E+02  0.51100000000E-03 0.  1.
         12    1    3    3    0    0 -0.13654592068E+01  0.22301823627E+00 -0.14227677778E+02  0.14294790342E+02  0.00000000000E+00 0. -1.
</event>
<event>
 7    1  0.2598019E-009  0.4778727E+02  0.7816164E-02  0.1312668E+00
        -11   -1    0    0    0    0  0.00000000000E+00  0.00000000000E+00  0.45593999997E+02  0.45594000000E+02  0.51100000000E-03 0.  1.
         11   -1    0    0    0    0 -0.00000000000E+00 -0.00000000000E+00 -0.45593999997E+02  0.45594000000E+02  0.51100000000E-03 0. -1.
    9900012    2    1    2    0    0 -0.12449502723E+01 -0.27668444896E+02 -0.33414524691E+02  0.47787271844E+02  0.20000003647E+02 0.  0.
        -12    1    1    2    0    0  0.12449502723E+01  0.27668444896E+02  0.33414524691E+02  0.43400728156E+02  0.00000000000E+00 0.  1.
         11    1    3    3    0    0 -0.16992652122E+01 -0.10284332263E+02 -0.24670950991E+02  0.26782658856E+02  0.51100000000E-03 0. -1.
        -11    1    3    3    0    0 -0.90824383382E+00  0.51836618443E+00 -0.26512912649E-01  0.10460944310E+01  0.51100000000E-03 0.  1.
         12    1    3    3    0    0  0.13625587738E+01 -0.17902478818E+02 -0.87170607869E+01  0.19958518557E+02  0.00000000000E+00 0. -1.
</event>
<event>
 7    1  0.2598019E-009  0.4778727E+02  0.7816164E-02  0.1312668E+00
        -11   -1    0    0    0    0  0.00000000000E+00  0.00000000000E+00  0.45593999997E+02  0.45594000000E+02  0.51100000000E-03 0.  1.
         11   -1    0    0    0    0 -0.00000000000E+00 -0.00000000000E+00 -0.45593999997E+02  0.45594000000E+02  0.51100000000E-03 0. -1.
    9900012    2    1    2    0    0  0.15116368459E+02  0.34417828399E+02 -0.21691748650E+02  0.47787268824E+02  0.19999989877E+02 0.  0.
        -12    1    1    2    0    0 -0.15116368459E+02 -0.34417828399E+02  0.21691748650E+02  0.43400731176E+02  0.00000000000E+00 0.  1.
         11    1    3    3    0    0  0.91077810108E+01  0.98564454772E+01 -0.89700556423E+01  0.16141966760E+02  0.51100000000E-03 0.  1.
        -11    1    3    3    0    0  0.73429516942E+01  0.24990652024E+02 -0.88206957954E+01  0.27500114595E+02  0.51100000000E-03 0. -1.
        -12    1    3    3    0    0 -0.13343642463E+01 -0.42926910193E+00 -0.39009972127E+01  0.41451874695E+01  0.00000000000E+00 0.  1.
</event>
<event>
 7    1  0.2598019E-009  0.4778728E+02  0.7816164E-02  0.1312668E+00
        -11   -1    0    0    0    0  0.00000000000E+00  0.00000000000E+00  0.45593999997E+02  0.45594000000E+02  0.51100000000E-03 0.  1.
         11   -1    0    0    0    0 -0.00000000000E+00 -0.00000000000E+00 -0.45593999997E+02  0.45594000000E+02  0.51100000000E-03 0. -1.
    9900012    2    1    2    0    0  0.10458191075E+02 -0.10968862746E+02 -0.40668577528E+02  0.47787275252E+02  0.20000019182E+02 0.  0.
        -12    1    1    2    0    0 -0.10458191075E+02  0.10968862746E+02  0.40668577528E+02  0.43400724748E+02  0.00000000000E+00 0.  1.
         11    1    3    3    0    0  0.96348541788E+01 -0.64656819993E+01 -0.28601475411E+02  0.30865512384E+02  0.51100000000E-03 0. -1.
        -11    1    3    3    0    0  0.22856271871E+01 -0.53852598090E+01 -0.12649017258E+01  0.59854065431E+01  0.51100000000E-03 0.  1.
        -12    1    3    3    0    0 -0.14622902908E+01  0.88207906204E+00 -0.10802200391E+02  0.10936356324E+02  0.00000000000E+00 0.  1.
</event>
<event>
 7    1  0.2598019E-009  0.4778727E+02  0.7816164E-02  0.1312668E+00
        -11   -1    0    0    0    0  0.00000000000E+00  0.00000000000E+00  0.45593999997E+02  0.45594000000E+02  0.51100000000E-03 0. -1.
         11   -1    0    0    0    0 -0.00000000000E+00 -0.00000000000E+00 -0.45593999997E+02  0.45594000000E+02  0.51100000000E-03 0.  1.
    9900012    2    1    2    0    0  0.40196165448E+02 -0.50703343455E+01 -0.15562233278E+02  0.47787272913E+02  0.20000008518E+02 0.  0.
        -12    1    1    2    0    0 -0.40196165448E+02  0.50703343455E+01  0.15562233278E+02  0.43400727087E+02  0.00000000000E+00 0.  1.
         11    1    3    3    0    0  0.21549047226E+02  0.12137104089E+01 -0.11816255766E+02  0.24606064900E+02  0.51100000000E-03 0. -1.
        -11    1    3    3    0    0  0.30963596609E+01 -0.42722805665E+01  0.30466984120E+01  0.60927986889E+01  0.51100000000E-03 0.  1.
        -12    1    3    3    0    0  0.15550758562E+02 -0.20117641879E+01 -0.67926759244E+01  0.17088409323E+02  0.00000000000E+00 0.  1.
</event>
<event>
 7    1  0.2598019E-009  0.4778726E+02  0.7816164E-02  0.1312668E+00
        -11   -1    0    0    0    0  0.00000000000E+00  0.00000000000E+00  0.45593999997E+02  0.45594000000E+02  0.51100000000E-03 0. -1.
         11   -1    0    0    0    0 -0.00000000000E+00 -0.00000000000E+00 -0.45593999997E+02  0.45594000000E+02  0.51100000000E-03 0.  1.
    9900012    2    1    2    0    0  0.15058002563E+02  0.40571114747E+02  0.32963193959E+01  0.47787256751E+02  0.19999934828E+02 0.  0.
        -12    1    1    2    0    0 -0.15058002563E+02 -0.40571114747E+02 -0.32963193959E+01  0.43400743249E+02  0.00000000000E+00 0.  1.
         11    1    3    3    0    0  0.79834546506E+01  0.12525602569E+02 -0.33125202720E+01  0.15218378977E+02  0.51100000000E-03 0. -1.
        -11    1    3    3    0    0  0.36329400277E+01  0.27580273458E+02  0.78101134042E+01  0.28894075671E+02  0.51100000000E-03 0.  1.
        -12    1    3    3    0    0  0.34416078850E+01  0.46523872078E+00 -0.12012737363E+01  0.36748021023E+01  0.00000000000E+00 0.  1.
</event>
<event>
 7    1  0.2598019E-009  0.4778727E+02  0.7816164E-02  0.1312668E+00
        -11   -1    0    0    0    0  0.00000000000E+00  0.00000000000E+00  0.45593999997E+02  0.45594000000E+02  0.51100000000E-03 0. -1.
         11   -1    0    0    0    0 -0.00000000000E+00 -0.00000000000E+00 -0.45593999997E+02  0.45594000000E+02  0.51100000000E-03 0.  1.
    9900012    2    1    2    0    0 -0.55644016920E+01  0.39800155776E+02  0.16389276886E+02  0.47787270019E+02  0.19999995325E+02 0.  0.
        -12    1    1    2    0    0  0.55644016920E+01 -0.39800155776E+02 -0.16389276886E+02  0.43400729981E+02  0.00000000000E+00 0.  1.
         11    1    3    3    0    0  0.38643386914E+01  0.11464328355E+02  0.72938748821E+01  0.14126731724E+02  0.51100000000E-03 0. -1.
        -11    1    3    3    0    0 -0.10128567486E+02  0.17404611530E+02  0.12285661861E+01  0.20174681087E+02  0.51100000000E-03 0.  1.
        -12    1    3    3    0    0  0.69982710292E+00  0.10931215892E+02  0.78668358181E+01  0.13485857208E+02  0.00000000000E+00 0.  1.
</event>
<event>
 7    1  0.2598019E-009  0.4778727E+02  0.7816164E-02  0.1312668E+00
        -11   -1    0    0    0    0  0.00000000000E+00  0.00000000000E+00  0.45593999997E+02  0.45594000000E+02  0.51100000000E-03 0.  1.
         11   -1    0    0    0    0 -0.00000000000E+00 -0.00000000000E+00 -0.45593999997E+02  0.45594000000E+02  0.51100000000E-03 0. -1.
    9900012    2    1    2    0    0 -0.22333462301E+02  0.35956811219E+02  0.95889183453E+01  0.47787272283E+02  0.20000005646E+02 0.  0.
        -12    1    1    2    0    0  0.22333462301E+02 -0.35956811219E+02 -0.95889183453E+01  0.43400727717E+02  0.00000000000E+00 0.  1.
         11    1    3    3    0    0 -0.23770025685E+02  0.36657798027E+02  0.69257675110E+01  0.44235444308E+02  0.51100000000E-03 0. -1.
        -11    1    3    3    0    0  0.48455023323E+00 -0.10782204465E+01  0.20263647623E+01  0.23459545330E+01  0.51100000000E-03 0.  1.
         12    1    3    3    0    0  0.95201315031E+00  0.37723363780E+00  0.63678607195E+00  0.12058734416E+01  0.00000000000E+00 0. -1.
</event>
<event>
 7    1  0.2598019E-009  0.4778727E+02  0.7816164E-02  0.1312668E+00
        -11   -1    0    0    0    0  0.00000000000E+00  0.00000000000E+00  0.45593999997E+02  0.45594000000E+02  0.51100000000E-03 0. -1.
         11   -1    0    0    0    0 -0.00000000000E+00 -0.00000000000E+00 -0.45593999997E+02  0.45594000000E+02  0.51100000000E-03 0.  1.
    9900012    2    1    2    0    0 -0.26190106364E+02  0.29858833409E+02  0.17497196299E+02  0.47787268644E+02  0.19999989056E+02 0.  0.
        -12    1    1    2    0    0  0.26190106364E+02 -0.29858833409E+02 -0.17497196299E+02  0.43400731356E+02  0.00000000000E+00 0.  1.
         11    1    3    3    0    0 -0.23999044980E+01  0.75799043704E-01  0.70187842020E+01  0.74181277307E+01  0.51100000000E-03 0.  1.
        -11    1    3    3    0    0 -0.14334656379E+02  0.16018444133E+02  0.18581277326E+01  0.21576041455E+02  0.51100000000E-03 0. -1.
         12    1    3    3    0    0 -0.94555454867E+01  0.13764590233E+02  0.86202843644E+01  0.18793099458E+02  0.00000000000E+00 0. -1.
</event>
<event>
 7    1  0.2598019E-009  0.4778727E+02  0.7816164E-02  0.1312668E+00
        -11   -1    0    0    0    0  0.00000000000E+00  0.00000000000E+00  0.45593999997E+02  0.45594000000E+02  0.51100000000E-03 0. -1.
         11   -1    0    0    0    0 -0.00000000000E+00 -0.00000000000E+00 -0.45593999997E+02  0.45594000000E+02  0.51100000000E-03 0.  1.
    9900012    2    1    2    0    0 -0.27749762451E+02  0.32579446301E+02  0.72217584605E+01  0.47787269215E+02  0.19999991661E+02 0.  0.
        -12    1    1    2    0    0  0.27749762451E+02 -0.32579446301E+02 -0.72217584605E+01  0.43400730785E+02  0.00000000000E+00 0.  1.
         11    1    3    3    0    0 -0.14075744342E+02  0.27230845562E+02  0.93431296484E+01  0.32045898344E+02  0.51100000000E-03 0. -1.
        -11    1    3    3    0    0  0.93667760746E-01 -0.52567460436E-01  0.68060910557E+00  0.68903265743E+00  0.51100000000E-03 0.  1.
         12    1    3    3    0    0 -0.13767685870E+02  0.54011681994E+01 -0.28019802935E+01  0.15052338213E+02  0.00000000000E+00 0. -1.
</event>
<event>
 7    1  0.2598019E-009  0.4778727E+02  0.7816164E-02  0.1312668E+00
        -11   -1    0    0    0    0  0.00000000000E+00  0.00000000000E+00  0.45593999997E+02  0.45594000000E+02  0.51100000000E-03 0.  1.
         11   -1    0    0    0    0 -0.00000000000E+00 -0.00000000000E+00 -0.45593999997E+02  0.45594000000E+02  0.51100000000E-03 0. -1.
    9900012    2    1    2    0    0  0.55977896881E+00  0.55976699977E+01 -0.43034587385E+02  0.47787274507E+02  0.20000015786E+02 0.  0.
        -12    1    1    2    0    0 -0.55977896881E+00 -0.55976699977E+01  0.43034587385E+02  0.43400725493E+02  0.00000000000E+00 0.  1.
         11    1    3    3    0    0 -0.40409146320E+01 -0.31601667338E+01 -0.24720048394E+02  0.25246711423E+02  0.51100000000E-03 0. -1.
        -11    1    3    3    0    0  0.33272483412E+01  0.24812172709E+00 -0.15121974161E+01  0.36631799303E+01  0.51100000000E-03 0.  1.
         12    1    3    3    0    0  0.12734452596E+01  0.85097150044E+01 -0.16802341576E+02  0.18877383153E+02  0.00000000000E+00 0. -1.
</event>
<event>
 7    1  0.2598019E-009  0.4778727E+02  0.7816164E-02  0.1312668E+00
        -11   -1    0    0    0    0  0.00000000000E+00  0.00000000000E+00  0.45593999997E+02  0.45594000000E+02  0.51100000000E-03 0. -1.
         11   -1    0    0    0    0 -0.00000000000E+00 -0.00000000000E+00 -0.45593999997E+02  0.45594000000E+02  0.51100000000E-03 0.  1.
    9900012    2    1    2    0    0 -0.37640217356E+02 -0.21601435623E+02  0.46377959393E+00  0.47787273334E+02  0.20000010440E+02 0.  0.
        -12    1    1    2    0    0  0.37640217356E+02  0.21601435623E+02 -0.46377959393E+00  0.43400726666E+02  0.00000000000E+00 0.  1.
         11    1    3    3    0    0 -0.21838236846E+02 -0.45124996735E+01  0.59984066647E+01  0.23092252481E+02  0.51100000000E-03 0. -1.
        -11    1    3    3    0    0 -0.12253046068E+02 -0.89106330035E+01 -0.33637546988E+01  0.15519386728E+02  0.51100000000E-03 0.  1.
         12    1    3    3    0    0 -0.35489344420E+01 -0.81783029464E+01 -0.21708723720E+01  0.91756341259E+01  0.00000000000E+00 0. -1.
</event>
<event>
 7    1  0.2598019E-009  0.4778727E+02  0.7816164E-02  0.1312668E+00
        -11   -1    0    0    0    0  0.00000000000E+00  0.00000000000E+00  0.45593999997E+02  0.45594000000E+02  0.51100000000E-03 0. -1.
         11   -1    0    0    0    0 -0.00000000000E+00 -0.00000000000E+00 -0.45593999997E+02  0.45594000000E+02  0.51100000000E-03 0.  1.
    9900012    2    1    2    0    0 -0.40903713590E+02  0.11041228606E+02 -0.94127912398E+01  0.47787272432E+02  0.20000006324E+02 0.  0.
        -12    1    1    2    0    0  0.40903713590E+02 -0.11041228606E+02  0.94127912398E+01  0.43400727568E+02  0.00000000000E+00 0.  1.
         11    1    3    3    0    0 -0.25271450320E+01  0.14556464770E+01  0.14374869644E+01  0.32514208760E+01  0.51100000000E-03 0.  1.
        -11    1    3    3    0    0 -0.29383400825E+02  0.77583118902E+01 -0.85764771426E-01  0.30390508441E+02  0.51100000000E-03 0. -1.
        -12    1    3    3    0    0 -0.89931677327E+01  0.18272702384E+01 -0.10764513433E+02  0.14145343115E+02  0.00000000000E+00 0.  1.
</event>
<event>
 7    1  0.2598019E-009  0.4778727E+02  0.7816164E-02  0.1312668E+00
        -11   -1    0    0    0    0  0.00000000000E+00  0.00000000000E+00  0.45593999997E+02  0.45594000000E+02  0.51100000000E-03 0. -1.
         11   -1    0    0    0    0 -0.00000000000E+00 -0.00000000000E+00 -0.45593999997E+02  0.45594000000E+02  0.51100000000E-03 0.  1.
    9900012    2    1    2    0    0 -0.21722371470E+02 -0.37567088659E+02  0.68970016404E+00  0.47787271217E+02  0.20000000785E+02 0.  0.
        -12    1    1    2    0    0  0.21722371470E+02  0.37567088659E+02 -0.68970016404E+00  0.43400728783E+02  0.00000000000E+00 0.  1.
         11    1    3    3    0    0 -0.10691780450E+02 -0.15534199653E+02  0.81515235808E+01  0.20544412014E+02  0.51100000000E-03 0. -1.
        -11    1    3    3    0    0 -0.11759541361E+02 -0.16327829901E+02 -0.39553929759E+01  0.20506827550E+02  0.51100000000E-03 0.  1.
         12    1    3    3    0    0  0.72895034076E+00 -0.57050591048E+01 -0.35064304409E+01  0.67360316526E+01  0.00000000000E+00 0. -1.
</event>
<event>
 7    1  0.2598019E-009  0.4778727E+02  0.7816164E-02  0.1312668E+00
        -11   -1    0    0    0    0  0.00000000000E+00  0.00000000000E+00  0.45593999997E+02  0.45594000000E+02  0.51100000000E-03 0. -1.
         11   -1    0    0    0    0 -0.00000000000E+00 -0.00000000000E+00 -0.45593999997E+02  0.45594000000E+02  0.51100000000E-03 0.  1.
    9900012    2    1    2    0    0  0.21983519884E+02  0.64597907520E+01  0.36859449263E+02  0.47787273704E+02  0.20000012125E+02 0.  0.
        -12    1    1    2    0    0 -0.21983519884E+02 -0.64597907520E+01 -0.36859449263E+02  0.43400726296E+02  0.00000000000E+00 0.  1.
         11    1    3    3    0    0  0.14905003286E+02  0.26153033568E+01  0.15361297963E+02  0.21563126164E+02  0.51100000000E-03 0. -1.
        -11    1    3    3    0    0  0.33638665623E+01  0.19797988467E+00  0.20682594704E+02  0.20955298095E+02  0.51100000000E-03 0.  1.
        -12    1    3    3    0    0  0.37146500363E+01  0.36465075105E+01  0.81555659618E+00  0.52688494454E+01  0.00000000000E+00 0.  1.
</event>
<event>
 7    1  0.2598019E-009  0.4778727E+02  0.7816164E-02  0.1312668E+00
        -11   -1    0    0    0    0  0.00000000000E+00  0.00000000000E+00  0.45593999997E+02  0.45594000000E+02  0.51100000000E-03 0. -1.
         11   -1    0    0    0    0 -0.00000000000E+00 -0.00000000000E+00 -0.45593999997E+02  0.45594000000E+02  0.51100000000E-03 0.  1.
    9900012    2    1    2    0    0  0.35786943429E+02 -0.10416306257E+02 -0.22235517848E+02  0.47787274085E+02  0.20000013861E+02 0.  0.
        -12    1    1    2    0    0 -0.35786943429E+02  0.10416306257E+02  0.22235517848E+02  0.43400725915E+02  0.00000000000E+00 0.  1.
         11    1    3    3    0    0  0.18420692683E+02  0.30197086160E+01 -0.82376793622E+01  0.20403429138E+02  0.51100000000E-03 0. -1.
        -11    1    3    3    0    0  0.75088106520E+01 -0.10651068544E+02 -0.98371045851E+01  0.16327771600E+02  0.51100000000E-03 0.  1.
        -12    1    3    3    0    0  0.98574400938E+01 -0.27849463286E+01 -0.41607339011E+01  0.11056073347E+02  0.00000000000E+00 0.  1.
</event>
<event>
 7    1  0.2598019E-009  0.4778728E+02  0.7816164E-02  0.1312668E+00
        -11   -1    0    0    0    0  0.00000000000E+00  0.00000000000E+00  0.45593999997E+02  0.45594000000E+02  0.51100000000E-03 0.  1.
         11   -1    0    0    0    0 -0.00000000000E+00 -0.00000000000E+00 -0.45593999997E+02  0.45594000000E+02  0.51100000000E-03 0. -1.
    9900012    2    1    2    0    0  0.73654468091E+01  0.18548204778E+02 -0.38540070926E+02  0.47787276801E+02  0.20000026248E+02 0.  0.
        -12    1    1    2    0    0 -0.73654468091E+01 -0.18548204778E+02  0.38540070926E+02  0.43400723199E+02  0.00000000000E+00 0.  1.
         11    1    3    3    0    0 -0.19595655353E+01 -0.23562728839E+01 -0.99657139390E+01  0.10426282826E+02  0.51100000000E-03 0.  1.
        -11    1    3    3    0    0 -0.50614772366E+00  0.14729247664E+00  0.18253389410E+00  0.55785255709E+00  0.51100000000E-03 0. -1.
         12    1    3    3    0    0  0.98311600680E+01  0.20757185185E+02 -0.28756890881E+02  0.36803141418E+02  0.00000000000E+00 0. -1.
</event>
<event>
 7    1  0.2598019E-009  0.4778728E+02  0.7816164E-02  0.1312668E+00
        -11   -1    0    0    0    0  0.00000000000E+00  0.00000000000E+00  0.45593999997E+02  0.45594000000E+02  0.51100000000E-03 0.  1.
         11   -1    0    0    0    0 -0.00000000000E+00 -0.00000000000E+00 -0.45593999997E+02  0.45594000000E+02  0.51100000000E-03 0. -1.
    9900012    2    1    2    0    0  0.36632116158E+02  0.15684538076E+02 -0.17196110802E+02  0.47787275403E+02  0.20000019872E+02 0.  0.
        -12    1    1    2    0    0 -0.36632116158E+02 -0.15684538076E+02  0.17196110802E+02  0.43400724597E+02  0.00000000000E+00 0.  1.
         11    1    3    3    0    0  0.60116069643E+01  0.10136270372E+01 -0.11592525966E+02  0.13097843967E+02  0.51100000000E-03 0. -1.
        -11    1    3    3    0    0  0.24317477882E+02  0.13310298104E+02 -0.37108157683E+01  0.27969160160E+02  0.51100000000E-03 0.  1.
         12    1    3    3    0    0  0.63030313118E+01  0.13606129348E+01 -0.18927690681E+01  0.67202712758E+01  0.00000000000E+00 0. -1.
</event>
<event>
 7    1  0.2598019E-009  0.4778727E+02  0.7816164E-02  0.1312668E+00
        -11   -1    0    0    0    0  0.00000000000E+00  0.00000000000E+00  0.45593999997E+02  0.45594000000E+02  0.51100000000E-03 0.  1.
         11   -1    0    0    0    0 -0.00000000000E+00 -0.00000000000E+00 -0.45593999997E+02  0.45594000000E+02  0.51100000000E-03 0. -1.
    9900012    2    1    2    0    0  0.32116401027E+02  0.61460018479E+01 -0.28537462159E+02  0.47787270741E+02  0.19999998619E+02 0.  0.
        -12    1    1    2    0    0 -0.32116401027E+02 -0.61460018479E+01  0.28537462159E+02  0.43400729259E+02  0.00000000000E+00 0.  1.
         11    1    3    3    0    0  0.25997171744E+01 -0.23337235611E+01 -0.30923877427E+01  0.46655821993E+01  0.51100000000E-03 0. -1.
        -11    1    3    3    0    0  0.89168110980E+00 -0.22846735263E+01  0.10412938121E+01  0.26644176451E+01  0.51100000000E-03 0.  1.
        -12    1    3    3    0    0  0.28625002743E+02  0.10764398935E+02 -0.26486368229E+02  0.40457270897E+02  0.00000000000E+00 0.  1.
</event>
<event>
 7    1  0.2598019E-009  0.4778727E+02  0.7816164E-02  0.1312668E+00
        -11   -1    0    0    0    0  0.00000000000E+00  0.00000000000E+00  0.45593999997E+02  0.45594000000E+02  0.51100000000E-03 0. -1.
         11   -1    0    0    0    0 -0.00000000000E+00 -0.00000000000E+00 -0.45593999997E+02  0.45594000000E+02  0.51100000000E-03 0.  1.
    9900012    2    1    2    0    0 -0.18695794096E+02  0.29171813628E+02  0.26136102443E+02  0.47787270995E+02  0.19999999776E+02 0.  0.
        -12    1    1    2    0    0  0.18695794096E+02 -0.29171813628E+02 -0.26136102443E+02  0.43400729005E+02  0.00000000000E+00 0.  1.
         11    1    3    3    0    0 -0.22632549271E+01  0.20543336698E+01  0.99612665890E+01  0.10419666118E+02  0.51100000000E-03 0. -1.
        -11    1    3    3    0    0 -0.71823303706E+01  0.12702326874E+02  0.12434675896E+01  0.14645176321E+02  0.51100000000E-03 0.  1.
         12    1    3    3    0    0 -0.92502087981E+01  0.14415153085E+02  0.14931368265E+02  0.22722428557E+02  0.00000000000E+00 0. -1.
</event>
<event>
 7    1  0.2598019E-009  0.4778727E+02  0.7816164E-02  0.1312668E+00
        -11   -1    0    0    0    0  0.00000000000E+00  0.00000000000E+00  0.45593999997E+02  0.45594000000E+02  0.51100000000E-03 0.  1.
         11   -1    0    0    0    0 -0.00000000000E+00 -0.00000000000E+00 -0.45593999997E+02  0.45594000000E+02  0.51100000000E-03 0. -1.
    9900012    2    1    2    0    0 -0.71174429530E+01 -0.37157916132E+02 -0.21266276435E+02  0.47787271448E+02  0.20000001839E+02 0.  0.
        -12    1    1    2    0    0  0.71174429530E+01  0.37157916132E+02  0.21266276435E+02  0.43400728552E+02  0.00000000000E+00 0.  1.
         11    1    3    3    0    0  0.12046274130E+00 -0.69771744158E+01 -0.10039043115E+01  0.70500566117E+01  0.51100000000E-03 0. -1.
        -11    1    3    3    0    0  0.32005133985E+01 -0.20316225534E+02 -0.88372230919E+01  0.22385013250E+02  0.51100000000E-03 0.  1.
        -12    1    3    3    0    0 -0.10438419093E+02 -0.98645161823E+01 -0.11425149032E+02  0.18352201586E+02  0.00000000000E+00 0.  1.
</event>
<event>
 7    1  0.2598019E-009  0.4778727E+02  0.7816164E-02  0.1312668E+00
        -11   -1    0    0    0    0  0.00000000000E+00  0.00000000000E+00  0.45593999997E+02  0.45594000000E+02  0.51100000000E-03 0.  1.
         11   -1    0    0    0    0 -0.00000000000E+00 -0.00000000000E+00 -0.45593999997E+02  0.45594000000E+02  0.51100000000E-03 0. -1.
    9900012    2    1    2    0    0  0.20755622970E+02 -0.23890549440E+02 -0.29699643490E+02  0.47787273499E+02  0.20000011190E+02 0.  0.
        -12    1    1    2    0    0 -0.20755622970E+02  0.23890549440E+02  0.29699643490E+02  0.43400726501E+02  0.00000000000E+00 0.  1.
         11    1    3    3    0    0  0.58100601773E+01  0.19893197438E+01 -0.71692527565E+01  0.94399352569E+01  0.51100000000E-03 0. -1.
        -11    1    3    3    0    0  0.30579049065E+01 -0.19840350065E+01 -0.38259961359E+00  0.36651821305E+01  0.51100000000E-03 0.  1.
         12    1    3    3    0    0  0.11887657886E+02 -0.23895834177E+02 -0.22147791120E+02  0.34682156111E+02  0.00000000000E+00 0. -1.
</event>
<event>
 7    1  0.2598019E-009  0.4778726E+02  0.7816164E-02  0.1312668E+00
        -11   -1    0    0    0    0  0.00000000000E+00  0.00000000000E+00  0.45593999997E+02  0.45594000000E+02  0.51100000000E-03 0.  1.
         11   -1    0    0    0    0 -0.00000000000E+00 -0.00000000000E+00 -0.45593999997E+02  0.45594000000E+02  0.51100000000E-03 0. -1.
    9900012    2    1    2    0    0  0.94033941295E+00 -0.43381274238E+02  0.89743403592E+00  0.47787255991E+02  0.19999931363E+02 0.  0.
        -12    1    1    2    0    0 -0.94033941295E+00  0.43381274238E+02 -0.89743403592E+00  0.43400744009E+02  0.00000000000E+00 0.  1.
         11    1    3    3    0    0  0.13502460481E+01 -0.56719455331E+00  0.72180743708E+00  0.16327523661E+01  0.51100000000E-03 0. -1.
        -11    1    3    3    0    0 -0.12346967954E+01 -0.48839062753E+01 -0.58715905994E+01  0.77364457673E+01  0.51100000000E-03 0.  1.
        -12    1    3    3    0    0  0.82479016030E+00 -0.37930173409E+02  0.60472171982E+01  0.38418057857E+02  0.00000000000E+00 0.  1.
</event>
<event>
 7    1  0.2598019E-009  0.4778727E+02  0.7816164E-02  0.1312668E+00
        -11   -1    0    0    0    0  0.00000000000E+00  0.00000000000E+00  0.45593999997E+02  0.45594000000E+02  0.51100000000E-03 0. -1.
         11   -1    0    0    0    0 -0.00000000000E+00 -0.00000000000E+00 -0.45593999997E+02  0.45594000000E+02  0.51100000000E-03 0.  1.
    9900012    2    1    2    0    0  0.33201118697E+02  0.21809094262E+01  0.27866695908E+02  0.47787269713E+02  0.19999993929E+02 0.  0.
        -12    1    1    2    0    0 -0.33201118697E+02 -0.21809094262E+01 -0.27866695908E+02  0.43400730287E+02  0.00000000000E+00 0.  1.
         11    1    3    3    0    0  0.30747636765E+02 -0.24350990147E+01  0.24195347461E+02  0.39201552429E+02  0.51100000000E-03 0. -1.
        -11    1    3    3    0    0  0.16136322145E+01  0.35995837136E+01 -0.71191038760E+00  0.40084446480E+01  0.51100000000E-03 0.  1.
        -12    1    3    3    0    0  0.83984971707E+00  0.10164247272E+01  0.43832588342E+01  0.45772726357E+01  0.00000000000E+00 0.  1.
</event>
<event>
 7    1  0.2598019E-009  0.4778727E+02  0.7816164E-02  0.1312668E+00
        -11   -1    0    0    0    0  0.00000000000E+00  0.00000000000E+00  0.45593999997E+02  0.45594000000E+02  0.51100000000E-03 0.  1.
         11   -1    0    0    0    0 -0.00000000000E+00 -0.00000000000E+00 -0.45593999997E+02  0.45594000000E+02  0.51100000000E-03 0. -1.
    9900012    2    1    2    0    0  0.25108481235E+02  0.32082939765E+02  0.14962379753E+02  0.47787266576E+02  0.19999979627E+02 0.  0.
        -12    1    1    2    0    0 -0.25108481235E+02 -0.32082939765E+02 -0.14962379753E+02  0.43400733424E+02  0.00000000000E+00 0.  1.
         11    1    3    3    0    0  0.26053600322E+02  0.21289554608E+02  0.85579146229E+01  0.34717043769E+02  0.51100000000E-03 0. -1.
        -11    1    3    3    0    0 -0.16398749588E+01  0.30718707092E+01  0.30263598224E+01  0.46135055620E+01  0.51100000000E-03 0.  1.
         12    1    3    3    0    0  0.69475587184E+00  0.77215144475E+01  0.33781053077E+01  0.84567172445E+01  0.00000000000E+00 0. -1.
</event>
<event>
 7    1  0.2598019E-009  0.4778727E+02  0.7816164E-02  0.1312668E+00
        -11   -1    0    0    0    0  0.00000000000E+00  0.00000000000E+00  0.45593999997E+02  0.45594000000E+02  0.51100000000E-03 0.  1.
         11   -1    0    0    0    0 -0.00000000000E+00 -0.00000000000E+00 -0.45593999997E+02  0.45594000000E+02  0.51100000000E-03 0. -1.
    9900012    2    1    2    0    0  0.38324112637E+02  0.11501832659E+02 -0.16810518597E+02  0.47787270750E+02  0.19999998658E+02 0.  0.
        -12    1    1    2    0    0 -0.38324112637E+02 -0.11501832659E+02  0.16810518597E+02  0.43400729250E+02  0.00000000000E+00 0.  1.
         11    1    3    3    0    0  0.69366812841E+01 -0.53140272057E+00  0.25221782037E+01  0.74000891374E+01  0.51100000000E-03 0. -1.
        -11    1    3    3    0    0  0.16538775290E+01 -0.18220384198E+01 -0.34477604296E+00  0.24847546489E+01  0.51100000000E-03 0.  1.
         12    1    3    3    0    0  0.29733553824E+02  0.13855273799E+02 -0.18987920758E+02  0.37902426964E+02  0.00000000000E+00 0. -1.
</event>
<event>
 7    1  0.2598019E-009  0.4778727E+02  0.7816164E-02  0.1312668E+00
        -11   -1    0    0    0    0  0.00000000000E+00  0.00000000000E+00  0.45593999997E+02  0.45594000000E+02  0.51100000000E-03 0. -1.
         11   -1    0    0    0    0 -0.00000000000E+00 -0.00000000000E+00 -0.45593999997E+02  0.45594000000E+02  0.51100000000E-03 0.  1.
    9900012    2    1    2    0    0  0.71900201821E+01 -0.61133604356E+01  0.42362175837E+02  0.47787268350E+02  0.19999987717E+02 0.  0.
        -12    1    1    2    0    0 -0.71900201821E+01  0.61133604356E+01 -0.42362175837E+02  0.43400731650E+02  0.00000000000E+00 0.  1.
         11    1    3    3    0    0  0.15909362873E+01  0.14861083371E+01  0.74599494731E+01  0.77711287895E+01  0.51100000000E-03 0. -1.
        -11    1    3    3    0    0  0.64525035370E+01  0.35737477736E+01  0.80431616919E+01  0.10913245407E+02  0.51100000000E-03 0.  1.
        -12    1    3    3    0    0 -0.85341964226E+00 -0.11173216546E+02  0.26859064672E+02  0.29102894154E+02  0.00000000000E+00 0.  1.
</event>
<event>
 7    1  0.2598019E-009  0.4778727E+02  0.7816164E-02  0.1312668E+00
        -11   -1    0    0    0    0  0.00000000000E+00  0.00000000000E+00  0.45593999997E+02  0.45594000000E+02  0.51100000000E-03 0. -1.
         11   -1    0    0    0    0 -0.00000000000E+00 -0.00000000000E+00 -0.45593999997E+02  0.45594000000E+02  0.51100000000E-03 0.  1.
    9900012    2    1    2    0    0 -0.25740628038E+02 -0.34829177333E+02  0.28233995307E+01  0.47787272928E+02  0.20000008588E+02 0.  0.
        -12    1    1    2    0    0  0.25740628038E+02  0.34829177333E+02 -0.28233995307E+01  0.43400727072E+02  0.00000000000E+00 0.  1.
         11    1    3    3    0    0 -0.15877071378E+02 -0.12716011879E+02  0.22027125467E+01  0.20460456898E+02  0.51100000000E-03 0. -1.
        -11    1    3    3    0    0 -0.87508019253E+01 -0.23608830375E+02  0.15844329465E+01  0.25228234858E+02  0.51100000000E-03 0.  1.
        -12    1    3    3    0    0 -0.11127547351E+01  0.14956649215E+01 -0.96374596243E+00  0.20985811726E+01  0.00000000000E+00 0.  1.
</event>
<event>
 7    1  0.2598019E-009  0.4778727E+02  0.7816164E-02  0.1312668E+00
        -11   -1    0    0    0    0  0.00000000000E+00  0.00000000000E+00  0.45593999997E+02  0.45594000000E+02  0.51100000000E-03 0. -1.
         11   -1    0    0    0    0 -0.00000000000E+00 -0.00000000000E+00 -0.45593999997E+02  0.45594000000E+02  0.51100000000E-03 0.  1.
    9900012    2    1    2    0    0 -0.54549755954E+01 -0.42503139021E+02 -0.68811319957E+01  0.47787267715E+02  0.19999984819E+02 0.  0.
        -12    1    1    2    0    0  0.54549755954E+01  0.42503139021E+02  0.68811319957E+01  0.43400732285E+02  0.00000000000E+00 0.  1.
         11    1    3    3    0    0 -0.19801071238E+01 -0.33917758152E+02  0.91906932646E-01  0.33975632289E+02  0.51100000000E-03 0. -1.
        -11    1    3    3    0    0  0.15722384061E+01 -0.37406854158E+01 -0.51974660737E+01  0.65938088260E+01  0.51100000000E-03 0.  1.
         12    1    3    3    0    0 -0.50471068776E+01 -0.48446954530E+01 -0.17755728547E+01  0.72178266001E+01  0.00000000000E+00 0. -1.
</event>
<event>
 7    1  0.2598019E-009  0.4778728E+02  0.7816164E-02  0.1312668E+00
        -11   -1    0    0    0    0  0.00000000000E+00  0.00000000000E+00  0.45593999997E+02  0.45594000000E+02  0.51100000000E-03 0. -1.
         11   -1    0    0    0    0 -0.00000000000E+00 -0.00000000000E+00 -0.45593999997E+02  0.45594000000E+02  0.51100000000E-03 0.  1.
    9900012    2    1    2    0    0 -0.12507021479E+01  0.39183729426E+02  0.18619721188E+02  0.47787275067E+02  0.20000018338E+02 0.  0.
        -12    1    1    2    0    0  0.12507021479E+01 -0.39183729426E+02 -0.18619721188E+02  0.43400724933E+02  0.00000000000E+00 0.  1.
         11    1    3    3    0    0 -0.34488116032E+01  0.19765187004E+01  0.17770081135E+01  0.43541572944E+01  0.51100000000E-03 0. -1.
        -11    1    3    3    0    0  0.74353620864E+01  0.28915026747E+02  0.15153098991E+02  0.33481036281E+02  0.51100000000E-03 0.  1.
        -12    1    3    3    0    0 -0.52372526311E+01  0.82921839788E+01  0.16896140839E+01  0.99520814915E+01  0.00000000000E+00 0.  1.
</event>
<event>
 7    1  0.2598019E-009  0.4778727E+02  0.7816164E-02  0.1312668E+00
        -11   -1    0    0    0    0  0.00000000000E+00  0.00000000000E+00  0.45593999997E+02  0.45594000000E+02  0.51100000000E-03 0.  1.
         11   -1    0    0    0    0 -0.00000000000E+00 -0.00000000000E+00 -0.45593999997E+02  0.45594000000E+02  0.51100000000E-03 0. -1.
    9900012    2    1    2    0    0  0.27851244570E+02  0.61013546682E+01  0.32721629466E+02  0.47787269732E+02  0.19999994016E+02 0.  0.
        -12    1    1    2    0    0 -0.27851244570E+02 -0.61013546682E+01 -0.32721629466E+02  0.43400730268E+02  0.00000000000E+00 0.  1.
         11    1    3    3    0    0  0.89844992515E+01 -0.87587644980E+00  0.45410966356E+01  0.10104946574E+02  0.51100000000E-03 0. -1.
        -11    1    3    3    0    0  0.38675518967E+01  0.83875530747E+01  0.15249121588E+02  0.17828199958E+02  0.51100000000E-03 0.  1.
         12    1    3    3    0    0  0.14999193422E+02 -0.14103219566E+01  0.12931411242E+02  0.19854123200E+02  0.00000000000E+00 0. -1.
</event>
<event>
 7    1  0.2598019E-009  0.4778727E+02  0.7816164E-02  0.1312668E+00
        -11   -1    0    0    0    0  0.00000000000E+00  0.00000000000E+00  0.45593999997E+02  0.45594000000E+02  0.51100000000E-03 0.  1.
         11   -1    0    0    0    0 -0.00000000000E+00 -0.00000000000E+00 -0.45593999997E+02  0.45594000000E+02  0.51100000000E-03 0. -1.
    9900012    2    1    2    0    0  0.31639851969E+02 -0.28978927969E+02 -0.65394672591E+01  0.47787272692E+02  0.20000007513E+02 0.  0.
        -12    1    1    2    0    0 -0.31639851969E+02  0.28978927969E+02  0.65394672591E+01  0.43400727308E+02  0.00000000000E+00 0.  1.
         11    1    3    3    0    0  0.10175409369E+02 -0.46670083247E+01  0.25314606201E+01  0.11477291303E+02  0.51100000000E-03 0. -1.
        -11    1    3    3    0    0  0.12018042462E+01 -0.37266743897E+01 -0.61327697289E+01  0.72762146932E+01  0.51100000000E-03 0.  1.
        -12    1    3    3    0    0  0.20262638354E+02 -0.20585245254E+02 -0.29381581503E+01  0.29033766696E+02  0.00000000000E+00 0.  1.
</event>
<event>
 7    1  0.2598019E-009  0.4778729E+02  0.7816164E-02  0.1312668E+00
        -11   -1    0    0    0    0  0.00000000000E+00  0.00000000000E+00  0.45593999997E+02  0.45594000000E+02  0.51100000000E-03 0. -1.
         11   -1    0    0    0    0 -0.00000000000E+00 -0.00000000000E+00 -0.45593999997E+02  0.45594000000E+02  0.51100000000E-03 0.  1.
    9900012    2    1    2    0    0  0.36734245875E+02 -0.31056328754E+01 -0.22903540907E+02  0.47787286163E+02  0.20000068930E+02 0.  0.
        -12    1    1    2    0    0 -0.36734245875E+02  0.31056328754E+01  0.22903540907E+02  0.43400713837E+02  0.00000000000E+00 0.  1.
         11    1    3    3    0    0  0.27700918613E+02 -0.70172332968E+01 -0.15934415812E+02  0.32718313873E+02  0.51100000000E-03 0. -1.
        -11    1    3    3    0    0  0.17796486876E+01 -0.48663521138E+00  0.20018376327E+01  0.27223734955E+01  0.51100000000E-03 0.  1.
         12    1    3    3    0    0  0.72536785741E+01  0.43982356327E+01 -0.89709627274E+01  0.12346598795E+02  0.00000000000E+00 0. -1.
</event>
<event>
 7    1  0.2598019E-009  0.4778727E+02  0.7816164E-02  0.1312668E+00
        -11   -1    0    0    0    0  0.00000000000E+00  0.00000000000E+00  0.45593999997E+02  0.45594000000E+02  0.51100000000E-03 0. -1.
         11   -1    0    0    0    0 -0.00000000000E+00 -0.00000000000E+00 -0.45593999997E+02  0.45594000000E+02  0.51100000000E-03 0.  1.
    9900012    2    1    2    0    0  0.10160709776E+02 -0.29783557436E+02  0.29888509017E+02  0.47787270882E+02  0.19999999260E+02 0.  0.
        -12    1    1    2    0    0 -0.10160709776E+02  0.29783557436E+02 -0.29888509017E+02  0.43400729118E+02  0.00000000000E+00 0.  1.
         11    1    3    3    0    0  0.89728565551E+00 -0.17055771832E+02  0.24793822363E+02  0.30107110489E+02  0.51100000000E-03 0. -1.
        -11    1    3    3    0    0  0.72670832795E+01 -0.46999557241E+01  0.24276105656E+01  0.89885135878E+01  0.51100000000E-03 0.  1.
         12    1    3    3    0    0  0.19963408408E+01 -0.80278298801E+01  0.26670760883E+01  0.86916468058E+01  0.00000000000E+00 0. -1.
</event>
<event>
 7    1  0.2598019E-009  0.4778727E+02  0.7816164E-02  0.1312668E+00
        -11   -1    0    0    0    0  0.00000000000E+00  0.00000000000E+00  0.45593999997E+02  0.45594000000E+02  0.51100000000E-03 0.  1.
         11   -1    0    0    0    0 -0.00000000000E+00 -0.00000000000E+00 -0.45593999997E+02  0.45594000000E+02  0.51100000000E-03 0. -1.
    9900012    2    1    2    0    0  0.15526569836E+02  0.33800923303E+02 -0.22361724145E+02  0.47787268511E+02  0.19999988450E+02 0.  0.
        -12    1    1    2    0    0 -0.15526569836E+02 -0.33800923303E+02  0.22361724145E+02  0.43400731489E+02  0.00000000000E+00 0.  1.
         11    1    3    3    0    0 -0.38507396617E+01  0.10447789603E+02 -0.56267710995E+01  0.12475778806E+02  0.51100000000E-03 0. -1.
        -11    1    3    3    0    0  0.10367167236E+02  0.10338707680E+02 -0.45380445651E+01  0.15328433766E+02  0.51100000000E-03 0.  1.
         12    1    3    3    0    0  0.90101422615E+01  0.13014426020E+02 -0.12196908480E+02  0.19983055939E+02  0.00000000000E+00 0. -1.
</event>
<event>
 7    1  0.2598019E-009  0.4778727E+02  0.7816164E-02  0.1312668E+00
        -11   -1    0    0    0    0  0.00000000000E+00  0.00000000000E+00  0.45593999997E+02  0.45594000000E+02  0.51100000000E-03 0. -1.
         11   -1    0    0    0    0 -0.00000000000E+00 -0.00000000000E+00 -0.45593999997E+02  0.45594000000E+02  0.51100000000E-03 0.  1.
    9900012    2    1    2    0    0  0.31126019238E+02 -0.30236006977E+02  0.76022538975E+00  0.47787272653E+02  0.20000007336E+02 0.  0.
        -12    1    1    2    0    0 -0.31126019238E+02  0.30236006977E+02 -0.76022538975E+00  0.43400727347E+02  0.00000000000E+00 0.  1.
         11    1    3    3    0    0  0.20079680837E+02 -0.15145998237E+02 -0.57825211127E+01  0.25807603450E+02  0.51100000000E-03 0. -1.
        -11    1    3    3    0    0 -0.16098090612E+01 -0.33584804134E+01  0.12730986014E+01  0.39359441320E+01  0.51100000000E-03 0.  1.
         12    1    3    3    0    0  0.12656147462E+02 -0.11731528327E+02  0.52696479010E+01  0.18043725072E+02  0.00000000000E+00 0. -1.
</event>
<event>
 7    1  0.2598019E-009  0.4778727E+02  0.7816164E-02  0.1312668E+00
        -11   -1    0    0    0    0  0.00000000000E+00  0.00000000000E+00  0.45593999997E+02  0.45594000000E+02  0.51100000000E-03 0. -1.
         11   -1    0    0    0    0 -0.00000000000E+00 -0.00000000000E+00 -0.45593999997E+02  0.45594000000E+02  0.51100000000E-03 0.  1.
    9900012    2    1    2    0    0 -0.25073978729E+02  0.12338971330E+00  0.35424622850E+02  0.47787267997E+02  0.19999986106E+02 0.  0.
        -12    1    1    2    0    0  0.25073978729E+02 -0.12338971330E+00 -0.35424622850E+02  0.43400732003E+02  0.00000000000E+00 0.  1.
         11    1    3    3    0    0 -0.59273007013E+01 -0.71203286890E+01  0.15427880864E+02  0.17995874040E+02  0.51100000000E-03 0. -1.
        -11    1    3    3    0    0 -0.14801135176E+02  0.89255186429E+01  0.14307724473E+02  0.22437679590E+02  0.51100000000E-03 0.  1.
         12    1    3    3    0    0 -0.43455428523E+01 -0.16818002406E+01  0.56890175125E+01  0.73537143667E+01  0.00000000000E+00 0. -1.
</event>
<event>
 7    1  0.2598019E-009  0.4778727E+02  0.7816164E-02  0.1312668E+00
        -11   -1    0    0    0    0  0.00000000000E+00  0.00000000000E+00  0.45593999997E+02  0.45594000000E+02  0.51100000000E-03 0.  1.
         11   -1    0    0    0    0 -0.00000000000E+00 -0.00000000000E+00 -0.45593999997E+02  0.45594000000E+02  0.51100000000E-03 0. -1.
    9900012    2    1    2    0    0 -0.22442637688E+02 -0.12496820728E+02 -0.34982577003E+02  0.47787271798E+02  0.20000003437E+02 0.  0.
        -12    1    1    2    0    0  0.22442637688E+02  0.12496820728E+02  0.34982577003E+02  0.43400728202E+02  0.00000000000E+00 0.  1.
         11    1    3    3    0    0  0.22753599684E+01  0.14335277106E+01 -0.23932788901E+01  0.36000067763E+01  0.51100000000E-03 0. -1.
        -11    1    3    3    0    0 -0.13791760415E+02 -0.12128937039E+02 -0.16725980801E+02  0.24841139327E+02  0.51100000000E-03 0.  1.
         12    1    3    3    0    0 -0.10926237242E+02 -0.18014113990E+01 -0.15863317312E+02  0.19346125695E+02  0.00000000000E+00 0. -1.
</event>
<event>
 7    1  0.2598019E-009  0.4778727E+02  0.7816164E-02  0.1312668E+00
        -11   -1    0    0    0    0  0.00000000000E+00  0.00000000000E+00  0.45593999997E+02  0.45594000000E+02  0.51100000000E-03 0.  1.
         11   -1    0    0    0    0 -0.00000000000E+00 -0.00000000000E+00 -0.45593999997E+02  0.45594000000E+02  0.51100000000E-03 0. -1.
    9900012    2    1    2    0    0  0.20089516101E+02 -0.56997606840E+01 -0.38046647992E+02  0.47787270139E+02  0.19999995871E+02 0.  0.
        -12    1    1    2    0    0 -0.20089516101E+02  0.56997606840E+01  0.38046647992E+02  0.43400729861E+02  0.00000000000E+00 0.  1.
         11    1    3    3    0    0  0.91633406757E+01 -0.67253362950E+01 -0.23744872958E+02  0.26325196156E+02  0.51100000000E-03 0. -1.
        -11    1    3    3    0    0  0.93043451153E+01  0.55911931986E+01 -0.78617019587E+01  0.13402933909E+02  0.51100000000E-03 0.  1.
        -12    1    3    3    0    0  0.16218303101E+01 -0.45656175876E+01 -0.64400730762E+01  0.80591400743E+01  0.00000000000E+00 0.  1.
</event>
<event>
 7    1  0.2598019E-009  0.4778727E+02  0.7816164E-02  0.1312668E+00
        -11   -1    0    0    0    0  0.00000000000E+00  0.00000000000E+00  0.45593999997E+02  0.45594000000E+02  0.51100000000E-03 0.  1.
         11   -1    0    0    0    0 -0.00000000000E+00 -0.00000000000E+00 -0.45593999997E+02  0.45594000000E+02  0.51100000000E-03 0. -1.
    9900012    2    1    2    0    0 -0.19641304633E+02 -0.26472487817E+02 -0.28232076458E+02  0.47787267287E+02  0.19999982866E+02 0.  0.
        -12    1    1    2    0    0  0.19641304633E+02  0.26472487817E+02  0.28232076458E+02  0.43400732713E+02  0.00000000000E+00 0.  1.
         11    1    3    3    0    0 -0.10539229175E+02 -0.26348814235E+02 -0.22184675233E+02  0.36020760384E+02  0.51100000000E-03 0. -1.
        -11    1    3    3    0    0 -0.70797974470E+01 -0.12995160054E+01 -0.27108671623E+01  0.76916236758E+01  0.51100000000E-03 0.  1.
         12    1    3    3    0    0 -0.20222780111E+01  0.11758424231E+01 -0.33365340629E+01  0.40748832266E+01  0.00000000000E+00 0. -1.
</event>
<event>
 7    1  0.2598019E-009  0.4778727E+02  0.7816164E-02  0.1312668E+00
        -11   -1    0    0    0    0  0.00000000000E+00  0.00000000000E+00  0.45593999997E+02  0.45594000000E+02  0.51100000000E-03 0. -1.
         11   -1    0    0    0    0 -0.00000000000E+00 -0.00000000000E+00 -0.45593999997E+02  0.45594000000E+02  0.51100000000E-03 0.  1.
    9900012    2    1    2    0    0 -0.40891934325E+02 -0.49714155161E+01  0.13665938044E+02  0.47787272729E+02  0.20000007679E+02 0.  0.
        -12    1    1    2    0    0  0.40891934325E+02  0.49714155161E+01 -0.13665938044E+02  0.43400727271E+02  0.00000000000E+00 0.  1.
         11    1    3    3    0    0 -0.87685995950E+01 -0.81625062388E+00  0.85662302698E+01  0.12285556774E+02  0.51100000000E-03 0. -1.
        -11    1    3    3    0    0 -0.29116318616E+02 -0.24589972588E+01 -0.14781526606E+00  0.29220344400E+02  0.51100000000E-03 0.  1.
        -12    1    3    3    0    0 -0.30070161142E+01 -0.16961676334E+01  0.52475230404E+01  0.62813715550E+01  0.00000000000E+00 0.  1.
</event>
<event>
 7    1  0.2598019E-009  0.4778727E+02  0.7816164E-02  0.1312668E+00
        -11   -1    0    0    0    0  0.00000000000E+00  0.00000000000E+00  0.45593999997E+02  0.45594000000E+02  0.51100000000E-03 0. -1.
         11   -1    0    0    0    0 -0.00000000000E+00 -0.00000000000E+00 -0.45593999997E+02  0.45594000000E+02  0.51100000000E-03 0.  1.
    9900012    2    1    2    0    0  0.16131982062E+02  0.10462348906E+02  0.38909147391E+02  0.47787270276E+02  0.19999996497E+02 0.  0.
        -12    1    1    2    0    0 -0.16131982062E+02 -0.10462348906E+02 -0.38909147391E+02  0.43400729724E+02  0.00000000000E+00 0.  1.
         11    1    3    3    0    0  0.46110134407E+01 -0.38359830347E+01  0.89303483895E+01  0.10757663938E+02  0.51100000000E-03 0.  1.
        -11    1    3    3    0    0  0.54611910302E+01  0.45879579104E+00  0.33780456147E+01  0.64378795796E+01  0.51100000000E-03 0. -1.
         12    1    3    3    0    0  0.60597775915E+01  0.13839536150E+02  0.26600753387E+02  0.30591726758E+02  0.00000000000E+00 0. -1.
</event>
<event>
 7    1  0.2598019E-009  0.4778727E+02  0.7816164E-02  0.1312668E+00
        -11   -1    0    0    0    0  0.00000000000E+00  0.00000000000E+00  0.45593999997E+02  0.45594000000E+02  0.51100000000E-03 0.  1.
         11   -1    0    0    0    0 -0.00000000000E+00 -0.00000000000E+00 -0.45593999997E+02  0.45594000000E+02  0.51100000000E-03 0. -1.
    9900012    2    1    2    0    0 -0.42533765099E+02  0.57267864667E+01 -0.64580117287E+01  0.47787272215E+02  0.20000005339E+02 0.  0.
        -12    1    1    2    0    0  0.42533765099E+02 -0.57267864667E+01  0.64580117287E+01  0.43400727785E+02  0.00000000000E+00 0.  1.
         11    1    3    3    0    0 -0.14715956787E+02 -0.56590711391E+01 -0.49745138467E+01  0.16532702700E+02  0.51100000000E-03 0. -1.
        -11    1    3    3    0    0 -0.14846118396E+01 -0.11275609139E+01 -0.95498650096E+00  0.20946277490E+01  0.51100000000E-03 0.  1.
         12    1    3    3    0    0 -0.26333196473E+02  0.12513418520E+02 -0.52851138102E+00  0.29159941766E+02  0.00000000000E+00 0. -1.
</event>
<event>
 7    1  0.2598019E-009  0.4778727E+02  0.7816164E-02  0.1312668E+00
        -11   -1    0    0    0    0  0.00000000000E+00  0.00000000000E+00  0.45593999997E+02  0.45594000000E+02  0.51100000000E-03 0.  1.
         11   -1    0    0    0    0 -0.00000000000E+00 -0.00000000000E+00 -0.45593999997E+02  0.45594000000E+02  0.51100000000E-03 0. -1.
    9900012    2    1    2    0    0 -0.43271702967E+02  0.31490690130E+01 -0.11253568539E+01  0.47787270267E+02  0.19999996454E+02 0.  0.
        -12    1    1    2    0    0  0.43271702967E+02 -0.31490690130E+01  0.11253568539E+01  0.43400729733E+02  0.00000000000E+00 0.  1.
         11    1    3    3    0    0 -0.12398550747E+02  0.82281182297E+01 -0.37313276563E+01  0.15341081989E+02  0.51100000000E-03 0. -1.
        -11    1    3    3    0    0 -0.13972042805E+02 -0.27796253090E+01  0.52564333826E+01  0.15184676130E+02  0.51100000000E-03 0.  1.
         12    1    3    3    0    0 -0.16901109414E+02 -0.22994239077E+01 -0.26504625801E+01  0.17261512148E+02  0.00000000000E+00 0. -1.
</event>
<event>
 7    1  0.2598019E-009  0.4778728E+02  0.7816164E-02  0.1312668E+00
        -11   -1    0    0    0    0  0.00000000000E+00  0.00000000000E+00  0.45593999997E+02  0.45594000000E+02  0.51100000000E-03 0.  1.
         11   -1    0    0    0    0 -0.00000000000E+00 -0.00000000000E+00 -0.45593999997E+02  0.45594000000E+02  0.51100000000E-03 0. -1.
    9900012    2    1    2    0    0 -0.14615290034E+02  0.39649839951E+02 -0.98947417378E+01  0.47787280824E+02  0.20000044588E+02 0.  0.
        -12    1    1    2    0    0  0.14615290034E+02 -0.39649839951E+02  0.98947417378E+01  0.43400719176E+02  0.00000000000E+00 0.  1.
         11    1    3    3    0    0 -0.14566650872E+02  0.16763632190E+02 -0.65163545352E+00  0.22217815169E+02  0.51100000000E-03 0. -1.
        -11    1    3    3    0    0  0.32401022572E+01  0.97570618352E+01 -0.34162780670E+01  0.10833719324E+02  0.51100000000E-03 0.  1.
        -12    1    3    3    0    0 -0.32887414187E+01  0.13129145926E+02 -0.58268282173E+01  0.14735746332E+02  0.00000000000E+00 0.  1.
</event>
<event>
 7    1  0.2598019E-009  0.4778727E+02  0.7816164E-02  0.1312668E+00
        -11   -1    0    0    0    0  0.00000000000E+00  0.00000000000E+00  0.45593999997E+02  0.45594000000E+02  0.51100000000E-03 0.  1.
         11   -1    0    0    0    0 -0.00000000000E+00 -0.00000000000E+00 -0.45593999997E+02  0.45594000000E+02  0.51100000000E-03 0. -1.
    9900012    2    1    2    0    0  0.39362353966E+02  0.18171077589E+02 -0.20100474597E+01  0.47787271190E+02  0.20000000662E+02 0.  0.
        -12    1    1    2    0    0 -0.39362353966E+02 -0.18171077589E+02  0.20100474597E+01  0.43400728810E+02  0.00000000000E+00 0.  1.
         11    1    3    3    0    0  0.32483509874E+02  0.12431842735E+02  0.63584123019E+01  0.35357581009E+02  0.51100000000E-03 0. -1.
        -11    1    3    3    0    0  0.64641422221E+01  0.45374140601E+01 -0.68994971728E+01  0.10486959641E+02  0.51100000000E-03 0.  1.
         12    1    3    3    0    0  0.41470186950E+00  0.12018207947E+01 -0.14689625887E+01  0.19427305398E+01  0.00000000000E+00 0. -1.
</event>
<event>
 7    1  0.2598019E-009  0.4778727E+02  0.7816164E-02  0.1312668E+00
        -11   -1    0    0    0    0  0.00000000000E+00  0.00000000000E+00  0.45593999997E+02  0.45594000000E+02  0.51100000000E-03 0. -1.
         11   -1    0    0    0    0 -0.00000000000E+00 -0.00000000000E+00 -0.45593999997E+02  0.45594000000E+02  0.51100000000E-03 0.  1.
    9900012    2    1    2    0    0 -0.80352813028E+01  0.46095149816E+01  0.42400587015E+02  0.47787272435E+02  0.20000006338E+02 0.  0.
        -12    1    1    2    0    0  0.80352813028E+01 -0.46095149816E+01 -0.42400587015E+02  0.43400727565E+02  0.00000000000E+00 0.  1.
         11    1    3    3    0    0 -0.10189291270E+02 -0.30539499219E+01  0.12774908224E+02  0.16623674296E+02  0.51100000000E-03 0. -1.
        -11    1    3    3    0    0  0.15206096372E+01 -0.10165721635E+00  0.87451020304E+01  0.88769024801E+01  0.51100000000E-03 0.  1.
         12    1    3    3    0    0  0.63340032979E+00  0.77651221199E+01  0.20880576760E+02  0.22286695658E+02  0.00000000000E+00 0. -1.
</event>
<event>
 7    1  0.2598019E-009  0.4778727E+02  0.7816164E-02  0.1312668E+00
        -11   -1    0    0    0    0  0.00000000000E+00  0.00000000000E+00  0.45593999997E+02  0.45594000000E+02  0.51100000000E-03 0.  1.
         11   -1    0    0    0    0 -0.00000000000E+00 -0.00000000000E+00 -0.45593999997E+02  0.45594000000E+02  0.51100000000E-03 0. -1.
    9900012    2    1    2    0    0  0.49547128724E+01 -0.11160752903E+02 -0.41647466929E+02  0.47787273202E+02  0.20000009836E+02 0.  0.
        -12    1    1    2    0    0 -0.49547128724E+01  0.11160752903E+02  0.41647466929E+02  0.43400726798E+02  0.00000000000E+00 0.  1.
         11    1    3    3    0    0  0.55306667923E+01 -0.11929351515E+02 -0.40588047229E+02  0.42664824866E+02  0.51100000000E-03 0. -1.
        -11    1    3    3    0    0  0.13773777743E+01  0.20714766132E+01  0.12879327304E+00  0.24909381487E+01  0.51100000000E-03 0.  1.
         12    1    3    3    0    0 -0.19533316943E+01 -0.13028780017E+01 -0.11882129731E+01  0.26315101871E+01  0.00000000000E+00 0. -1.
</event>
<event>
 7    1  0.2598019E-009  0.4778727E+02  0.7816164E-02  0.1312668E+00
        -11   -1    0    0    0    0  0.00000000000E+00  0.00000000000E+00  0.45593999997E+02  0.45594000000E+02  0.51100000000E-03 0.  1.
         11   -1    0    0    0    0 -0.00000000000E+00 -0.00000000000E+00 -0.45593999997E+02  0.45594000000E+02  0.51100000000E-03 0. -1.
    9900012    2    1    2    0    0  0.17774418431E+02 -0.48281866982E+01 -0.39298624789E+02  0.47787271346E+02  0.20000001376E+02 0.  0.
        -12    1    1    2    0    0 -0.17774418431E+02  0.48281866982E+01  0.39298624789E+02  0.43400728654E+02  0.00000000000E+00 0.  1.
         11    1    3    3    0    0  0.86554461298E+01 -0.48018722748E+01 -0.37437740809E+01  0.10582559694E+02  0.51100000000E-03 0.  1.
        -11    1    3    3    0    0  0.39309582207E+01 -0.80042836947E-02 -0.26323502593E+02  0.26615395650E+02  0.51100000000E-03 0. -1.
        -12    1    3    3    0    0  0.51880140810E+01 -0.18310139670E-01 -0.92313481150E+01  0.10589316002E+02  0.00000000000E+00 0.  1.
</event>
<event>
 7    1  0.2598019E-009  0.4778727E+02  0.7816164E-02  0.1312668E+00
        -11   -1    0    0    0    0  0.00000000000E+00  0.00000000000E+00  0.45593999997E+02  0.45594000000E+02  0.51100000000E-03 0. -1.
         11   -1    0    0    0    0 -0.00000000000E+00 -0.00000000000E+00 -0.45593999997E+02  0.45594000000E+02  0.51100000000E-03 0.  1.
    9900012    2    1    2    0    0 -0.33946936901E+02  0.23509882033E+02  0.13360914968E+02  0.47787272737E+02  0.20000007718E+02 0.  0.
        -12    1    1    2    0    0  0.33946936901E+02 -0.23509882033E+02 -0.13360914968E+02  0.43400727263E+02  0.00000000000E+00 0.  1.
         11    1    3    3    0    0 -0.61149093969E+00  0.65421476130E+01  0.42263964551E+01  0.78125568041E+01  0.51100000000E-03 0. -1.
        -11    1    3    3    0    0 -0.11451360871E+02  0.38155193951E+00  0.27117380005E+01  0.11774241841E+02  0.51100000000E-03 0.  1.
         12    1    3    3    0    0 -0.21884085090E+02  0.16586182480E+02  0.64227805122E+01  0.28200474092E+02  0.00000000000E+00 0. -1.
</event>
<event>
 7    1  0.2598019E-009  0.4778727E+02  0.7816164E-02  0.1312668E+00
        -11   -1    0    0    0    0  0.00000000000E+00  0.00000000000E+00  0.45593999997E+02  0.45594000000E+02  0.51100000000E-03 0. -1.
         11   -1    0    0    0    0 -0.00000000000E+00 -0.00000000000E+00 -0.45593999997E+02  0.45594000000E+02  0.51100000000E-03 0.  1.
    9900012    2    1    2    0    0 -0.29636855822E+02 -0.11497858611E+02  0.29547911046E+02  0.47787273936E+02  0.20000013185E+02 0.  0.
        -12    1    1    2    0    0  0.29636855822E+02  0.11497858611E+02 -0.29547911046E+02  0.43400726064E+02  0.00000000000E+00 0.  1.
         11    1    3    3    0    0 -0.30009144067E+02 -0.10695732700E+02  0.26665876376E+02  0.41545353395E+02  0.51100000000E-03 0. -1.
        -11    1    3    3    0    0  0.23007783826E+01  0.12297303039E+01  0.20552298037E+01  0.33211124030E+01  0.51100000000E-03 0.  1.
         12    1    3    3    0    0 -0.19284901382E+01 -0.20318562147E+01  0.82680486705E+00  0.29208081379E+01  0.00000000000E+00 0. -1.
</event>
<event>
 7    1  0.2598019E-009  0.4778727E+02  0.7816164E-02  0.1312668E+00
        -11   -1    0    0    0    0  0.00000000000E+00  0.00000000000E+00  0.45593999997E+02  0.45594000000E+02  0.51100000000E-03 0. -1.
         11   -1    0    0    0    0 -0.00000000000E+00 -0.00000000000E+00 -0.45593999997E+02  0.45594000000E+02  0.51100000000E-03 0.  1.
    9900012    2    1    2    0    0  0.13761426550E+02  0.11821646907E+02  0.39427083860E+02  0.47787272610E+02  0.20000007138E+02 0.  0.
        -12    1    1    2    0    0 -0.13761426550E+02 -0.11821646907E+02 -0.39427083860E+02  0.43400727390E+02  0.00000000000E+00 0.  1.
         11    1    3    3    0    0  0.15790997134E+01 -0.24792547476E+01  0.54871540012E+00  0.29902088322E+01  0.51100000000E-03 0. -1.
        -11    1    3    3    0    0  0.20139404902E+01  0.43752024355E+01  0.18915362602E+01  0.51745784692E+01  0.51100000000E-03 0.  1.
         12    1    3    3    0    0  0.10168386347E+02  0.99256992189E+01  0.36986832200E+02  0.39622485309E+02  0.00000000000E+00 0. -1.
</event>
<event>
 7    1  0.2598019E-009  0.4778728E+02  0.7816164E-02  0.1312668E+00
        -11   -1    0    0    0    0  0.00000000000E+00  0.00000000000E+00  0.45593999997E+02  0.45594000000E+02  0.51100000000E-03 0. -1.
         11   -1    0    0    0    0 -0.00000000000E+00 -0.00000000000E+00 -0.45593999997E+02  0.45594000000E+02  0.51100000000E-03 0.  1.
    9900012    2    1    2    0    0  0.43941072380E+01  0.32233082700E+02 -0.28728772914E+02  0.47787283509E+02  0.20000056833E+02 0.  0.
        -12    1    1    2    0    0 -0.43941072380E+01 -0.32233082700E+02  0.28728772914E+02  0.43400716491E+02  0.00000000000E+00 0.  1.
         11    1    3    3    0    0 -0.10504459890E+01  0.43305940127E+01  0.22983644910E+01  0.50139765529E+01  0.51100000000E-03 0. -1.
        -11    1    3    3    0    0  0.64265067845E+01  0.15754574719E+02 -0.20726134649E+02  0.26815653484E+02  0.51100000000E-03 0.  1.
         12    1    3    3    0    0 -0.98195355744E+00  0.12147913969E+02 -0.10301002756E+02  0.15957653473E+02  0.00000000000E+00 0. -1.
</event>
<event>
 7    1  0.2598019E-009  0.4778727E+02  0.7816164E-02  0.1312668E+00
        -11   -1    0    0    0    0  0.00000000000E+00  0.00000000000E+00  0.45593999997E+02  0.45594000000E+02  0.51100000000E-03 0.  1.
         11   -1    0    0    0    0 -0.00000000000E+00 -0.00000000000E+00 -0.45593999997E+02  0.45594000000E+02  0.51100000000E-03 0. -1.
    9900012    2    1    2    0    0 -0.41848574451E+01 -0.20203985579E+02 -0.38182576442E+02  0.47787271794E+02  0.20000003416E+02 0.  0.
        -12    1    1    2    0    0  0.41848574451E+01  0.20203985579E+02  0.38182576442E+02  0.43400728206E+02  0.00000000000E+00 0.  1.
         11    1    3    3    0    0  0.34723431931E+00 -0.13680392541E+02 -0.13481404244E+02  0.19209944623E+02  0.51100000000E-03 0. -1.
        -11    1    3    3    0    0 -0.46716900012E+01 -0.39185861366E+01 -0.25194920257E+02  0.25922268647E+02  0.51100000000E-03 0.  1.
         12    1    3    3    0    0  0.13959823673E+00 -0.26050069008E+01  0.49374805901E+00  0.26550585242E+01  0.00000000000E+00 0. -1.
</event>
<event>
 7    1  0.2598019E-009  0.4778727E+02  0.7816164E-02  0.1312668E+00
        -11   -1    0    0    0    0  0.00000000000E+00  0.00000000000E+00  0.45593999997E+02  0.45594000000E+02  0.51100000000E-03 0.  1.
         11   -1    0    0    0    0 -0.00000000000E+00 -0.00000000000E+00 -0.45593999997E+02  0.45594000000E+02  0.51100000000E-03 0. -1.
    9900012    2    1    2    0    0  0.14678450605E+02 -0.40801344919E+02  0.18484488668E+01  0.47787269331E+02  0.19999992188E+02 0.  0.
        -12    1    1    2    0    0 -0.14678450605E+02  0.40801344919E+02 -0.18484488668E+01  0.43400730669E+02  0.00000000000E+00 0.  1.
         11    1    3    3    0    0  0.15327694371E+02 -0.22356690498E+02  0.10700601953E+01  0.27127566309E+02  0.51100000000E-03 0. -1.
        -11    1    3    3    0    0 -0.31602773628E+01 -0.25246305046E+01 -0.16356442417E+01  0.43630774164E+01  0.51100000000E-03 0.  1.
         12    1    3    3    0    0  0.25110335962E+01 -0.15920023917E+02  0.24140329131E+01  0.16296625606E+02  0.00000000000E+00 0. -1.
</event>
<event>
 7    1  0.2598019E-009  0.4778727E+02  0.7816164E-02  0.1312668E+00
        -11   -1    0    0    0    0  0.00000000000E+00  0.00000000000E+00  0.45593999997E+02  0.45594000000E+02  0.51100000000E-03 0.  1.
         11   -1    0    0    0    0 -0.00000000000E+00 -0.00000000000E+00 -0.45593999997E+02  0.45594000000E+02  0.51100000000E-03 0. -1.
    9900012    2    1    2    0    0 -0.13147838752E+02  0.39657884187E+02 -0.11747759952E+02  0.47787270675E+02  0.19999998318E+02 0.  0.
        -12    1    1    2    0    0  0.13147838752E+02 -0.39657884187E+02  0.11747759952E+02  0.43400729325E+02  0.00000000000E+00 0.  1.
         11    1    3    3    0    0 -0.90023865459E+01  0.31625141554E+02 -0.81371455048E+01  0.33873377143E+02  0.51100000000E-03 0. -1.
        -11    1    3    3    0    0 -0.39658017374E+01  0.49100028718E+00 -0.48335684677E+01  0.62715268552E+01  0.51100000000E-03 0.  1.
        -12    1    3    3    0    0 -0.17965046880E+00  0.75417423455E+01  0.12229540205E+01  0.76423666775E+01  0.00000000000E+00 0.  1.
</event>
<event>
 7    1  0.2598019E-009  0.4778726E+02  0.7816164E-02  0.1312668E+00
        -11   -1    0    0    0    0  0.00000000000E+00  0.00000000000E+00  0.45593999997E+02  0.45594000000E+02  0.51100000000E-03 0.  1.
         11   -1    0    0    0    0 -0.00000000000E+00 -0.00000000000E+00 -0.45593999997E+02  0.45594000000E+02  0.51100000000E-03 0. -1.
    9900012    2    1    2    0    0 -0.15535809849E+02  0.12645490324E+02 -0.38501355286E+02  0.47787260697E+02  0.19999952821E+02 0.  0.
        -12    1    1    2    0    0  0.15535809849E+02 -0.12645490324E+02  0.38501355286E+02  0.43400739303E+02  0.00000000000E+00 0.  1.
         11    1    3    3    0    0 -0.15057721493E+01  0.45503097026E+01 -0.24277349918E+02  0.24745956992E+02  0.51100000000E-03 0. -1.
        -11    1    3    3    0    0 -0.11560595258E+02  0.42590605786E+01 -0.61556163005E+01  0.13772384399E+02  0.51100000000E-03 0.  1.
        -12    1    3    3    0    0 -0.24694424423E+01  0.38361200424E+01 -0.80683890680E+01  0.92689193064E+01  0.00000000000E+00 0.  1.
</event>
<event>
 7    1  0.2598019E-009  0.4778727E+02  0.7816164E-02  0.1312668E+00
        -11   -1    0    0    0    0  0.00000000000E+00  0.00000000000E+00  0.45593999997E+02  0.45594000000E+02  0.51100000000E-03 0.  1.
         11   -1    0    0    0    0 -0.00000000000E+00 -0.00000000000E+00 -0.45593999997E+02  0.45594000000E+02  0.51100000000E-03 0. -1.
    9900012    2    1    2    0    0 -0.30961799303E+02  0.78421304659E+01 -0.29385218939E+02  0.47787272835E+02  0.20000008166E+02 0.  0.
        -12    1    1    2    0    0  0.30961799303E+02 -0.78421304659E+01  0.29385218939E+02  0.43400727165E+02  0.00000000000E+00 0.  1.
         11    1    3    3    0    0 -0.11453697873E+02  0.49431178384E+01 -0.10871286204E+01  0.12522118744E+02  0.51100000000E-03 0. -1.
        -11    1    3    3    0    0 -0.53392541949E+00  0.25919351857E+00  0.43188369468E+00  0.73401731621E+00  0.51100000000E-03 0.  1.
         12    1    3    3    0    0 -0.18974176010E+02  0.26398191089E+01 -0.28729974014E+02  0.34531136775E+02  0.00000000000E+00 0. -1.
</event>
<event>
 7    1  0.2598019E-009  0.4778727E+02  0.7816164E-02  0.1312668E+00
        -11   -1    0    0    0    0  0.00000000000E+00  0.00000000000E+00  0.45593999997E+02  0.45594000000E+02  0.51100000000E-03 0.  1.
         11   -1    0    0    0    0 -0.00000000000E+00 -0.00000000000E+00 -0.45593999997E+02  0.45594000000E+02  0.51100000000E-03 0. -1.
    9900012    2    1    2    0    0  0.21782456420E+02 -0.79022962547E+01 -0.36697431185E+02  0.47787272479E+02  0.20000006539E+02 0.  0.
        -12    1    1    2    0    0 -0.21782456420E+02  0.79022962547E+01  0.36697431185E+02  0.43400727521E+02  0.00000000000E+00 0.  1.
         11    1    3    3    0    0  0.12399969522E+02  0.48582376400E+01 -0.10391687097E+02  0.16892272733E+02  0.51100000000E-03 0. -1.
        -11    1    3    3    0    0  0.71352957885E+01 -0.11528290457E+02 -0.20897366971E+02  0.24910115885E+02  0.51100000000E-03 0.  1.
         12    1    3    3    0    0  0.22471911097E+01 -0.12322434380E+01 -0.54083771177E+01  0.59848838603E+01  0.00000000000E+00 0. -1.
</event>
<event>
 7    1  0.2598019E-009  0.4778727E+02  0.7816164E-02  0.1312668E+00
        -11   -1    0    0    0    0  0.00000000000E+00  0.00000000000E+00  0.45593999997E+02  0.45594000000E+02  0.51100000000E-03 0.  1.
         11   -1    0    0    0    0 -0.00000000000E+00 -0.00000000000E+00 -0.45593999997E+02  0.45594000000E+02  0.51100000000E-03 0. -1.
    9900012    2    1    2    0    0 -0.27057095436E+02 -0.33646980845E+01 -0.33767077250E+02  0.47787272902E+02  0.20000008469E+02 0.  0.
        -12    1    1    2    0    0  0.27057095436E+02  0.33646980845E+01  0.33767077250E+02  0.43400727098E+02  0.00000000000E+00 0.  1.
         11    1    3    3    0    0 -0.14441164415E+02  0.36982195888E+01 -0.56015351706E+01  0.15924862772E+02  0.51100000000E-03 0. -1.
        -11    1    3    3    0    0 -0.40764688240E+01 -0.22321979394E+01 -0.12942331841E+02  0.13751518442E+02  0.51100000000E-03 0.  1.
         12    1    3    3    0    0 -0.85394621969E+01 -0.48307197340E+01 -0.15223210239E+02  0.18110891688E+02  0.00000000000E+00 0. -1.
</event>
<event>
 7    1  0.2598019E-009  0.4778727E+02  0.7816164E-02  0.1312668E+00
        -11   -1    0    0    0    0  0.00000000000E+00  0.00000000000E+00  0.45593999997E+02  0.45594000000E+02  0.51100000000E-03 0.  1.
         11   -1    0    0    0    0 -0.00000000000E+00 -0.00000000000E+00 -0.45593999997E+02  0.45594000000E+02  0.51100000000E-03 0. -1.
    9900012    2    1    2    0    0  0.17279783282E+01 -0.41906001719E+02 -0.11159069618E+02  0.47787265860E+02  0.19999976360E+02 0.  0.
        -12    1    1    2    0    0 -0.17279783282E+01  0.41906001719E+02  0.11159069618E+02  0.43400734140E+02  0.00000000000E+00 0.  1.
         11    1    3    3    0    0 -0.39392856912E+01 -0.12698580510E+02  0.37598091190E+01  0.13816949142E+02  0.51100000000E-03 0.  1.
        -11    1    3    3    0    0  0.38869302206E+01 -0.16422588873E+02 -0.12078502900E+02  0.20753310204E+02  0.51100000000E-03 0. -1.
        -12    1    3    3    0    0  0.17803337989E+01 -0.12784832336E+02 -0.28403758375E+01  0.13217006514E+02  0.00000000000E+00 0.  1.
</event>
<event>
 7    1  0.2598019E-009  0.4778727E+02  0.7816164E-02  0.1312668E+00
        -11   -1    0    0    0    0  0.00000000000E+00  0.00000000000E+00  0.45593999997E+02  0.45594000000E+02  0.51100000000E-03 0.  1.
         11   -1    0    0    0    0 -0.00000000000E+00 -0.00000000000E+00 -0.45593999997E+02  0.45594000000E+02  0.51100000000E-03 0. -1.
    9900012    2    1    2    0    0 -0.18861681937E+00 -0.26869739207E+02 -0.34082326450E+02  0.47787269158E+02  0.19999991401E+02 0.  0.
        -12    1    1    2    0    0  0.18861681937E+00  0.26869739207E+02  0.34082326450E+02  0.43400730842E+02  0.00000000000E+00 0.  1.
         11    1    3    3    0    0 -0.54315209349E+01 -0.11683281163E+02 -0.83685760500E+01  0.15363383213E+02  0.51100000000E-03 0. -1.
        -11    1    3    3    0    0  0.34967160229E+01 -0.51255868122E+00 -0.11067237809E+02  0.11617809274E+02  0.51100000000E-03 0.  1.
        -12    1    3    3    0    0  0.17461880926E+01 -0.14673899363E+02 -0.14646512590E+02  0.20806076671E+02  0.00000000000E+00 0.  1.
</event>
<event>
 7    1  0.2598019E-009  0.4778727E+02  0.7816164E-02  0.1312668E+00
        -11   -1    0    0    0    0  0.00000000000E+00  0.00000000000E+00  0.45593999997E+02  0.45594000000E+02  0.51100000000E-03 0. -1.
         11   -1    0    0    0    0 -0.00000000000E+00 -0.00000000000E+00 -0.45593999997E+02  0.45594000000E+02  0.51100000000E-03 0.  1.
    9900012    2    1    2    0    0  0.32937370797E+02 -0.27659678279E+02  0.58047407547E+01  0.47787271748E+02  0.20000003209E+02 0.  0.
        -12    1    1    2    0    0 -0.32937370797E+02  0.27659678279E+02 -0.58047407547E+01  0.43400728252E+02  0.00000000000E+00 0.  1.
         11    1    3    3    0    0  0.66494829748E+01 -0.15219868188E+02 -0.46271744583E+00  0.16615478302E+02  0.51100000000E-03 0. -1.
        -11    1    3    3    0    0  0.98119047182E+01 -0.12525392482E+01 -0.10671789540E+01  0.99489295880E+01  0.51100000000E-03 0.  1.
         12    1    3    3    0    0  0.16475983104E+02 -0.11187270843E+02  0.73346371545E+01  0.21222863859E+02  0.00000000000E+00 0. -1.
</event>
<event>
 7    1  0.2598019E-009  0.4778727E+02  0.7816164E-02  0.1312668E+00
        -11   -1    0    0    0    0  0.00000000000E+00  0.00000000000E+00  0.45593999997E+02  0.45594000000E+02  0.51100000000E-03 0. -1.
         11   -1    0    0    0    0 -0.00000000000E+00 -0.00000000000E+00 -0.45593999997E+02  0.45594000000E+02  0.51100000000E-03 0.  1.
    9900012    2    1    2    0    0 -0.45864859361E+01 -0.23254731818E+01  0.43095005187E+02  0.47787272462E+02  0.20000006465E+02 0.  0.
        -12    1    1    2    0    0  0.45864859361E+01  0.23254731818E+01 -0.43095005187E+02  0.43400727538E+02  0.00000000000E+00 0.  1.
         11    1    3    3    0    0  0.36405257880E+01 -0.12774011252E+01  0.78869967077E+00  0.39379219241E+01  0.51100000000E-03 0. -1.
        -11    1    3    3    0    0 -0.17454828132E+01  0.17326396044E+01  0.28360637453E+01  0.37539323487E+01  0.51100000000E-03 0.  1.
         12    1    3    3    0    0 -0.64815289109E+01 -0.27807116610E+01  0.39470241771E+02  0.40095418190E+02  0.00000000000E+00 0. -1.
</event>
<event>
 7    1  0.2598019E-009  0.4778727E+02  0.7816164E-02  0.1312668E+00
        -11   -1    0    0    0    0  0.00000000000E+00  0.00000000000E+00  0.45593999997E+02  0.45594000000E+02  0.51100000000E-03 0.  1.
         11   -1    0    0    0    0 -0.00000000000E+00 -0.00000000000E+00 -0.45593999997E+02  0.45594000000E+02  0.51100000000E-03 0. -1.
    9900012    2    1    2    0    0 -0.79468428516E+01  0.41366689600E+02 -0.10453133600E+02  0.47787270492E+02  0.19999997482E+02 0.  0.
        -12    1    1    2    0    0  0.79468428516E+01 -0.41366689600E+02  0.10453133600E+02  0.43400729508E+02  0.00000000000E+00 0.  1.
         11    1    3    3    0    0  0.59920597947E+01  0.13052472838E+02 -0.62988137969E+01  0.15682693751E+02  0.51100000000E-03 0. -1.
        -11    1    3    3    0    0 -0.10196313852E+02  0.18144332976E+02 -0.10834558504E+01  0.20841197474E+02  0.51100000000E-03 0.  1.
        -12    1    3    3    0    0 -0.37425887942E+01  0.10169883786E+02 -0.30708639526E+01  0.11263379268E+02  0.00000000000E+00 0.  1.
</event>
<event>
 7    1  0.2598019E-009  0.4778727E+02  0.7816164E-02  0.1312668E+00
        -11   -1    0    0    0    0  0.00000000000E+00  0.00000000000E+00  0.45593999997E+02  0.45594000000E+02  0.51100000000E-03 0. -1.
         11   -1    0    0    0    0 -0.00000000000E+00 -0.00000000000E+00 -0.45593999997E+02  0.45594000000E+02  0.51100000000E-03 0.  1.
    9900012    2    1    2    0    0  0.27437685166E+02  0.16206772206E+02  0.29464167566E+02  0.47787271861E+02  0.20000003725E+02 0.  0.
        -12    1    1    2    0    0 -0.27437685166E+02 -0.16206772206E+02 -0.29464167566E+02  0.43400728139E+02  0.00000000000E+00 0.  1.
         11    1    3    3    0    0  0.37358779325E+01  0.17053676141E+00  0.14882685347E+02  0.15345363799E+02  0.51100000000E-03 0. -1.
        -11    1    3    3    0    0  0.17120971987E+02  0.93070202052E+01  0.86822338013E+01  0.21333764106E+02  0.51100000000E-03 0.  1.
         12    1    3    3    0    0  0.65808352459E+01  0.67292152390E+01  0.58992484183E+01  0.11108143957E+02  0.00000000000E+00 0. -1.
</event>
<event>
 7    1  0.2598019E-009  0.4778727E+02  0.7816164E-02  0.1312668E+00
        -11   -1    0    0    0    0  0.00000000000E+00  0.00000000000E+00  0.45593999997E+02  0.45594000000E+02  0.51100000000E-03 0. -1.
         11   -1    0    0    0    0 -0.00000000000E+00 -0.00000000000E+00 -0.45593999997E+02  0.45594000000E+02  0.51100000000E-03 0.  1.
    9900012    2    1    2    0    0  0.41165297901E+02  0.10816081331E+02  0.84884546938E+01  0.47787271553E+02  0.20000002320E+02 0.  0.
        -12    1    1    2    0    0 -0.41165297901E+02 -0.10816081331E+02 -0.84884546938E+01  0.43400728447E+02  0.00000000000E+00 0.  1.
         11    1    3    3    0    0  0.10075736759E+02  0.61069621604E+01 -0.43291916122E+01  0.12552185401E+02  0.51100000000E-03 0. -1.
        -11    1    3    3    0    0  0.20499480780E+01  0.31141007215E+01  0.11918700721E+01  0.39141365531E+01  0.51100000000E-03 0.  1.
         12    1    3    3    0    0  0.29039613064E+02  0.15950184487E+01  0.11625776234E+02  0.31320949599E+02  0.00000000000E+00 0. -1.
</event>
<event>
 7    1  0.2598019E-009  0.4778727E+02  0.7816164E-02  0.1312668E+00
        -11   -1    0    0    0    0  0.00000000000E+00  0.00000000000E+00  0.45593999997E+02  0.45594000000E+02  0.51100000000E-03 0.  1.
         11   -1    0    0    0    0 -0.00000000000E+00 -0.00000000000E+00 -0.45593999997E+02  0.45594000000E+02  0.51100000000E-03 0. -1.
    9900012    2    1    2    0    0 -0.90872844399E+01  0.63774462141E+01 -0.41956794299E+02  0.47787272511E+02  0.20000006689E+02 0.  0.
        -12    1    1    2    0    0  0.90872844399E+01 -0.63774462141E+01  0.41956794299E+02  0.43400727489E+02  0.00000000000E+00 0.  1.
         11    1    3    3    0    0 -0.57902462352E+01  0.97990415218E+01 -0.27148401260E+02  0.29437796410E+02  0.51100000000E-03 0. -1.
        -11    1    3    3    0    0 -0.58632052064E+01 -0.23920460728E+00 -0.12093481424E+02  0.13441974830E+02  0.51100000000E-03 0.  1.
         12    1    3    3    0    0  0.25661670017E+01 -0.31823907004E+01 -0.27149116148E+01  0.49075012712E+01  0.00000000000E+00 0. -1.
</event>
<event>
 7    1  0.2598019E-009  0.4778728E+02  0.7816164E-02  0.1312668E+00
        -11   -1    0    0    0    0  0.00000000000E+00  0.00000000000E+00  0.45593999997E+02  0.45594000000E+02  0.51100000000E-03 0.  1.
         11   -1    0    0    0    0 -0.00000000000E+00 -0.00000000000E+00 -0.45593999997E+02  0.45594000000E+02  0.51100000000E-03 0. -1.
    9900012    2    1    2    0    0 -0.40270931347E+02 -0.16074327927E+02  0.18683939873E+01  0.47787276204E+02  0.20000023526E+02 0.  0.
        -12    1    1    2    0    0  0.40270931347E+02  0.16074327927E+02 -0.18683939873E+01  0.43400723796E+02  0.00000000000E+00 0.  1.
         11    1    3    3    0    0 -0.16412218461E+02 -0.44795609209E+01  0.27788588610E+00  0.17014834754E+02  0.51100000000E-03 0. -1.
        -11    1    3    3    0    0  0.21981368509E+01  0.18274824011E-01 -0.36478134952E-01  0.21985155218E+01  0.51100000000E-03 0.  1.
        -12    1    3    3    0    0 -0.26056849737E+02 -0.11613041831E+02  0.16269862361E+01  0.28573925929E+02  0.00000000000E+00 0.  1.
</event>
<event>
 7    1  0.2598019E-009  0.4778726E+02  0.7816164E-02  0.1312668E+00
        -11   -1    0    0    0    0  0.00000000000E+00  0.00000000000E+00  0.45593999997E+02  0.45594000000E+02  0.51100000000E-03 0. -1.
         11   -1    0    0    0    0 -0.00000000000E+00 -0.00000000000E+00 -0.45593999997E+02  0.45594000000E+02  0.51100000000E-03 0.  1.
    9900012    2    1    2    0    0 -0.25329797975E+02 -0.19479220085E+02  0.29369807431E+02  0.47787259579E+02  0.19999947725E+02 0.  0.
        -12    1    1    2    0    0  0.25329797975E+02  0.19479220085E+02 -0.29369807431E+02  0.43400740421E+02  0.00000000000E+00 0.  1.
         11    1    3    3    0    0 -0.19016387953E+02 -0.15356581692E+02  0.13855422064E+02  0.28096624937E+02  0.51100000000E-03 0. -1.
        -11    1    3    3    0    0 -0.11501234095E+01  0.24032735415E+01  0.81638263261E+01  0.85875822044E+01  0.51100000000E-03 0.  1.
        -12    1    3    3    0    0 -0.51632866121E+01 -0.65259119342E+01  0.73505590409E+01  0.11103052437E+02  0.00000000000E+00 0.  1.
</event>
<event>
 7    1  0.2598019E-009  0.4778727E+02  0.7816164E-02  0.1312668E+00
        -11   -1    0    0    0    0  0.00000000000E+00  0.00000000000E+00  0.45593999997E+02  0.45594000000E+02  0.51100000000E-03 0.  1.
         11   -1    0    0    0    0 -0.00000000000E+00 -0.00000000000E+00 -0.45593999997E+02  0.45594000000E+02  0.51100000000E-03 0. -1.
    9900012    2    1    2    0    0 -0.15470567639E+02  0.47474742130E+00 -0.40547003109E+02  0.47787270636E+02  0.19999998138E+02 0.  0.
        -12    1    1    2    0    0  0.15470567639E+02 -0.47474742130E+00  0.40547003109E+02  0.43400729364E+02  0.00000000000E+00 0.  1.
         11    1    3    3    0    0 -0.66131702046E+01  0.50361807920E+01 -0.15043834094E+02  0.17187614192E+02  0.51100000000E-03 0. -1.
        -11    1    3    3    0    0  0.20130545311E+01 -0.13739162935E+01  0.26480052555E+00  0.24515615649E+01  0.51100000000E-03 0.  1.
        -12    1    3    3    0    0 -0.10870451965E+02 -0.31875170772E+01 -0.25767969541E+02  0.28148094879E+02  0.00000000000E+00 0.  1.
</event>
<event>
 7    1  0.2598019E-009  0.4778727E+02  0.7816164E-02  0.1312668E+00
        -11   -1    0    0    0    0  0.00000000000E+00  0.00000000000E+00  0.45593999997E+02  0.45594000000E+02  0.51100000000E-03 0.  1.
         11   -1    0    0    0    0 -0.00000000000E+00 -0.00000000000E+00 -0.45593999997E+02  0.45594000000E+02  0.51100000000E-03 0. -1.
    9900012    2    1    2    0    0  0.55084897003E+01 -0.25417341186E+02 -0.34745341459E+02  0.47787269075E+02  0.19999991020E+02 0.  0.
        -12    1    1    2    0    0 -0.55084897003E+01  0.25417341186E+02  0.34745341459E+02  0.43400730925E+02  0.00000000000E+00 0.  1.
         11    1    3    3    0    0  0.72345433591E+01 -0.98859376985E+01 -0.59381755537E+01  0.13613681022E+02  0.51100000000E-03 0. -1.
        -11    1    3    3    0    0 -0.50738752499E+01 -0.12877543243E+02 -0.19293807347E+02  0.23745027526E+02  0.51100000000E-03 0.  1.
         12    1    3    3    0    0  0.33478215911E+01 -0.26538602446E+01 -0.95133585582E+01  0.10428560527E+02  0.00000000000E+00 0. -1.
</event>
<event>
 7    1  0.2598019E-009  0.4778728E+02  0.7816164E-02  0.1312668E+00
        -11   -1    0    0    0    0  0.00000000000E+00  0.00000000000E+00  0.45593999997E+02  0.45594000000E+02  0.51100000000E-03 0. -1.
         11   -1    0    0    0    0 -0.00000000000E+00 -0.00000000000E+00 -0.45593999997E+02  0.45594000000E+02  0.51100000000E-03 0.  1.
    9900012    2    1    2    0    0  0.17282674862E+02  0.15292097941E+02  0.36757091304E+02  0.47787275686E+02  0.20000021164E+02 0.  0.
        -12    1    1    2    0    0 -0.17282674862E+02 -0.15292097941E+02 -0.36757091304E+02  0.43400724314E+02  0.00000000000E+00 0.  1.
         11    1    3    3    0    0  0.77740746566E-01 -0.33606727000E+01  0.85593865003E+01  0.91958285186E+01  0.51100000000E-03 0. -1.
        -11    1    3    3    0    0  0.13516655548E+02  0.12489600796E+02  0.15762983202E+02  0.24231420614E+02  0.51100000000E-03 0.  1.
         12    1    3    3    0    0  0.36882785672E+01  0.61631698443E+01  0.12434721602E+02  0.14360026554E+02  0.00000000000E+00 0. -1.
</event>
<event>
 7    1  0.2598019E-009  0.4778727E+02  0.7816164E-02  0.1312668E+00
        -11   -1    0    0    0    0  0.00000000000E+00  0.00000000000E+00  0.45593999997E+02  0.45594000000E+02  0.51100000000E-03 0.  1.
         11   -1    0    0    0    0 -0.00000000000E+00 -0.00000000000E+00 -0.45593999997E+02  0.45594000000E+02  0.51100000000E-03 0. -1.
    9900012    2    1    2    0    0 -0.32550375700E+02 -0.25403255807E+02  0.13370537179E+02  0.47787266962E+02  0.19999981385E+02 0.  0.
        -12    1    1    2    0    0  0.32550375700E+02  0.25403255807E+02 -0.13370537179E+02  0.43400733038E+02  0.00000000000E+00 0.  1.
         11    1    3    3    0    0 -0.14490272911E+02 -0.45119562184E+01  0.21131970221E+00  0.15177958171E+02  0.51100000000E-03 0. -1.
        -11    1    3    3    0    0 -0.16088505299E+02 -0.14432374514E+02  0.14078128258E+02  0.25793935961E+02  0.51100000000E-03 0.  1.
        -12    1    3    3    0    0 -0.19715974896E+01 -0.64589250751E+01 -0.91891078087E+00  0.68153728298E+01  0.00000000000E+00 0.  1.
</event>
<event>
 7    1  0.2598019E-009  0.4778727E+02  0.7816164E-02  0.1312668E+00
        -11   -1    0    0    0    0  0.00000000000E+00  0.00000000000E+00  0.45593999997E+02  0.45594000000E+02  0.51100000000E-03 0. -1.
         11   -1    0    0    0    0 -0.00000000000E+00 -0.00000000000E+00 -0.45593999997E+02  0.45594000000E+02  0.51100000000E-03 0.  1.
    9900012    2    1    2    0    0  0.26501244261E+01  0.40183849616E+02 -0.16182040080E+02  0.47787270161E+02  0.19999995971E+02 0.  0.
        -12    1    1    2    0    0 -0.26501244261E+01 -0.40183849616E+02  0.16182040080E+02  0.43400729839E+02  0.00000000000E+00 0.  1.
         11    1    3    3    0    0 -0.42209274926E+01  0.28443991553E+02 -0.78811514302E+01  0.29815925820E+02  0.51100000000E-03 0. -1.
        -11    1    3    3    0    0  0.51723226818E+01  0.37576447824E+01 -0.88819838413E-01  0.63938021130E+01  0.51100000000E-03 0.  1.
         12    1    3    3    0    0  0.16987292369E+01  0.79822132803E+01 -0.82120688114E+01  0.11577542228E+02  0.00000000000E+00 0. -1.
</event>
<event>
 7    1  0.2598019E-009  0.4778727E+02  0.7816164E-02  0.1312668E+00
        -11   -1    0    0    0    0  0.00000000000E+00  0.00000000000E+00  0.45593999997E+02  0.45594000000E+02  0.51100000000E-03 0. -1.
         11   -1    0    0    0    0 -0.00000000000E+00 -0.00000000000E+00 -0.45593999997E+02  0.45594000000E+02  0.51100000000E-03 0.  1.
    9900012    2    1    2    0    0 -0.39345302828E+02  0.17752912173E+02 -0.45171186524E+01  0.47787272976E+02  0.20000008808E+02 0.  0.
        -12    1    1    2    0    0  0.39345302828E+02 -0.17752912173E+02  0.45171186524E+01  0.43400727024E+02  0.00000000000E+00 0.  1.
         11    1    3    3    0    0 -0.21357810323E+02  0.14751727391E+02  0.57233608369E+00  0.25963379820E+02  0.51100000000E-03 0. -1.
        -11    1    3    3    0    0 -0.16071309061E+02 -0.16813704795E+01 -0.37023317355E+01  0.16577733324E+02  0.51100000000E-03 0.  1.
        -12    1    3    3    0    0 -0.19161834443E+01  0.46825552618E+01 -0.13871230006E+01  0.52461598327E+01  0.00000000000E+00 0.  1.
</event>
<event>
 7    1  0.2598019E-009  0.4778728E+02  0.7816164E-02  0.1312668E+00
        -11   -1    0    0    0    0  0.00000000000E+00  0.00000000000E+00  0.45593999997E+02  0.45594000000E+02  0.51100000000E-03 0.  1.
         11   -1    0    0    0    0 -0.00000000000E+00 -0.00000000000E+00 -0.45593999997E+02  0.45594000000E+02  0.51100000000E-03 0. -1.
    9900012    2    1    2    0    0 -0.83080554880E+01  0.37833964384E+02  0.19575242115E+02  0.47787277069E+02  0.20000027470E+02 0.  0.
        -12    1    1    2    0    0  0.83080554880E+01 -0.37833964384E+02 -0.19575242115E+02  0.43400722931E+02  0.00000000000E+00 0.  1.
         11    1    3    3    0    0 -0.67475213560E+01  0.88155122618E+01  0.10245671420E+02  0.15106822432E+02  0.51100000000E-03 0. -1.
        -11    1    3    3    0    0 -0.51107554632E+01  0.55535993378E+01  0.15400054933E+01  0.77028503939E+01  0.51100000000E-03 0.  1.
         12    1    3    3    0    0  0.35502213312E+01  0.23464852785E+02  0.77895652019E+01  0.24977604244E+02  0.00000000000E+00 0. -1.
</event>
<event>
 7    1  0.2598019E-009  0.4778728E+02  0.7816164E-02  0.1312668E+00
        -11   -1    0    0    0    0  0.00000000000E+00  0.00000000000E+00  0.45593999997E+02  0.45594000000E+02  0.51100000000E-03 0.  1.
         11   -1    0    0    0    0 -0.00000000000E+00 -0.00000000000E+00 -0.45593999997E+02  0.45594000000E+02  0.51100000000E-03 0. -1.
    9900012    2    1    2    0    0  0.31601204311E+02  0.94507265239E+01 -0.28207632211E+02  0.47787275805E+02  0.20000021706E+02 0.  0.
        -12    1    1    2    0    0 -0.31601204311E+02 -0.94507265239E+01  0.28207632211E+02  0.43400724195E+02  0.00000000000E+00 0.  1.
         11    1    3    3    0    0  0.47289135256E+01  0.74093145724E+01 -0.10966045414E+02  0.14053992951E+02  0.51100000000E-03 0.  1.
        -11    1    3    3    0    0  0.64855025752E-01  0.67890870137E+00 -0.35235981359E+01  0.35889925165E+01  0.51100000000E-03 0. -1.
         12    1    3    3    0    0  0.26807435759E+02  0.13625032501E+01 -0.13717988660E+02  0.30144290338E+02  0.00000000000E+00 0. -1.
</event>
<event>
 7    1  0.2598019E-009  0.4778727E+02  0.7816164E-02  0.1312668E+00
        -11   -1    0    0    0    0  0.00000000000E+00  0.00000000000E+00  0.45593999997E+02  0.45594000000E+02  0.51100000000E-03 0. -1.
         11   -1    0    0    0    0 -0.00000000000E+00 -0.00000000000E+00 -0.45593999997E+02  0.45594000000E+02  0.51100000000E-03 0.  1.
    9900012    2    1    2    0    0 -0.26899903840E+02  0.30701336379E+02  0.14746070217E+02  0.47787268797E+02  0.19999989755E+02 0.  0.
        -12    1    1    2    0    0  0.26899903840E+02 -0.30701336379E+02 -0.14746070217E+02  0.43400731203E+02  0.00000000000E+00 0.  1.
         11    1    3    3    0    0 -0.57485646026E+01  0.11968969070E+02  0.70010520877E+01  0.15010561155E+02  0.51100000000E-03 0. -1.
        -11    1    3    3    0    0 -0.10734240402E+02  0.30691677976E+01 -0.23780716581E+01  0.11414855805E+02  0.51100000000E-03 0.  1.
        -12    1    3    3    0    0 -0.10417098836E+02  0.15663199511E+02  0.10123089787E+02  0.21361851838E+02  0.00000000000E+00 0.  1.
</event>
<event>
 7    1  0.2598019E-009  0.4778727E+02  0.7816164E-02  0.1312668E+00
        -11   -1    0    0    0    0  0.00000000000E+00  0.00000000000E+00  0.45593999997E+02  0.45594000000E+02  0.51100000000E-03 0. -1.
         11   -1    0    0    0    0 -0.00000000000E+00 -0.00000000000E+00 -0.45593999997E+02  0.45594000000E+02  0.51100000000E-03 0.  1.
    9900012    2    1    2    0    0  0.18193566034E+02  0.39164147722E+02  0.43344160595E+01  0.47787268734E+02  0.19999989467E+02 0.  0.
        -12    1    1    2    0    0 -0.18193566034E+02 -0.39164147722E+02 -0.43344160595E+01  0.43400731266E+02  0.00000000000E+00 0.  1.
         11    1    3    3    0    0  0.80886534265E+01  0.26211823244E+02  0.48821865316E+01  0.27862550810E+02  0.51100000000E-03 0. -1.
        -11    1    3    3    0    0  0.92285473088E+01  0.56680720662E+01 -0.43380756219E+01  0.11666705908E+02  0.51100000000E-03 0.  1.
        -12    1    3    3    0    0  0.87636529828E+00  0.72842524121E+01  0.37903051498E+01  0.82580120167E+01  0.00000000000E+00 0.  1.
</event>
<event>
 7    1  0.2598019E-009  0.4778727E+02  0.7816164E-02  0.1312668E+00
        -11   -1    0    0    0    0  0.00000000000E+00  0.00000000000E+00  0.45593999997E+02  0.45594000000E+02  0.51100000000E-03 0.  1.
         11   -1    0    0    0    0 -0.00000000000E+00 -0.00000000000E+00 -0.45593999997E+02  0.45594000000E+02  0.51100000000E-03 0. -1.
    9900012    2    1    2    0    0 -0.12180217503E+01  0.28388019568E+02 -0.32806403501E+02  0.47787270253E+02  0.19999996389E+02 0.  0.
        -12    1    1    2    0    0  0.12180217503E+01 -0.28388019568E+02  0.32806403501E+02  0.43400729747E+02  0.00000000000E+00 0.  1.
         11    1    3    3    0    0 -0.16000657880E+01  0.54925184801E+01 -0.75216851547E+01  0.94500644235E+01  0.51100000000E-03 0. -1.
        -11    1    3    3    0    0 -0.44766938455E+01  0.17574596140E+01 -0.11938142894E+02  0.12870458737E+02  0.51100000000E-03 0.  1.
        -12    1    3    3    0    0  0.48587378833E+01  0.21138041474E+02 -0.13346575452E+02  0.25466747092E+02  0.00000000000E+00 0.  1.
</event>
<event>
 7    1  0.2598019E-009  0.4778727E+02  0.7816164E-02  0.1312668E+00
        -11   -1    0    0    0    0  0.00000000000E+00  0.00000000000E+00  0.45593999997E+02  0.45594000000E+02  0.51100000000E-03 0.  1.
         11   -1    0    0    0    0 -0.00000000000E+00 -0.00000000000E+00 -0.45593999997E+02  0.45594000000E+02  0.51100000000E-03 0. -1.
    9900012    2    1    2    0    0  0.28699717129E+02  0.29402568918E+02  0.13979930346E+02  0.47787271035E+02  0.19999999955E+02 0.  0.
        -12    1    1    2    0    0 -0.28699717129E+02 -0.29402568918E+02 -0.13979930346E+02  0.43400728965E+02  0.00000000000E+00 0.  1.
         11    1    3    3    0    0  0.35994550850E+01  0.63797243756E+00  0.37222616345E+00  0.36744575542E+01  0.51100000000E-03 0. -1.
        -11    1    3    3    0    0  0.10385205364E+02  0.47436068932E+01 -0.24648294687E+01  0.11680311699E+02  0.51100000000E-03 0.  1.
        -12    1    3    3    0    0  0.14715056680E+02  0.24020989587E+02  0.16072533651E+02  0.32432501781E+02  0.00000000000E+00 0.  1.
</event>
<event>
 7    1  0.2598019E-009  0.4778728E+02  0.7816164E-02  0.1312668E+00
        -11   -1    0    0    0    0  0.00000000000E+00  0.00000000000E+00  0.45593999997E+02  0.45594000000E+02  0.51100000000E-03 0. -1.
         11   -1    0    0    0    0 -0.00000000000E+00 -0.00000000000E+00 -0.45593999997E+02  0.45594000000E+02  0.51100000000E-03 0.  1.
    9900012    2    1    2    0    0 -0.20961728200E+02  0.30790483967E+02  0.22274979201E+02  0.47787278227E+02  0.20000032747E+02 0.  0.
        -12    1    1    2    0    0  0.20961728200E+02 -0.30790483967E+02 -0.22274979201E+02  0.43400721773E+02  0.00000000000E+00 0.  1.
         11    1    3    3    0    0 -0.19860100634E+02  0.15410302618E+02  0.79567975011E+01  0.26366866532E+02  0.51100000000E-03 0.  1.
        -11    1    3    3    0    0 -0.25022838699E+01  0.11981943584E+02  0.10601485387E+02  0.16193205034E+02  0.51100000000E-03 0. -1.
        -12    1    3    3    0    0  0.14006563041E+01  0.33982377651E+01  0.37166963129E+01  0.52272066606E+01  0.00000000000E+00 0.  1.
</event>
<event>
 7    1  0.2598019E-009  0.4778727E+02  0.7816164E-02  0.1312668E+00
        -11   -1    0    0    0    0  0.00000000000E+00  0.00000000000E+00  0.45593999997E+02  0.45594000000E+02  0.51100000000E-03 0. -1.
         11   -1    0    0    0    0 -0.00000000000E+00 -0.00000000000E+00 -0.45593999997E+02  0.45594000000E+02  0.51100000000E-03 0.  1.
    9900012    2    1    2    0    0  0.87034190790E+01 -0.27367211221E+02  0.32540892028E+02  0.47787269503E+02  0.19999992971E+02 0.  0.
        -12    1    1    2    0    0 -0.87034190790E+01  0.27367211221E+02 -0.32540892028E+02  0.43400730497E+02  0.00000000000E+00 0.  1.
         11    1    3    3    0    0  0.12638736113E+01 -0.10936342396E+02  0.45027543491E+01  0.11894358263E+02  0.51100000000E-03 0. -1.
        -11    1    3    3    0    0  0.10783392221E+02 -0.13331085876E+02  0.25336266299E+02  0.30592904221E+02  0.51100000000E-03 0.  1.
        -12    1    3    3    0    0 -0.33438467537E+01 -0.30997829493E+01  0.27018713807E+01  0.53000070191E+01  0.00000000000E+00 0.  1.
</event>
<event>
 7    1  0.2598019E-009  0.4778726E+02  0.7816164E-02  0.1312668E+00
        -11   -1    0    0    0    0  0.00000000000E+00  0.00000000000E+00  0.45593999997E+02  0.45594000000E+02  0.51100000000E-03 0.  1.
         11   -1    0    0    0    0 -0.00000000000E+00 -0.00000000000E+00 -0.45593999997E+02  0.45594000000E+02  0.51100000000E-03 0. -1.
    9900012    2    1    2    0    0  0.41188656787E+02 -0.13551995954E+02  0.18607131133E+01  0.47787259274E+02  0.19999946335E+02 0.  0.
        -12    1    1    2    0    0 -0.41188656787E+02  0.13551995954E+02 -0.18607131133E+01  0.43400740726E+02  0.00000000000E+00 0.  1.
         11    1    3    3    0    0  0.30626187716E+02 -0.93633136165E+01  0.60671210127E+01  0.32595167948E+02  0.51100000000E-03 0. -1.
        -11    1    3    3    0    0  0.17969705635E+01  0.28215260081E+00 -0.49997197097E+01  0.53203299458E+01  0.51100000000E-03 0.  1.
        -12    1    3    3    0    0  0.87654985070E+01 -0.44708349386E+01  0.79331181022E+00  0.98717613805E+01  0.00000000000E+00 0.  1.
</event>
<event>
 7    1  0.2598019E-009  0.4778727E+02  0.7816164E-02  0.1312668E+00
        -11   -1    0    0    0    0  0.00000000000E+00  0.00000000000E+00  0.45593999997E+02  0.45594000000E+02  0.51100000000E-03 0.  1.
         11   -1    0    0    0    0 -0.00000000000E+00 -0.00000000000E+00 -0.45593999997E+02  0.45594000000E+02  0.51100000000E-03 0. -1.
    9900012    2    1    2    0    0 -0.16005859840E+02 -0.37577880234E+02  0.14674415139E+02  0.47787273142E+02  0.20000009563E+02 0.  0.
        -12    1    1    2    0    0  0.16005859840E+02  0.37577880234E+02 -0.14674415139E+02  0.43400726858E+02  0.00000000000E+00 0.  1.
         11    1    3    3    0    0 -0.50035434825E+01  0.88734438237E+00  0.25257607795E+01  0.56747066189E+01  0.51100000000E-03 0. -1.
        -11    1    3    3    0    0 -0.40648149772E+01 -0.20374057357E+02  0.82194936490E+01  0.22342448615E+02  0.51100000000E-03 0.  1.
         12    1    3    3    0    0 -0.69375013806E+01 -0.18091167259E+02  0.39291607106E+01  0.19770117908E+02  0.00000000000E+00 0. -1.
</event>
<event>
 7    1  0.2598019E-009  0.4778721E+02  0.7816164E-02  0.1312668E+00
        -11   -1    0    0    0    0  0.00000000000E+00  0.00000000000E+00  0.45593999997E+02  0.45594000000E+02  0.51100000000E-03 0. -1.
         11   -1    0    0    0    0 -0.00000000000E+00 -0.00000000000E+00 -0.45593999997E+02  0.45594000000E+02  0.51100000000E-03 0.  1.
    9900012    2    1    2    0    0  0.11638266340E+02  0.22978805695E+01  0.41748041244E+02  0.47787211457E+02  0.19999728313E+02 0.  0.
        -12    1    1    2    0    0 -0.11638266340E+02 -0.22978805695E+01 -0.41748041244E+02  0.43400788543E+02  0.00000000000E+00 0.  1.
         11    1    3    3    0    0  0.23458891959E+00  0.66084055237E+01  0.60054623840E+01  0.89326163151E+01  0.51100000000E-03 0. -1.
        -11    1    3    3    0    0  0.55645858071E+01 -0.43929523557E+01  0.88716764362E+01  0.11356464619E+02  0.51100000000E-03 0.  1.
         12    1    3    3    0    0  0.58390916136E+01  0.82427401532E-01  0.26870902423E+02  0.27498130522E+02  0.00000000000E+00 0. -1.
</event>
<event>
 7    1  0.2598019E-009  0.4778727E+02  0.7816164E-02  0.1312668E+00
        -11   -1    0    0    0    0  0.00000000000E+00  0.00000000000E+00  0.45593999997E+02  0.45594000000E+02  0.51100000000E-03 0. -1.
         11   -1    0    0    0    0 -0.00000000000E+00 -0.00000000000E+00 -0.45593999997E+02  0.45594000000E+02  0.51100000000E-03 0.  1.
    9900012    2    1    2    0    0 -0.39974392475E+02 -0.16170156162E+02  0.49190691002E+01  0.47787271378E+02  0.20000001522E+02 0.  0.
        -12    1    1    2    0    0  0.39974392475E+02  0.16170156162E+02 -0.49190691002E+01  0.43400728622E+02  0.00000000000E+00 0.  1.
         11    1    3    3    0    0 -0.34478994741E+02 -0.16450145826E+02  0.41614551960E+01  0.38428193890E+02  0.51100000000E-03 0. -1.
        -11    1    3    3    0    0  0.82970867867E+00  0.24921448498E+01  0.27308687068E+00  0.26407913859E+01  0.51100000000E-03 0.  1.
        -12    1    3    3    0    0 -0.63251064128E+01 -0.22121551861E+01  0.48452703359E+00  0.67182861019E+01  0.00000000000E+00 0.  1.
</event>
<event>
 7    1  0.2598019E-009  0.4778727E+02  0.7816164E-02  0.1312668E+00
        -11   -1    0    0    0    0  0.00000000000E+00  0.00000000000E+00  0.45593999997E+02  0.45594000000E+02  0.51100000000E-03 0. -1.
         11   -1    0    0    0    0 -0.00000000000E+00 -0.00000000000E+00 -0.45593999997E+02  0.45594000000E+02  0.51100000000E-03 0.  1.
    9900012    2    1    2    0    0  0.18416785316E+02 -0.31580164689E+02  0.23390991394E+02  0.47787271186E+02  0.20000000646E+02 0.  0.
        -12    1    1    2    0    0 -0.18416785316E+02  0.31580164689E+02 -0.23390991394E+02  0.43400728814E+02  0.00000000000E+00 0.  1.
         11    1    3    3    0    0  0.94853121640E+01 -0.93149465419E+01  0.17254735906E+02  0.21782224114E+02  0.51100000000E-03 0. -1.
        -11    1    3    3    0    0  0.36240473549E+00 -0.36839353230E+00 -0.12547401268E+01  0.13569908010E+01  0.51100000000E-03 0.  1.
         12    1    3    3    0    0  0.85690684163E+01 -0.21896824615E+02  0.73909956154E+01  0.24648056271E+02  0.00000000000E+00 0. -1.
</event>
<event>
 7    1  0.2598019E-009  0.4778727E+02  0.7816164E-02  0.1312668E+00
        -11   -1    0    0    0    0  0.00000000000E+00  0.00000000000E+00  0.45593999997E+02  0.45594000000E+02  0.51100000000E-03 0.  1.
         11   -1    0    0    0    0 -0.00000000000E+00 -0.00000000000E+00 -0.45593999997E+02  0.45594000000E+02  0.51100000000E-03 0. -1.
    9900012    2    1    2    0    0  0.28774890122E+02 -0.18182621390E+02 -0.26926215065E+02  0.47787273279E+02  0.20000010190E+02 0.  0.
        -12    1    1    2    0    0 -0.28774890122E+02  0.18182621390E+02  0.26926215065E+02  0.43400726721E+02  0.00000000000E+00 0.  1.
         11    1    3    3    0    0  0.19274065095E+02 -0.17734937716E+02 -0.10881128794E+02  0.28362238367E+02  0.51100000000E-03 0.  1.
        -11    1    3    3    0    0  0.73436546971E+01  0.18656160383E+01 -0.12924559700E+02  0.14981789987E+02  0.51100000000E-03 0. -1.
        -12    1    3    3    0    0  0.21571703300E+01 -0.23132997119E+01 -0.31205265717E+01  0.44432449262E+01  0.00000000000E+00 0.  1.
</event>
<event>
 7    1  0.2598019E-009  0.4778727E+02  0.7816164E-02  0.1312668E+00
        -11   -1    0    0    0    0  0.00000000000E+00  0.00000000000E+00  0.45593999997E+02  0.45594000000E+02  0.51100000000E-03 0.  1.
         11   -1    0    0    0    0 -0.00000000000E+00 -0.00000000000E+00 -0.45593999997E+02  0.45594000000E+02  0.51100000000E-03 0. -1.
    9900012    2    1    2    0    0  0.11625839953E+01  0.11804369733E+01 -0.43369091942E+02  0.47787272254E+02  0.20000005515E+02 0.  0.
        -12    1    1    2    0    0 -0.11625839953E+01 -0.11804369733E+01  0.43369091942E+02  0.43400727746E+02  0.00000000000E+00 0.  1.
         11    1    3    3    0    0  0.58638799807E+00  0.42886016901E+01 -0.35596369365E+02  0.35858575927E+02  0.51100000000E-03 0. -1.
        -11    1    3    3    0    0  0.38100549642E+01 -0.29454048582E+00 -0.63519149343E+01  0.74128332318E+01  0.51100000000E-03 0.  1.
         12    1    3    3    0    0 -0.32338589669E+01 -0.28136242310E+01 -0.14208076432E+01  0.45158630948E+01  0.00000000000E+00 0. -1.
</event>
<event>
 7    1  0.2598019E-009  0.4778727E+02  0.7816164E-02  0.1312668E+00
        -11   -1    0    0    0    0  0.00000000000E+00  0.00000000000E+00  0.45593999997E+02  0.45594000000E+02  0.51100000000E-03 0.  1.
         11   -1    0    0    0    0 -0.00000000000E+00 -0.00000000000E+00 -0.45593999997E+02  0.45594000000E+02  0.51100000000E-03 0. -1.
    9900012    2    1    2    0    0  0.29564121384E+02 -0.20242429756E+02 -0.24491424069E+02  0.47787273179E+02  0.20000009732E+02 0.  0.
        -12    1    1    2    0    0 -0.29564121384E+02  0.20242429756E+02  0.24491424069E+02  0.43400726821E+02  0.00000000000E+00 0.  1.
         11    1    3    3    0    0  0.22588175886E+02 -0.20504055555E+02 -0.19693849068E+02  0.36311013143E+02  0.51100000000E-03 0.  1.
        -11    1    3    3    0    0  0.36041115782E+01  0.30212444814E+01 -0.53052243353E+01  0.70896363795E+01  0.51100000000E-03 0. -1.
         12    1    3    3    0    0  0.33718339199E+01 -0.27596186827E+01  0.50764933477E+00  0.43866236566E+01  0.00000000000E+00 0. -1.
</event>
<event>
 7    1  0.2598019E-009  0.4778727E+02  0.7816164E-02  0.1312668E+00
        -11   -1    0    0    0    0  0.00000000000E+00  0.00000000000E+00  0.45593999997E+02  0.45594000000E+02  0.51100000000E-03 0.  1.
         11   -1    0    0    0    0 -0.00000000000E+00 -0.00000000000E+00 -0.45593999997E+02  0.45594000000E+02  0.51100000000E-03 0. -1.
    9900012    2    1    2    0    0 -0.41227133206E+02 -0.10877480339E+02  0.81010676652E+01  0.47787269727E+02  0.19999993993E+02 0.  0.
        -12    1    1    2    0    0  0.41227133206E+02  0.10877480339E+02 -0.81010676652E+01  0.43400730273E+02  0.00000000000E+00 0.  1.
         11    1    3    3    0    0 -0.27061114192E+02 -0.15114400955E+02  0.88715095248E+01  0.32240544335E+02  0.51100000000E-03 0. -1.
        -11    1    3    3    0    0 -0.46059397615E+01  0.24527938500E+01 -0.22988092878E+01  0.57022279119E+01  0.51100000000E-03 0.  1.
         12    1    3    3    0    0 -0.95600792526E+01  0.17841267656E+01  0.15283674282E+01  0.98444974797E+01  0.00000000000E+00 0. -1.
</event>
<event>
 7    1  0.2598019E-009  0.4778727E+02  0.7816164E-02  0.1312668E+00
        -11   -1    0    0    0    0  0.00000000000E+00  0.00000000000E+00  0.45593999997E+02  0.45594000000E+02  0.51100000000E-03 0. -1.
         11   -1    0    0    0    0 -0.00000000000E+00 -0.00000000000E+00 -0.45593999997E+02  0.45594000000E+02  0.51100000000E-03 0.  1.
    9900012    2    1    2    0    0  0.81618676128E+01 -0.13888987186E+02  0.40300162337E+02  0.47787272674E+02  0.20000007432E+02 0.  0.
        -12    1    1    2    0    0 -0.81618676128E+01  0.13888987186E+02 -0.40300162337E+02  0.43400727326E+02  0.00000000000E+00 0.  1.
         11    1    3    3    0    0  0.36610602291E+01 -0.16575057000E+02  0.25639386002E+02  0.30749211232E+02  0.51100000000E-03 0. -1.
        -11    1    3    3    0    0  0.54833308939E+01  0.22385422549E+01  0.14807923298E+02  0.15948435088E+02  0.51100000000E-03 0.  1.
         12    1    3    3    0    0 -0.98252351009E+00  0.44752755821E+00 -0.14714696279E+00  0.10896263543E+01  0.00000000000E+00 0. -1.
</event>
<event>
 7    1  0.2598019E-009  0.4778727E+02  0.7816164E-02  0.1312668E+00
        -11   -1    0    0    0    0  0.00000000000E+00  0.00000000000E+00  0.45593999997E+02  0.45594000000E+02  0.51100000000E-03 0. -1.
         11   -1    0    0    0    0 -0.00000000000E+00 -0.00000000000E+00 -0.45593999997E+02  0.45594000000E+02  0.51100000000E-03 0.  1.
    9900012    2    1    2    0    0 -0.37999436786E+02  0.79371273533E+00  0.20953182002E+02  0.47787274062E+02  0.20000013757E+02 0.  0.
        -12    1    1    2    0    0  0.37999436786E+02 -0.79371273533E+00 -0.20953182002E+02  0.43400725938E+02  0.00000000000E+00 0.  1.
         11    1    3    3    0    0  0.69851020413E+00  0.68749621608E+00  0.21600324247E+01  0.23719839564E+01  0.51100000000E-03 0. -1.
        -11    1    3    3    0    0 -0.20076225690E+02 -0.71577219176E+01  0.86733216969E+01  0.23011178382E+02  0.51100000000E-03 0.  1.
        -12    1    3    3    0    0 -0.18621721300E+02  0.72639384368E+01  0.10119827880E+02  0.22404111724E+02  0.00000000000E+00 0.  1.
</event>
<event>
 7    1  0.2598019E-009  0.4778726E+02  0.7816164E-02  0.1312668E+00
        -11   -1    0    0    0    0  0.00000000000E+00  0.00000000000E+00  0.45593999997E+02  0.45594000000E+02  0.51100000000E-03 0. -1.
         11   -1    0    0    0    0 -0.00000000000E+00 -0.00000000000E+00 -0.45593999997E+02  0.45594000000E+02  0.51100000000E-03 0.  1.
    9900012    2    1    2    0    0 -0.23011824674E+02  0.22845594546E+02  0.28847159629E+02  0.47787264019E+02  0.19999967970E+02 0.  0.
        -12    1    1    2    0    0  0.23011824674E+02 -0.22845594546E+02 -0.28847159629E+02  0.43400735981E+02  0.00000000000E+00 0.  1.
         11    1    3    3    0    0 -0.16783953053E+02  0.14324969917E+02  0.27094790971E+02  0.34943290361E+02  0.51100000000E-03 0. -1.
        -11    1    3    3    0    0 -0.18467646885E+01  0.49346010219E+01  0.41387387415E+01  0.66999989322E+01  0.51100000000E-03 0.  1.
         12    1    3    3    0    0 -0.43811069323E+01  0.35860236075E+01 -0.23863700833E+01  0.61439747265E+01  0.00000000000E+00 0. -1.
</event>
<event>
 7    1  0.2598019E-009  0.4778727E+02  0.7816164E-02  0.1312668E+00
        -11   -1    0    0    0    0  0.00000000000E+00  0.00000000000E+00  0.45593999997E+02  0.45594000000E+02  0.51100000000E-03 0.  1.
         11   -1    0    0    0    0 -0.00000000000E+00 -0.00000000000E+00 -0.45593999997E+02  0.45594000000E+02  0.51100000000E-03 0. -1.
    9900012    2    1    2    0    0 -0.89089249122E+01  0.41330349205E+02  0.98008553527E+01  0.47787268737E+02  0.19999989480E+02 0.  0.
        -12    1    1    2    0    0  0.89089249122E+01 -0.41330349205E+02 -0.98008553527E+01  0.43400731263E+02  0.00000000000E+00 0.  1.
         11    1    3    3    0    0 -0.79837187633E+01  0.14616733329E+02  0.10527805147E+02  0.19703383973E+02  0.51100000000E-03 0.  1.
        -11    1    3    3    0    0 -0.36491634630E+01  0.16671450848E+02 -0.32605079567E+01  0.17374826035E+02  0.51100000000E-03 0. -1.
         12    1    3    3    0    0  0.27239573141E+01  0.10042165028E+02  0.25335581619E+01  0.10709058729E+02  0.00000000000E+00 0. -1.
</event>
<event>
 7    1  0.2598019E-009  0.4778728E+02  0.7816164E-02  0.1312668E+00
        -11   -1    0    0    0    0  0.00000000000E+00  0.00000000000E+00  0.45593999997E+02  0.45594000000E+02  0.51100000000E-03 0.  1.
         11   -1    0    0    0    0 -0.00000000000E+00 -0.00000000000E+00 -0.45593999997E+02  0.45594000000E+02  0.51100000000E-03 0. -1.
    9900012    2    1    2    0    0 -0.22629580178E+02 -0.14255441445E+02 -0.34180503648E+02  0.47787281810E+02  0.20000049082E+02 0.  0.
        -12    1    1    2    0    0  0.22629580178E+02  0.14255441445E+02  0.34180503648E+02  0.43400718190E+02  0.00000000000E+00 0.  1.
         11    1    3    3    0    0 -0.27795348261E+01 -0.12599932706E+01 -0.10499904963E+02  0.10934413628E+02  0.51100000000E-03 0. -1.
        -11    1    3    3    0    0 -0.18101402823E+02 -0.15488121993E+02 -0.23969082197E+02  0.33794372441E+02  0.51100000000E-03 0.  1.
        -12    1    3    3    0    0 -0.17486425290E+01  0.24926738187E+01  0.28848351208E+00  0.30584957409E+01  0.00000000000E+00 0.  1.
</event>
<event>
 7    1  0.2598019E-009  0.4778727E+02  0.7816164E-02  0.1312668E+00
        -11   -1    0    0    0    0  0.00000000000E+00  0.00000000000E+00  0.45593999997E+02  0.45594000000E+02  0.51100000000E-03 0.  1.
         11   -1    0    0    0    0 -0.00000000000E+00 -0.00000000000E+00 -0.45593999997E+02  0.45594000000E+02  0.51100000000E-03 0. -1.
    9900012    2    1    2    0    0  0.24684742431E+01  0.33348812716E+02 -0.27665619907E+02  0.47787271901E+02  0.20000003907E+02 0.  0.
        -12    1    1    2    0    0 -0.24684742431E+01 -0.33348812716E+02  0.27665619907E+02  0.43400728099E+02  0.00000000000E+00 0.  1.
         11    1    3    3    0    0  0.15277520637E+01  0.26672010384E+01 -0.12067426358E+02  0.12452741341E+02  0.51100000000E-03 0. -1.
        -11    1    3    3    0    0  0.27624036718E+01  0.12993029391E+02 -0.32194308620E+01  0.13668007248E+02  0.51100000000E-03 0.  1.
        -12    1    3    3    0    0 -0.18216814924E+01  0.17688582287E+02 -0.12378762687E+02  0.21666523313E+02  0.00000000000E+00 0.  1.
</event>
<event>
 7    1  0.2598019E-009  0.4778728E+02  0.7816164E-02  0.1312668E+00
        -11   -1    0    0    0    0  0.00000000000E+00  0.00000000000E+00  0.45593999997E+02  0.45594000000E+02  0.51100000000E-03 0.  1.
         11   -1    0    0    0    0 -0.00000000000E+00 -0.00000000000E+00 -0.45593999997E+02  0.45594000000E+02  0.51100000000E-03 0. -1.
    9900012    2    1    2    0    0  0.18185492369E+02 -0.62688112551E+01 -0.38905175675E+02  0.47787276255E+02  0.20000023758E+02 0.  0.
        -12    1    1    2    0    0 -0.18185492369E+02  0.62688112551E+01  0.38905175675E+02  0.43400723745E+02  0.00000000000E+00 0.  1.
         11    1    3    3    0    0  0.12803860362E+02 -0.34507224154E+00 -0.34367785436E+02  0.36677003572E+02  0.51100000000E-03 0. -1.
        -11    1    3    3    0    0  0.23618743143E+01 -0.63809030176E+01 -0.42956560399E+01  0.80465542110E+01  0.51100000000E-03 0.  1.
        -12    1    3    3    0    0  0.30197576933E+01  0.45716400407E+00 -0.24173419936E+00  0.30637184721E+01  0.00000000000E+00 0.  1.
</event>
<event>
 7    1  0.2598019E-009  0.4778727E+02  0.7816164E-02  0.1312668E+00
        -11   -1    0    0    0    0  0.00000000000E+00  0.00000000000E+00  0.45593999997E+02  0.45594000000E+02  0.51100000000E-03 0.  1.
         11   -1    0    0    0    0 -0.00000000000E+00 -0.00000000000E+00 -0.45593999997E+02  0.45594000000E+02  0.51100000000E-03 0. -1.
    9900012    2    1    2    0    0  0.20224305774E+02 -0.23875789066E+02 -0.30075696518E+02  0.47787269953E+02  0.19999995023E+02 0.  0.
        -12    1    1    2    0    0 -0.20224305774E+02  0.23875789066E+02  0.30075696518E+02  0.43400730047E+02  0.00000000000E+00 0.  1.
         11    1    3    3    0    0  0.13724058973E+02 -0.19816029997E+02 -0.22044739610E+02  0.32664895290E+02  0.51100000000E-03 0.  1.
        -11    1    3    3    0    0  0.49863306302E+00  0.29831337395E+01 -0.40362549603E+01  0.50437165072E+01  0.51100000000E-03 0. -1.
        -12    1    3    3    0    0  0.60016137380E+01 -0.70428928083E+01 -0.39947019481E+01  0.10078658156E+02  0.00000000000E+00 0.  1.
</event>
<event>
 7    1  0.2598019E-009  0.4778727E+02  0.7816164E-02  0.1312668E+00
        -11   -1    0    0    0    0  0.00000000000E+00  0.00000000000E+00  0.45593999997E+02  0.45594000000E+02  0.51100000000E-03 0.  1.
         11   -1    0    0    0    0 -0.00000000000E+00 -0.00000000000E+00 -0.45593999997E+02  0.45594000000E+02  0.51100000000E-03 0. -1.
    9900012    2    1    2    0    0  0.17887081916E+02  0.37282844364E+02  0.13178206669E+02  0.47787270578E+02  0.19999997874E+02 0.  0.
        -12    1    1    2    0    0 -0.17887081916E+02 -0.37282844364E+02 -0.13178206669E+02  0.43400729422E+02  0.00000000000E+00 0.  1.
         11    1    3    3    0    0  0.31145784617E+01  0.17750889712E+02  0.36369194463E+01  0.18385371029E+02  0.51100000000E-03 0. -1.
        -11    1    3    3    0    0  0.11216468372E+02  0.67330934747E+01  0.61203116323E-01  0.13082333758E+02  0.51100000000E-03 0.  1.
        -12    1    3    3    0    0  0.35560350825E+01  0.12798861177E+02  0.94800841064E+01  0.16319565791E+02  0.00000000000E+00 0.  1.
</event>
<event>
 7    1  0.2598019E-009  0.4778727E+02  0.7816164E-02  0.1312668E+00
        -11   -1    0    0    0    0  0.00000000000E+00  0.00000000000E+00  0.45593999997E+02  0.45594000000E+02  0.51100000000E-03 0.  1.
         11   -1    0    0    0    0 -0.00000000000E+00 -0.00000000000E+00 -0.45593999997E+02  0.45594000000E+02  0.51100000000E-03 0. -1.
    9900012    2    1    2    0    0  0.22753954054E+02  0.11532223987E+02 -0.35112510986E+02  0.47787273705E+02  0.20000012131E+02 0.  0.
        -12    1    1    2    0    0 -0.22753954054E+02 -0.11532223987E+02  0.35112510986E+02  0.43400726295E+02  0.00000000000E+00 0.  1.
         11    1    3    3    0    0  0.14684354558E+02  0.34677636953E+01 -0.20000206312E+02  0.25053221482E+02  0.51100000000E-03 0. -1.
        -11    1    3    3    0    0  0.11185748901E-01 -0.11589870506E+01  0.16238039511E+01  0.19950227159E+01  0.51100000000E-03 0.  1.
        -12    1    3    3    0    0  0.80584137470E+01  0.92234473428E+01 -0.16736108624E+02  0.20739029507E+02  0.00000000000E+00 0.  1.
</event>
<event>
 7    1  0.2598019E-009  0.4778728E+02  0.7816164E-02  0.1312668E+00
        -11   -1    0    0    0    0  0.00000000000E+00  0.00000000000E+00  0.45593999997E+02  0.45594000000E+02  0.51100000000E-03 0.  1.
         11   -1    0    0    0    0 -0.00000000000E+00 -0.00000000000E+00 -0.45593999997E+02  0.45594000000E+02  0.51100000000E-03 0. -1.
    9900012    2    1    2    0    0  0.17745761218E+02  0.34784255340E+02 -0.18941122619E+02  0.47787278960E+02  0.20000036088E+02 0.  0.
        -12    1    1    2    0    0 -0.17745761218E+02 -0.34784255340E+02  0.18941122619E+02  0.43400721040E+02  0.00000000000E+00 0.  1.
         11    1    3    3    0    0  0.57766170818E+01  0.24783424719E+02 -0.87949196540E+01  0.26924673771E+02  0.51100000000E-03 0. -1.
        -11    1    3    3    0    0  0.97303599684E+01  0.62587346892E+01 -0.11483993057E+02  0.16301342332E+02  0.51100000000E-03 0.  1.
         12    1    3    3    0    0  0.22387841677E+01  0.37420959319E+01  0.13377900922E+01  0.45612628562E+01  0.00000000000E+00 0. -1.
</event>
<event>
 7    1  0.2598019E-009  0.4778724E+02  0.7816164E-02  0.1312668E+00
        -11   -1    0    0    0    0  0.00000000000E+00  0.00000000000E+00  0.45593999997E+02  0.45594000000E+02  0.51100000000E-03 0.  1.
         11   -1    0    0    0    0 -0.00000000000E+00 -0.00000000000E+00 -0.45593999997E+02  0.45594000000E+02  0.51100000000E-03 0. -1.
    9900012    2    1    2    0    0  0.10414166828E+02  0.83328536010E+01 -0.41300543316E+02  0.47787237356E+02  0.19999846400E+02 0.  0.
        -12    1    1    2    0    0 -0.10414166828E+02 -0.83328536010E+01  0.41300543316E+02  0.43400762644E+02  0.00000000000E+00 0.  1.
         11    1    3    3    0    0  0.78739633358E+01  0.90056974992E+01 -0.13586484852E+02  0.18102332915E+02  0.51100000000E-03 0. -1.
        -11    1    3    3    0    0  0.25356389054E+01  0.18941718927E+01 -0.17941192300E+01  0.36381610588E+01  0.51100000000E-03 0.  1.
         12    1    3    3    0    0  0.45645868601E-02 -0.25670157910E+01 -0.25919939234E+02  0.26046743382E+02  0.00000000000E+00 0. -1.
</event>
<event>
 7    1  0.2598019E-009  0.4778727E+02  0.7816164E-02  0.1312668E+00
        -11   -1    0    0    0    0  0.00000000000E+00  0.00000000000E+00  0.45593999997E+02  0.45594000000E+02  0.51100000000E-03 0. -1.
         11   -1    0    0    0    0 -0.00000000000E+00 -0.00000000000E+00 -0.45593999997E+02  0.45594000000E+02  0.51100000000E-03 0.  1.
    9900012    2    1    2    0    0 -0.15899462414E+02  0.39090289756E+02 -0.10138021626E+02  0.47787272578E+02  0.20000006993E+02 0.  0.
        -12    1    1    2    0    0  0.15899462414E+02 -0.39090289756E+02  0.10138021626E+02  0.43400727422E+02  0.00000000000E+00 0.  1.
         11    1    3    3    0    0 -0.25641601201E+01  0.23618978154E+02 -0.12594467648E+02  0.26889619963E+02  0.51100000000E-03 0. -1.
        -11    1    3    3    0    0 -0.54270440578E+01  0.70866256897E+01  0.28358474072E+01  0.93656340762E+01  0.51100000000E-03 0.  1.
         12    1    3    3    0    0 -0.79082582359E+01  0.83846859119E+01 -0.37940138572E+00  0.11532018539E+02  0.00000000000E+00 0. -1.
</event>
<event>
 7    1  0.2598019E-009  0.4778727E+02  0.7816164E-02  0.1312668E+00
        -11   -1    0    0    0    0  0.00000000000E+00  0.00000000000E+00  0.45593999997E+02  0.45594000000E+02  0.51100000000E-03 0.  1.
         11   -1    0    0    0    0 -0.00000000000E+00 -0.00000000000E+00 -0.45593999997E+02  0.45594000000E+02  0.51100000000E-03 0. -1.
    9900012    2    1    2    0    0  0.28190870047E+02 -0.69719547092E+01 -0.32253528757E+02  0.47787269318E+02  0.19999992130E+02 0.  0.
        -12    1    1    2    0    0 -0.28190870047E+02  0.69719547092E+01  0.32253528757E+02  0.43400730682E+02  0.00000000000E+00 0.  1.
         11    1    3    3    0    0  0.36481743525E+01  0.14436632290E+01 -0.77256087578E+01  0.86647775831E+01  0.51100000000E-03 0. -1.
        -11    1    3    3    0    0  0.79079719482E+01  0.24999584417E+01 -0.14822853246E+02  0.16985369915E+02  0.51100000000E-03 0.  1.
        -12    1    3    3    0    0  0.16634723746E+02 -0.10915576380E+02 -0.97050667532E+01  0.22137121820E+02  0.00000000000E+00 0.  1.
</event>
<event>
 7    1  0.2598019E-009  0.4778726E+02  0.7816164E-02  0.1312668E+00
        -11   -1    0    0    0    0  0.00000000000E+00  0.00000000000E+00  0.45593999997E+02  0.45594000000E+02  0.51100000000E-03 0.  1.
         11   -1    0    0    0    0 -0.00000000000E+00 -0.00000000000E+00 -0.45593999997E+02  0.45594000000E+02  0.51100000000E-03 0. -1.
    9900012    2    1    2    0    0  0.23445557133E+02 -0.33852357903E+02  0.13709404223E+02  0.47787262115E+02  0.19999959286E+02 0.  0.
        -12    1    1    2    0    0 -0.23445557133E+02  0.33852357903E+02 -0.13709404223E+02  0.43400737885E+02  0.00000000000E+00 0.  1.
         11    1    3    3    0    0  0.14095315674E+02 -0.86478975135E+01  0.51854216566E+01  0.17330685311E+02  0.51100000000E-03 0. -1.
        -11    1    3    3    0    0  0.57750512403E+01 -0.24663049432E+02  0.59544183398E+01  0.26020613408E+02  0.51100000000E-03 0.  1.
        -12    1    3    3    0    0  0.35751902191E+01 -0.54141095683E+00  0.25695642266E+01  0.44359633950E+01  0.00000000000E+00 0.  1.
</event>
<event>
 7    1  0.2598019E-009  0.4778727E+02  0.7816164E-02  0.1312668E+00
        -11   -1    0    0    0    0  0.00000000000E+00  0.00000000000E+00  0.45593999997E+02  0.45594000000E+02  0.51100000000E-03 0.  1.
         11   -1    0    0    0    0 -0.00000000000E+00 -0.00000000000E+00 -0.45593999997E+02  0.45594000000E+02  0.51100000000E-03 0. -1.
    9900012    2    1    2    0    0  0.79249726641E+01 -0.16364016570E+02 -0.39408592509E+02  0.47787269665E+02  0.19999993711E+02 0.  0.
        -12    1    1    2    0    0 -0.79249726641E+01  0.16364016570E+02  0.39408592509E+02  0.43400730335E+02  0.00000000000E+00 0.  1.
         11    1    3    3    0    0  0.79739062744E+01 -0.14899508106E+02 -0.39919337056E+02  0.43348956092E+02  0.51100000000E-03 0. -1.
        -11    1    3    3    0    0 -0.40888208377E+00 -0.23852207946E+01  0.16507263065E+01  0.29293959100E+01  0.51100000000E-03 0.  1.
         12    1    3    3    0    0  0.35994847344E+00  0.92071233080E+00 -0.11399817603E+01  0.15089176629E+01  0.00000000000E+00 0. -1.
</event>
<event>
 7    1  0.2598019E-009  0.4778727E+02  0.7816164E-02  0.1312668E+00
        -11   -1    0    0    0    0  0.00000000000E+00  0.00000000000E+00  0.45593999997E+02  0.45594000000E+02  0.51100000000E-03 0.  1.
         11   -1    0    0    0    0 -0.00000000000E+00 -0.00000000000E+00 -0.45593999997E+02  0.45594000000E+02  0.51100000000E-03 0. -1.
    9900012    2    1    2    0    0  0.18361251022E+02  0.92566489363E+01 -0.38220443824E+02  0.47787269422E+02  0.19999992602E+02 0.  0.
        -12    1    1    2    0    0 -0.18361251022E+02 -0.92566489363E+01  0.38220443824E+02  0.43400730578E+02  0.00000000000E+00 0.  1.
         11    1    3    3    0    0  0.11312424919E+02  0.11042534450E+02 -0.23719633081E+02  0.28504903410E+02  0.51100000000E-03 0. -1.
        -11    1    3    3    0    0  0.61894776595E+01 -0.38685796746E+01 -0.15251070779E+02  0.16907711335E+02  0.51100000000E-03 0.  1.
        -12    1    3    3    0    0  0.85934844269E+00  0.20826941608E+01  0.75026003683E+00  0.23746546773E+01  0.00000000000E+00 0.  1.
</event>
<event>
 7    1  0.2598019E-009  0.4778727E+02  0.7816164E-02  0.1312668E+00
        -11   -1    0    0    0    0  0.00000000000E+00  0.00000000000E+00  0.45593999997E+02  0.45594000000E+02  0.51100000000E-03 0.  1.
         11   -1    0    0    0    0 -0.00000000000E+00 -0.00000000000E+00 -0.45593999997E+02  0.45594000000E+02  0.51100000000E-03 0. -1.
    9900012    2    1    2    0    0 -0.41736464738E+02 -0.83311069930E+01 -0.85019627556E+01  0.47787271858E+02  0.20000003712E+02 0.  0.
        -12    1    1    2    0    0  0.41736464738E+02  0.83311069930E+01  0.85019627556E+01  0.43400728142E+02  0.00000000000E+00 0.  1.
         11    1    3    3    0    0 -0.29254458806E+02 -0.26174097625E+01 -0.10428123072E+02  0.31167610511E+02  0.51100000000E-03 0. -1.
        -11    1    3    3    0    0 -0.41603750284E+00 -0.43119343347E+01  0.93850613836E+00  0.44324551823E+01  0.51100000000E-03 0.  1.
         12    1    3    3    0    0 -0.12065968429E+02 -0.14017628958E+01  0.98765417800E+00  0.12187206165E+02  0.00000000000E+00 0. -1.
</event>
<event>
 7    1  0.2598019E-009  0.4778727E+02  0.7816164E-02  0.1312668E+00
        -11   -1    0    0    0    0  0.00000000000E+00  0.00000000000E+00  0.45593999997E+02  0.45594000000E+02  0.51100000000E-03 0.  1.
         11   -1    0    0    0    0 -0.00000000000E+00 -0.00000000000E+00 -0.45593999997E+02  0.45594000000E+02  0.51100000000E-03 0. -1.
    9900012    2    1    2    0    0 -0.48453949325E+01  0.33044659733E+02 -0.27716356310E+02  0.47787265029E+02  0.19999972573E+02 0.  0.
        -12    1    1    2    0    0  0.48453949325E+01 -0.33044659733E+02  0.27716356310E+02  0.43400734971E+02  0.00000000000E+00 0.  1.
         11    1    3    3    0    0 -0.76182346888E+00  0.13322894920E+02 -0.65113715318E+00  0.13360534567E+02  0.51100000000E-03 0. -1.
        -11    1    3    3    0    0  0.11106261932E+01  0.81867074701E+01 -0.13890424205E+02  0.16161669301E+02  0.51100000000E-03 0.  1.
         12    1    3    3    0    0 -0.51941976568E+01  0.11535057342E+02 -0.13174794952E+02  0.18265061161E+02  0.00000000000E+00 0. -1.
</event>
<event>
 7    1  0.2598019E-009  0.4778727E+02  0.7816164E-02  0.1312668E+00
        -11   -1    0    0    0    0  0.00000000000E+00  0.00000000000E+00  0.45593999997E+02  0.45594000000E+02  0.51100000000E-03 0.  1.
         11   -1    0    0    0    0 -0.00000000000E+00 -0.00000000000E+00 -0.45593999997E+02  0.45594000000E+02  0.51100000000E-03 0. -1.
    9900012    2    1    2    0    0  0.21323821031E+02 -0.24305902261E+02 -0.28950666198E+02  0.47787270727E+02  0.19999998555E+02 0.  0.
        -12    1    1    2    0    0 -0.21323821031E+02  0.24305902261E+02  0.28950666198E+02  0.43400729273E+02  0.00000000000E+00 0.  1.
         11    1    3    3    0    0  0.13089225677E+02 -0.10639065400E+01 -0.78289608739E+01  0.15288961854E+02  0.51100000000E-03 0. -1.
        -11    1    3    3    0    0  0.56787309302E+01 -0.15048565237E+02 -0.12985774206E+02  0.20672146300E+02  0.51100000000E-03 0.  1.
         12    1    3    3    0    0  0.25558644239E+01 -0.81934304841E+01 -0.81359311182E+01  0.11826162573E+02  0.00000000000E+00 0. -1.
</event>
<event>
 7    1  0.2598019E-009  0.4778727E+02  0.7816164E-02  0.1312668E+00
        -11   -1    0    0    0    0  0.00000000000E+00  0.00000000000E+00  0.45593999997E+02  0.45594000000E+02  0.51100000000E-03 0.  1.
         11   -1    0    0    0    0 -0.00000000000E+00 -0.00000000000E+00 -0.45593999997E+02  0.45594000000E+02  0.51100000000E-03 0. -1.
    9900012    2    1    2    0    0 -0.59814766478E+01  0.11991881817E+02 -0.41280022763E+02  0.47787267613E+02  0.19999984356E+02 0.  0.
        -12    1    1    2    0    0  0.59814766478E+01 -0.11991881817E+02  0.41280022763E+02  0.43400732387E+02  0.00000000000E+00 0.  1.
         11    1    3    3    0    0 -0.83920231866E+00  0.62425797344E+01 -0.30891860202E+01  0.70154923420E+01  0.51100000000E-03 0.  1.
        -11    1    3    3    0    0 -0.20859436217E+01 -0.17493715757E+01 -0.25965763770E+02  0.26108089745E+02  0.51100000000E-03 0. -1.
         12    1    3    3    0    0 -0.30563307075E+01  0.74986736587E+01 -0.12225072973E+02  0.14663685527E+02  0.00000000000E+00 0. -1.
</event>
<event>
 7    1  0.2598019E-009  0.4778727E+02  0.7816164E-02  0.1312668E+00
        -11   -1    0    0    0    0  0.00000000000E+00  0.00000000000E+00  0.45593999997E+02  0.45594000000E+02  0.51100000000E-03 0.  1.
         11   -1    0    0    0    0 -0.00000000000E+00 -0.00000000000E+00 -0.45593999997E+02  0.45594000000E+02  0.51100000000E-03 0. -1.
    9900012    2    1    2    0    0 -0.13023314482E+02 -0.15059085808E+02 -0.38564755480E+02  0.47787272464E+02  0.20000006470E+02 0.  0.
        -12    1    1    2    0    0  0.13023314482E+02  0.15059085808E+02  0.38564755480E+02  0.43400727536E+02  0.00000000000E+00 0.  1.
         11    1    3    3    0    0 -0.82706186936E+01 -0.80027102789E+01 -0.53111979859E+01  0.12674988351E+02  0.51100000000E-03 0. -1.
        -11    1    3    3    0    0  0.18593391930E+01 -0.21110894593E+01 -0.11644419036E+02  0.11979413002E+02  0.51100000000E-03 0.  1.
        -12    1    3    3    0    0 -0.66120349813E+01 -0.49452860695E+01 -0.21609138459E+02  0.23132871111E+02  0.00000000000E+00 0.  1.
</event>
<event>
 7    1  0.2598019E-009  0.4778728E+02  0.7816164E-02  0.1312668E+00
        -11   -1    0    0    0    0  0.00000000000E+00  0.00000000000E+00  0.45593999997E+02  0.45594000000E+02  0.51100000000E-03 0.  1.
         11   -1    0    0    0    0 -0.00000000000E+00 -0.00000000000E+00 -0.45593999997E+02  0.45594000000E+02  0.51100000000E-03 0. -1.
    9900012    2    1    2    0    0  0.13525081777E+02 -0.73009525504E+00 -0.41233018568E+02  0.47787277697E+02  0.20000030333E+02 0.  0.
        -12    1    1    2    0    0 -0.13525081777E+02  0.73009525504E+00  0.41233018568E+02  0.43400722303E+02  0.00000000000E+00 0.  1.
         11    1    3    3    0    0 -0.31894058688E+01 -0.49307607013E+01 -0.13899562347E+02  0.15089153210E+02  0.51100000000E-03 0. -1.
        -11    1    3    3    0    0  0.65776724922E+01  0.41930754788E+01 -0.12385087908E+02  0.14636873305E+02  0.51100000000E-03 0.  1.
         12    1    3    3    0    0  0.10136815154E+02  0.75899674223E-02 -0.14948368313E+02  0.18061251183E+02  0.00000000000E+00 0. -1.
</event>
<event>
 7    1  0.2598019E-009  0.4778728E+02  0.7816164E-02  0.1312668E+00
        -11   -1    0    0    0    0  0.00000000000E+00  0.00000000000E+00  0.45593999997E+02  0.45594000000E+02  0.51100000000E-03 0. -1.
         11   -1    0    0    0    0 -0.00000000000E+00 -0.00000000000E+00 -0.45593999997E+02  0.45594000000E+02  0.51100000000E-03 0.  1.
    9900012    2    1    2    0    0  0.28207789158E+02 -0.50145435202E+01  0.32600568632E+02  0.47787284672E+02  0.20000062132E+02 0.  0.
        -12    1    1    2    0    0 -0.28207789158E+02  0.50145435202E+01 -0.32600568632E+02  0.43400715328E+02  0.00000000000E+00 0.  1.
         11    1    3    3    0    0  0.69758270866E+01 -0.74823209933E+01  0.16093614305E+02  0.19069654236E+02  0.51100000000E-03 0. -1.
        -11    1    3    3    0    0  0.13358612030E+02  0.15132390625E+01  0.42153248576E+01  0.14089406366E+02  0.51100000000E-03 0.  1.
         12    1    3    3    0    0  0.78733500414E+01  0.95453841063E+00  0.12291629469E+02  0.14628224070E+02  0.00000000000E+00 0. -1.
</event>
<event>
 7    1  0.2598019E-009  0.4778727E+02  0.7816164E-02  0.1312668E+00
        -11   -1    0    0    0    0  0.00000000000E+00  0.00000000000E+00  0.45593999997E+02  0.45594000000E+02  0.51100000000E-03 0.  1.
         11   -1    0    0    0    0 -0.00000000000E+00 -0.00000000000E+00 -0.45593999997E+02  0.45594000000E+02  0.51100000000E-03 0. -1.
    9900012    2    1    2    0    0  0.23057295612E+02 -0.58749882360E+01 -0.36296956258E+02  0.47787269576E+02  0.19999993305E+02 0.  0.
        -12    1    1    2    0    0 -0.23057295612E+02  0.58749882360E+01  0.36296956258E+02  0.43400730424E+02  0.00000000000E+00 0.  1.
         11    1    3    3    0    0  0.16129627466E+02 -0.89838807023E+01 -0.18988358989E+02  0.26484576116E+02  0.51100000000E-03 0. -1.
        -11    1    3    3    0    0  0.46787835968E+01  0.64398374376E+01 -0.13966491087E+02  0.16075614941E+02  0.51100000000E-03 0.  1.
        -12    1    3    3    0    0  0.22488845490E+01 -0.33309449713E+01 -0.33421061819E+01  0.52270785194E+01  0.00000000000E+00 0.  1.
</event>
<event>
 7    1  0.2598019E-009  0.4778727E+02  0.7816164E-02  0.1312668E+00
        -11   -1    0    0    0    0  0.00000000000E+00  0.00000000000E+00  0.45593999997E+02  0.45594000000E+02  0.51100000000E-03 0.  1.
         11   -1    0    0    0    0 -0.00000000000E+00 -0.00000000000E+00 -0.45593999997E+02  0.45594000000E+02  0.51100000000E-03 0. -1.
    9900012    2    1    2    0    0  0.10651327840E+02 -0.21370975857E+02 -0.36241606324E+02  0.47787269329E+02  0.19999992180E+02 0.  0.
        -12    1    1    2    0    0 -0.10651327840E+02  0.21370975857E+02  0.36241606324E+02  0.43400730671E+02  0.00000000000E+00 0.  1.
         11    1    3    3    0    0 -0.40293677411E+01 -0.22470203080E+01 -0.33455441678E+01  0.56989096060E+01  0.51100000000E-03 0. -1.
        -11    1    3    3    0    0 -0.11605470469E+01 -0.27065276158E+01 -0.15756830439E+01  0.33399009714E+01  0.51100000000E-03 0.  1.
         12    1    3    3    0    0  0.15841242628E+02 -0.16417427933E+02 -0.31320379112E+02  0.38748458752E+02  0.00000000000E+00 0. -1.
</event>
<event>
 7    1  0.2598019E-009  0.4778727E+02  0.7816164E-02  0.1312668E+00
        -11   -1    0    0    0    0  0.00000000000E+00  0.00000000000E+00  0.45593999997E+02  0.45594000000E+02  0.51100000000E-03 0.  1.
         11   -1    0    0    0    0 -0.00000000000E+00 -0.00000000000E+00 -0.45593999997E+02  0.45594000000E+02  0.51100000000E-03 0. -1.
    9900012    2    1    2    0    0  0.10237828064E+02  0.29277669211E+02 -0.30358328150E+02  0.47787272748E+02  0.20000007769E+02 0.  0.
        -12    1    1    2    0    0 -0.10237828064E+02 -0.29277669211E+02  0.30358328150E+02  0.43400727252E+02  0.00000000000E+00 0.  1.
         11    1    3    3    0    0 -0.11568150165E+01  0.78203806704E+01 -0.10224039909E+02  0.12923914543E+02  0.51100000000E-03 0. -1.
        -11    1    3    3    0    0  0.13018374758E+02  0.13203348489E+02 -0.18691692968E+02  0.26328423405E+02  0.51100000000E-03 0.  1.
        -12    1    3    3    0    0 -0.16237316776E+01  0.82539400508E+01 -0.14425952736E+01  0.85349348004E+01  0.00000000000E+00 0.  1.
</event>
<event>
 7    1  0.2598019E-009  0.4778726E+02  0.7816164E-02  0.1312668E+00
        -11   -1    0    0    0    0  0.00000000000E+00  0.00000000000E+00  0.45593999997E+02  0.45594000000E+02  0.51100000000E-03 0.  1.
         11   -1    0    0    0    0 -0.00000000000E+00 -0.00000000000E+00 -0.45593999997E+02  0.45594000000E+02  0.51100000000E-03 0. -1.
    9900012    2    1    2    0    0  0.29725169961E+01  0.12845943736E+02 -0.41349366802E+02  0.47787259653E+02  0.19999948061E+02 0.  0.
        -12    1    1    2    0    0 -0.29725169961E+01 -0.12845943736E+02  0.41349366802E+02  0.43400740347E+02  0.00000000000E+00 0.  1.
         11    1    3    3    0    0  0.98403982896E+01  0.10777621659E+02 -0.28641745475E+02  0.32145608584E+02  0.51100000000E-03 0.  1.
        -11    1    3    3    0    0 -0.77009804480E+01  0.11275159003E+01 -0.10136554183E+02  0.12779910913E+02  0.51100000000E-03 0. -1.
         12    1    3    3    0    0  0.83309915459E+00  0.94080617613E+00 -0.25710671433E+01  0.28617401555E+01  0.00000000000E+00 0. -1.
</event>
<event>
 7    1  0.2598019E-009  0.4778727E+02  0.7816164E-02  0.1312668E+00
        -11   -1    0    0    0    0  0.00000000000E+00  0.00000000000E+00  0.45593999997E+02  0.45594000000E+02  0.51100000000E-03 0.  1.
         11   -1    0    0    0    0 -0.00000000000E+00 -0.00000000000E+00 -0.45593999997E+02  0.45594000000E+02  0.51100000000E-03 0. -1.
    9900012    2    1    2    0    0  0.24677276058E+02  0.97836690340E+01 -0.34335631566E+02  0.47787265807E+02  0.19999976122E+02 0.  0.
        -12    1    1    2    0    0 -0.24677276058E+02 -0.97836690340E+01  0.34335631566E+02  0.43400734193E+02  0.00000000000E+00 0.  1.
         11    1    3    3    0    0  0.98631988164E+01 -0.41034605073E+01 -0.12201962464E+02  0.16217551210E+02  0.51100000000E-03 0. -1.
        -11    1    3    3    0    0  0.15774739168E+02  0.13631010618E+02 -0.18737699137E+02  0.28031200750E+02  0.51100000000E-03 0.  1.
        -12    1    3    3    0    0 -0.96066192608E+00  0.25611892338E+00 -0.33959699660E+01  0.35385138475E+01  0.00000000000E+00 0.  1.
</event>
<event>
 7    1  0.2598019E-009  0.4778727E+02  0.7816164E-02  0.1312668E+00
        -11   -1    0    0    0    0  0.00000000000E+00  0.00000000000E+00  0.45593999997E+02  0.45594000000E+02  0.51100000000E-03 0. -1.
         11   -1    0    0    0    0 -0.00000000000E+00 -0.00000000000E+00 -0.45593999997E+02  0.45594000000E+02  0.51100000000E-03 0.  1.
    9900012    2    1    2    0    0  0.33170227170E+02  0.90174063228E+01  0.26496147518E+02  0.47787269355E+02  0.19999992295E+02 0.  0.
        -12    1    1    2    0    0 -0.33170227170E+02 -0.90174063228E+01 -0.26496147518E+02  0.43400730645E+02  0.00000000000E+00 0.  1.
         11    1    3    3    0    0  0.19776972852E+02  0.13541810979E+02  0.14268658147E+02  0.27894513894E+02  0.51100000000E-03 0. -1.
        -11    1    3    3    0    0  0.79512417276E+01 -0.59879337705E+01  0.66971689691E+01  0.11997069155E+02  0.51100000000E-03 0.  1.
        -12    1    3    3    0    0  0.54420125900E+01  0.14635291141E+01  0.55303204014E+01  0.78956863058E+01  0.00000000000E+00 0.  1.
</event>
<event>
 7    1  0.2598019E-009  0.4778727E+02  0.7816164E-02  0.1312668E+00
        -11   -1    0    0    0    0  0.00000000000E+00  0.00000000000E+00  0.45593999997E+02  0.45594000000E+02  0.51100000000E-03 0.  1.
         11   -1    0    0    0    0 -0.00000000000E+00 -0.00000000000E+00 -0.45593999997E+02  0.45594000000E+02  0.51100000000E-03 0. -1.
    9900012    2    1    2    0    0 -0.16998504601E+02 -0.30128818241E+02 -0.26209316870E+02  0.47787272609E+02  0.20000007131E+02 0.  0.
        -12    1    1    2    0    0  0.16998504601E+02  0.30128818241E+02  0.26209316870E+02  0.43400727391E+02  0.00000000000E+00 0.  1.
         11    1    3    3    0    0 -0.73067610164E+01 -0.11421926537E+02 -0.52051223143E+01  0.14523858335E+02  0.51100000000E-03 0. -1.
        -11    1    3    3    0    0  0.14141967452E+01 -0.10524881544E+02 -0.14603139432E+02  0.18056155889E+02  0.51100000000E-03 0.  1.
        -12    1    3    3    0    0 -0.11105940330E+02 -0.81820101594E+01 -0.64010551244E+01  0.15207258384E+02  0.00000000000E+00 0.  1.
</event>
<event>
 7    1  0.2598019E-009  0.4778727E+02  0.7816164E-02  0.1312668E+00
        -11   -1    0    0    0    0  0.00000000000E+00  0.00000000000E+00  0.45593999997E+02  0.45594000000E+02  0.51100000000E-03 0.  1.
         11   -1    0    0    0    0 -0.00000000000E+00 -0.00000000000E+00 -0.45593999997E+02  0.45594000000E+02  0.51100000000E-03 0. -1.
    9900012    2    1    2    0    0  0.77626631637E+01 -0.28627226564E+02 -0.31683530099E+02  0.47787272821E+02  0.20000008099E+02 0.  0.
        -12    1    1    2    0    0 -0.77626631637E+01  0.28627226564E+02  0.31683530099E+02  0.43400727179E+02  0.00000000000E+00 0.  1.
         11    1    3    3    0    0  0.21363097342E+01 -0.56957734177E+01 -0.66813485103E+01  0.90358216164E+01  0.51100000000E-03 0. -1.
        -11    1    3    3    0    0  0.83971832249E+01 -0.10631528239E+02 -0.37778323555E+01  0.14064639931E+02  0.51100000000E-03 0.  1.
        -12    1    3    3    0    0 -0.27708297953E+01 -0.12299924907E+02 -0.21224349234E+02  0.24686811274E+02  0.00000000000E+00 0.  1.
</event>
<event>
 7    1  0.2598019E-009  0.4778727E+02  0.7816164E-02  0.1312668E+00
        -11   -1    0    0    0    0  0.00000000000E+00  0.00000000000E+00  0.45593999997E+02  0.45594000000E+02  0.51100000000E-03 0.  1.
         11   -1    0    0    0    0 -0.00000000000E+00 -0.00000000000E+00 -0.45593999997E+02  0.45594000000E+02  0.51100000000E-03 0. -1.
    9900012    2    1    2    0    0  0.43385495833E+02  0.10450611777E+01 -0.47932683228E+00  0.47787272405E+02  0.20000006203E+02 0.  0.
        -12    1    1    2    0    0 -0.43385495833E+02 -0.10450611777E+01  0.47932683228E+00  0.43400727595E+02  0.00000000000E+00 0.  1.
         11    1    3    3    0    0  0.18632318576E+02  0.88373601558E+01 -0.14376203660E+01  0.20671937080E+02  0.51100000000E-03 0. -1.
        -11    1    3    3    0    0  0.25283292059E+02 -0.79685309665E+01  0.75240957625E+00  0.26519963491E+02  0.51100000000E-03 0.  1.
        -12    1    3    3    0    0 -0.53011480218E+00  0.17623198851E+00  0.20588395746E+00  0.59537183441E+00  0.00000000000E+00 0.  1.
</event>
<event>
 7    1  0.2598019E-009  0.4778727E+02  0.7816164E-02  0.1312668E+00
        -11   -1    0    0    0    0  0.00000000000E+00  0.00000000000E+00  0.45593999997E+02  0.45594000000E+02  0.51100000000E-03 0.  1.
         11   -1    0    0    0    0 -0.00000000000E+00 -0.00000000000E+00 -0.45593999997E+02  0.45594000000E+02  0.51100000000E-03 0. -1.
    9900012    2    1    2    0    0  0.13390841351E+02  0.39337827319E+02  0.12523736731E+02  0.47787271066E+02  0.20000000099E+02 0.  0.
        -12    1    1    2    0    0 -0.13390841351E+02 -0.39337827319E+02 -0.12523736731E+02  0.43400728934E+02  0.00000000000E+00 0.  1.
         11    1    3    3    0    0  0.69581645346E+01  0.14193875593E+02  0.62489884304E+01  0.16998000315E+02  0.51100000000E-03 0. -1.
        -11    1    3    3    0    0  0.85485794784E+01  0.20426229837E+02 -0.64361426952E+00  0.22152275640E+02  0.51100000000E-03 0.  1.
        -12    1    3    3    0    0 -0.21159026620E+01  0.47177218891E+01  0.69183625698E+01  0.86369951109E+01  0.00000000000E+00 0.  1.
</event>
<event>
 7    1  0.2598019E-009  0.4778728E+02  0.7816164E-02  0.1312668E+00
        -11   -1    0    0    0    0  0.00000000000E+00  0.00000000000E+00  0.45593999997E+02  0.45594000000E+02  0.51100000000E-03 0.  1.
         11   -1    0    0    0    0 -0.00000000000E+00 -0.00000000000E+00 -0.45593999997E+02  0.45594000000E+02  0.51100000000E-03 0. -1.
    9900012    2    1    2    0    0  0.40204111582E+02  0.16347589640E+02 -0.91915159643E-01  0.47787277384E+02  0.20000028905E+02 0.  0.
        -12    1    1    2    0    0 -0.40204111582E+02 -0.16347589640E+02  0.91915159643E-01  0.43400722616E+02  0.00000000000E+00 0.  1.
         11    1    3    3    0    0  0.32663192811E+02  0.19893139608E+02  0.47740761421E+00  0.38247210178E+02  0.51100000000E-03 0. -1.
        -11    1    3    3    0    0  0.28654085036E+01 -0.25349984478E+01  0.17697738071E+01  0.42153152447E+01  0.51100000000E-03 0.  1.
         12    1    3    3    0    0  0.46755102676E+01 -0.10105515200E+01 -0.23390965809E+01  0.53247519616E+01  0.00000000000E+00 0. -1.
</event>
<event>
 7    1  0.2598019E-009  0.4778727E+02  0.7816164E-02  0.1312668E+00
        -11   -1    0    0    0    0  0.00000000000E+00  0.00000000000E+00  0.45593999997E+02  0.45594000000E+02  0.51100000000E-03 0.  1.
         11   -1    0    0    0    0 -0.00000000000E+00 -0.00000000000E+00 -0.45593999997E+02  0.45594000000E+02  0.51100000000E-03 0. -1.
    9900012    2    1    2    0    0 -0.29290390084E+02  0.36544769117E+01 -0.31817307301E+02  0.47787271934E+02  0.20000004058E+02 0.  0.
        -12    1    1    2    0    0  0.29290390084E+02 -0.36544769117E+01  0.31817307301E+02  0.43400728066E+02  0.00000000000E+00 0.  1.
         11    1    3    3    0    0 -0.40622804087E+01 -0.21776279790E+01 -0.13281372662E+02  0.14058415479E+02  0.51100000000E-03 0.  1.
        -11    1    3    3    0    0 -0.16172001605E+02  0.90827231528E+01 -0.11795937983E+02  0.21981211271E+02  0.51100000000E-03 0. -1.
         12    1    3    3    0    0 -0.90561080699E+01 -0.32506182621E+01 -0.67399966561E+01  0.11747645185E+02  0.00000000000E+00 0. -1.
</event>
<event>
 7    1  0.2598019E-009  0.4778727E+02  0.7816164E-02  0.1312668E+00
        -11   -1    0    0    0    0  0.00000000000E+00  0.00000000000E+00  0.45593999997E+02  0.45594000000E+02  0.51100000000E-03 0.  1.
         11   -1    0    0    0    0 -0.00000000000E+00 -0.00000000000E+00 -0.45593999997E+02  0.45594000000E+02  0.51100000000E-03 0. -1.
    9900012    2    1    2    0    0  0.11637515005E+02 -0.90870205441E+01 -0.40811977640E+02  0.47787271703E+02  0.20000003000E+02 0.  0.
        -12    1    1    2    0    0 -0.11637515005E+02  0.90870205441E+01  0.40811977640E+02  0.43400728297E+02  0.00000000000E+00 0.  1.
         11    1    3    3    0    0  0.12217264046E+02  0.12855385740E+00 -0.15686972660E+02  0.19883640974E+02  0.51100000000E-03 0. -1.
        -11    1    3    3    0    0 -0.40526115120E+01 -0.54010206325E+01 -0.11515061669E+02  0.13348832512E+02  0.51100000000E-03 0.  1.
        -12    1    3    3    0    0  0.34728624706E+01 -0.38145537690E+01 -0.13609943311E+02  0.14554798217E+02  0.00000000000E+00 0.  1.
</event>
<event>
 7    1  0.2598019E-009  0.4778727E+02  0.7816164E-02  0.1312668E+00
        -11   -1    0    0    0    0  0.00000000000E+00  0.00000000000E+00  0.45593999997E+02  0.45594000000E+02  0.51100000000E-03 0.  1.
         11   -1    0    0    0    0 -0.00000000000E+00 -0.00000000000E+00 -0.45593999997E+02  0.45594000000E+02  0.51100000000E-03 0. -1.
    9900012    2    1    2    0    0 -0.30303471617E+02 -0.16089921140E+02  0.26578888658E+02  0.47787271013E+02  0.19999999855E+02 0.  0.
        -12    1    1    2    0    0  0.30303471617E+02  0.16089921140E+02 -0.26578888658E+02  0.43400728987E+02  0.00000000000E+00 0.  1.
         11    1    3    3    0    0 -0.18162070869E+02 -0.96312073379E+01  0.60070826490E+01  0.21417423170E+02  0.51100000000E-03 0. -1.
        -11    1    3    3    0    0 -0.23188386087E+01 -0.56240715942E+01  0.11316707463E+02  0.12848154025E+02  0.51100000000E-03 0.  1.
         12    1    3    3    0    0 -0.98225621394E+01 -0.83464220790E+00  0.92550985462E+01  0.13521693818E+02  0.00000000000E+00 0. -1.
</event>
<event>
 7    1  0.2598019E-009  0.4778726E+02  0.7816164E-02  0.1312668E+00
        -11   -1    0    0    0    0  0.00000000000E+00  0.00000000000E+00  0.45593999997E+02  0.45594000000E+02  0.51100000000E-03 0.  1.
         11   -1    0    0    0    0 -0.00000000000E+00 -0.00000000000E+00 -0.45593999997E+02  0.45594000000E+02  0.51100000000E-03 0. -1.
    9900012    2    1    2    0    0 -0.19410836252E+02 -0.30583420314E+02 -0.23906021118E+02  0.47787262590E+02  0.19999961451E+02 0.  0.
        -12    1    1    2    0    0  0.19410836252E+02  0.30583420314E+02  0.23906021118E+02  0.43400737410E+02  0.00000000000E+00 0.  1.
         11    1    3    3    0    0 -0.92072931001E+01 -0.13574290492E+02 -0.23428040208E+01  0.16568776042E+02  0.51100000000E-03 0. -1.
        -11    1    3    3    0    0 -0.10173069891E+02 -0.12766024541E+02 -0.21474461188E+02  0.26974343683E+02  0.51100000000E-03 0.  1.
        -12    1    3    3    0    0 -0.30473261137E-01 -0.42431052804E+01 -0.88755909797E-01  0.42441428642E+01  0.00000000000E+00 0.  1.
</event>
<event>
 7    1  0.2598019E-009  0.4778727E+02  0.7816164E-02  0.1312668E+00
        -11   -1    0    0    0    0  0.00000000000E+00  0.00000000000E+00  0.45593999997E+02  0.45594000000E+02  0.51100000000E-03 0.  1.
         11   -1    0    0    0    0 -0.00000000000E+00 -0.00000000000E+00 -0.45593999997E+02  0.45594000000E+02  0.51100000000E-03 0. -1.
    9900012    2    1    2    0    0  0.33870850404E+01  0.28438754804E+02 -0.32609633296E+02  0.47787270703E+02  0.19999998442E+02 0.  0.
        -12    1    1    2    0    0 -0.33870850404E+01 -0.28438754804E+02  0.32609633296E+02  0.43400729297E+02  0.00000000000E+00 0.  1.
         11    1    3    3    0    0 -0.16761514298E+01  0.13772980228E+01 -0.13804853287E+02  0.13974276654E+02  0.51100000000E-03 0. -1.
        -11    1    3    3    0    0  0.44980176038E+01  0.11801371413E+02 -0.65129402054E+01  0.14209958479E+02  0.51100000000E-03 0.  1.
         12    1    3    3    0    0  0.56521886646E+00  0.15260085368E+02 -0.12291839803E+02  0.19603035570E+02  0.00000000000E+00 0. -1.
</event>
<event>
 7    1  0.2598019E-009  0.4778727E+02  0.7816164E-02  0.1312668E+00
        -11   -1    0    0    0    0  0.00000000000E+00  0.00000000000E+00  0.45593999997E+02  0.45594000000E+02  0.51100000000E-03 0.  1.
         11   -1    0    0    0    0 -0.00000000000E+00 -0.00000000000E+00 -0.45593999997E+02  0.45594000000E+02  0.51100000000E-03 0. -1.
    9900012    2    1    2    0    0  0.21785685557E+02 -0.34107746418E+01 -0.37381462805E+02  0.47787271432E+02  0.20000001765E+02 0.  0.
        -12    1    1    2    0    0 -0.21785685557E+02  0.34107746418E+01  0.37381462805E+02  0.43400728568E+02  0.00000000000E+00 0.  1.
         11    1    3    3    0    0  0.64583428244E+01  0.70031411744E+01 -0.11051934413E+02  0.14591073740E+02  0.51100000000E-03 0. -1.
        -11    1    3    3    0    0  0.15494840941E+01 -0.51188221459E+01 -0.85914069657E+01  0.10120055090E+02  0.51100000000E-03 0.  1.
         12    1    3    3    0    0  0.13777858639E+02 -0.52950936703E+01 -0.17738121426E+02  0.23076142601E+02  0.00000000000E+00 0. -1.
</event>
<event>
 7    1  0.2598019E-009  0.4778727E+02  0.7816164E-02  0.1312668E+00
        -11   -1    0    0    0    0  0.00000000000E+00  0.00000000000E+00  0.45593999997E+02  0.45594000000E+02  0.51100000000E-03 0.  1.
         11   -1    0    0    0    0 -0.00000000000E+00 -0.00000000000E+00 -0.45593999997E+02  0.45594000000E+02  0.51100000000E-03 0. -1.
    9900012    2    1    2    0    0 -0.38663123888E+02  0.18669570199E+02 -0.63429706807E+01  0.47787271006E+02  0.19999999823E+02 0.  0.
        -12    1    1    2    0    0  0.38663123888E+02 -0.18669570199E+02  0.63429706807E+01  0.43400728994E+02  0.00000000000E+00 0.  1.
         11    1    3    3    0    0 -0.11519087937E+02 -0.38695761567E+00 -0.54611374076E+01  0.12753946258E+02  0.51100000000E-03 0. -1.
        -11    1    3    3    0    0 -0.19916186667E+02  0.18830949214E+02  0.14159894652E+01  0.27445658419E+02  0.51100000000E-03 0.  1.
        -12    1    3    3    0    0 -0.72278492840E+01  0.22557860045E+00 -0.22978227384E+01  0.75876663286E+01  0.00000000000E+00 0.  1.
</event>
<event>
 7    1  0.2598019E-009  0.4778727E+02  0.7816164E-02  0.1312668E+00
        -11   -1    0    0    0    0  0.00000000000E+00  0.00000000000E+00  0.45593999997E+02  0.45594000000E+02  0.51100000000E-03 0.  1.
         11   -1    0    0    0    0 -0.00000000000E+00 -0.00000000000E+00 -0.45593999997E+02  0.45594000000E+02  0.51100000000E-03 0. -1.
    9900012    2    1    2    0    0 -0.10620709325E+02 -0.38822932607E+02 -0.16235877899E+02  0.47787270813E+02  0.19999998946E+02 0.  0.
        -12    1    1    2    0    0  0.10620709325E+02  0.38822932607E+02  0.16235877899E+02  0.43400729187E+02  0.00000000000E+00 0.  1.
         11    1    3    3    0    0 -0.84009107122E+00 -0.18135257601E+02 -0.18045245581E+01  0.18244167024E+02  0.51100000000E-03 0. -1.
        -11    1    3    3    0    0 -0.78369624948E+01 -0.14006368769E+02 -0.15720733522E+02  0.22466370645E+02  0.51100000000E-03 0.  1.
        -12    1    3    3    0    0 -0.19436557592E+01 -0.66813062371E+01  0.12893801806E+01  0.70767331442E+01  0.00000000000E+00 0.  1.
</event>
<event>
 7    1  0.2598019E-009  0.4778727E+02  0.7816164E-02  0.1312668E+00
        -11   -1    0    0    0    0  0.00000000000E+00  0.00000000000E+00  0.45593999997E+02  0.45594000000E+02  0.51100000000E-03 0.  1.
         11   -1    0    0    0    0 -0.00000000000E+00 -0.00000000000E+00 -0.45593999997E+02  0.45594000000E+02  0.51100000000E-03 0. -1.
    9900012    2    1    2    0    0  0.19399677629E+02 -0.32294697985E+02 -0.21548280947E+02  0.47787269340E+02  0.19999992230E+02 0.  0.
        -12    1    1    2    0    0 -0.19399677629E+02  0.32294697985E+02  0.21548280947E+02  0.43400730660E+02  0.00000000000E+00 0.  1.
         11    1    3    3    0    0 -0.80968606287E+00  0.12927105099E+01 -0.18877887668E+01  0.24270225941E+01  0.51100000000E-03 0.  1.
        -11    1    3    3    0    0  0.16036507672E+02 -0.32123047569E+02 -0.19668552148E+02  0.40937900622E+02  0.51100000000E-03 0. -1.
         12    1    3    3    0    0  0.41728560197E+01 -0.14643609250E+01  0.80599679808E-02  0.44223461243E+01  0.00000000000E+00 0. -1.
</event>
<event>
 7    1  0.2598019E-009  0.4778728E+02  0.7816164E-02  0.1312668E+00
        -11   -1    0    0    0    0  0.00000000000E+00  0.00000000000E+00  0.45593999997E+02  0.45594000000E+02  0.51100000000E-03 0. -1.
         11   -1    0    0    0    0 -0.00000000000E+00 -0.00000000000E+00 -0.45593999997E+02  0.45594000000E+02  0.51100000000E-03 0.  1.
    9900012    2    1    2    0    0  0.14742587576E+02  0.40818354121E+02 -0.37457408094E+00  0.47787283101E+02  0.20000054971E+02 0.  0.
        -12    1    1    2    0    0 -0.14742587576E+02 -0.40818354121E+02  0.37457408094E+00  0.43400716899E+02  0.00000000000E+00 0.  1.
         11    1    3    3    0    0  0.12122043895E+02  0.20237012157E+02 -0.12417339605E+01  0.23622500137E+02  0.51100000000E-03 0. -1.
        -11    1    3    3    0    0  0.69007007739E+01  0.17437288905E+02  0.15169807697E+01  0.18814354797E+02  0.51100000000E-03 0.  1.
        -12    1    3    3    0    0 -0.42801570925E+01  0.31440530589E+01 -0.64982089015E+00  0.53504281663E+01  0.00000000000E+00 0.  1.
</event>
<event>
 7    1  0.2598019E-009  0.4778727E+02  0.7816164E-02  0.1312668E+00
        -11   -1    0    0    0    0  0.00000000000E+00  0.00000000000E+00  0.45593999997E+02  0.45594000000E+02  0.51100000000E-03 0.  1.
         11   -1    0    0    0    0 -0.00000000000E+00 -0.00000000000E+00 -0.45593999997E+02  0.45594000000E+02  0.51100000000E-03 0. -1.
    9900012    2    1    2    0    0 -0.10938085612E+01  0.20035080277E+02 -0.38484055863E+02  0.47787269424E+02  0.19999992611E+02 0.  0.
        -12    1    1    2    0    0  0.10938085612E+01 -0.20035080277E+02  0.38484055863E+02  0.43400730576E+02  0.00000000000E+00 0.  1.
         11    1    3    3    0    0 -0.32732661942E+01  0.21645810598E+02 -0.34339853411E+02  0.40724451140E+02  0.51100000000E-03 0. -1.
        -11    1    3    3    0    0 -0.69973137894E+00 -0.22014571364E+01 -0.32563627057E+01  0.39924849227E+01  0.51100000000E-03 0.  1.
         12    1    3    3    0    0  0.28791890119E+01  0.59072681463E+00 -0.88783974624E+00  0.30703333615E+01  0.00000000000E+00 0. -1.
</event>
<event>
 7    1  0.2598019E-009  0.4778727E+02  0.7816164E-02  0.1312668E+00
        -11   -1    0    0    0    0  0.00000000000E+00  0.00000000000E+00  0.45593999997E+02  0.45594000000E+02  0.51100000000E-03 0.  1.
         11   -1    0    0    0    0 -0.00000000000E+00 -0.00000000000E+00 -0.45593999997E+02  0.45594000000E+02  0.51100000000E-03 0. -1.
    9900012    2    1    2    0    0  0.84970468612E+01 -0.19767670113E+02 -0.37691678217E+02  0.47787271966E+02  0.20000004200E+02 0.  0.
        -12    1    1    2    0    0 -0.84970468612E+01  0.19767670113E+02  0.37691678217E+02  0.43400728034E+02  0.00000000000E+00 0.  1.
         11    1    3    3    0    0  0.16269076226E+01 -0.10396144863E+02 -0.23008861196E+02  0.25300876471E+02  0.51100000000E-03 0. -1.
        -11    1    3    3    0    0  0.76210894608E+01 -0.96800052588E+01 -0.58889863244E+01  0.13655169958E+02  0.51100000000E-03 0.  1.
        -12    1    3    3    0    0 -0.75095022222E+00  0.30848000796E+00 -0.87938306970E+01  0.88312255367E+01  0.00000000000E+00 0.  1.
</event>
<event>
 7    1  0.2598019E-009  0.4778726E+02  0.7816164E-02  0.1312668E+00
        -11   -1    0    0    0    0  0.00000000000E+00  0.00000000000E+00  0.45593999997E+02  0.45594000000E+02  0.51100000000E-03 0.  1.
         11   -1    0    0    0    0 -0.00000000000E+00 -0.00000000000E+00 -0.45593999997E+02  0.45594000000E+02  0.51100000000E-03 0. -1.
    9900012    2    1    2    0    0 -0.75717955195E+01 -0.10380937850E+02 -0.41455132920E+02  0.47787262640E+02  0.19999961679E+02 0.  0.
        -12    1    1    2    0    0  0.75717955195E+01  0.10380937850E+02  0.41455132920E+02  0.43400737360E+02  0.00000000000E+00 0.  1.
         11    1    3    3    0    0 -0.13520318539E+02 -0.93574448895E+01 -0.33861724316E+02  0.37642757101E+02  0.51100000000E-03 0. -1.
        -11    1    3    3    0    0  0.26656550128E+01 -0.39614554632E+00 -0.12419594392E+01  0.29673408046E+01  0.51100000000E-03 0.  1.
         12    1    3    3    0    0  0.32828680069E+01 -0.62734741426E+00 -0.63514491642E+01  0.71771647337E+01  0.00000000000E+00 0. -1.
</event>
<event>
 7    1  0.2598019E-009  0.4778727E+02  0.7816164E-02  0.1312668E+00
        -11   -1    0    0    0    0  0.00000000000E+00  0.00000000000E+00  0.45593999997E+02  0.45594000000E+02  0.51100000000E-03 0. -1.
         11   -1    0    0    0    0 -0.00000000000E+00 -0.00000000000E+00 -0.45593999997E+02  0.45594000000E+02  0.51100000000E-03 0.  1.
    9900012    2    1    2    0    0  0.28798834450E+02 -0.26329009127E+02  0.19000895685E+02  0.47787267009E+02  0.19999981603E+02 0.  0.
        -12    1    1    2    0    0 -0.28798834450E+02  0.26329009127E+02 -0.19000895685E+02  0.43400732991E+02  0.00000000000E+00 0.  1.
         11    1    3    3    0    0  0.75291697777E+01 -0.17210811559E+02  0.23854080491E+01  0.18936488689E+02  0.51100000000E-03 0. -1.
        -11    1    3    3    0    0  0.17215685988E+02 -0.78621030117E+01  0.11277556730E+02  0.22031245853E+02  0.51100000000E-03 0.  1.
         12    1    3    3    0    0  0.40539786850E+01 -0.12560945561E+01  0.53379309060E+01  0.68195324670E+01  0.00000000000E+00 0. -1.
</event>
<event>
 7    1  0.2598019E-009  0.4778727E+02  0.7816164E-02  0.1312668E+00
        -11   -1    0    0    0    0  0.00000000000E+00  0.00000000000E+00  0.45593999997E+02  0.45594000000E+02  0.51100000000E-03 0.  1.
         11   -1    0    0    0    0 -0.00000000000E+00 -0.00000000000E+00 -0.45593999997E+02  0.45594000000E+02  0.51100000000E-03 0. -1.
    9900012    2    1    2    0    0 -0.14024021634E+02 -0.64452675310E+01 -0.40563639698E+02  0.47787268187E+02  0.19999986974E+02 0.  0.
        -12    1    1    2    0    0  0.14024021634E+02  0.64452675310E+01  0.40563639698E+02  0.43400731813E+02  0.00000000000E+00 0.  1.
         11    1    3    3    0    0 -0.71875254053E+01 -0.54708671785E+01 -0.12732821900E+02  0.15611395292E+02  0.51100000000E-03 0. -1.
        -11    1    3    3    0    0 -0.38640317103E+01  0.59541597289E+01 -0.20360856984E+02  0.21562635658E+02  0.51100000000E-03 0.  1.
        -12    1    3    3    0    0 -0.29724645187E+01 -0.69285600815E+01 -0.74699608134E+01  0.10613237238E+02  0.00000000000E+00 0.  1.
</event>
<event>
 7    1  0.2598019E-009  0.4778727E+02  0.7816164E-02  0.1312668E+00
        -11   -1    0    0    0    0  0.00000000000E+00  0.00000000000E+00  0.45593999997E+02  0.45594000000E+02  0.51100000000E-03 0.  1.
         11   -1    0    0    0    0 -0.00000000000E+00 -0.00000000000E+00 -0.45593999997E+02  0.45594000000E+02  0.51100000000E-03 0. -1.
    9900012    2    1    2    0    0  0.86378846889E-01  0.39877452160E+02 -0.17129062217E+02  0.47787269310E+02  0.19999992090E+02 0.  0.
        -12    1    1    2    0    0 -0.86378846889E-01 -0.39877452160E+02  0.17129062217E+02  0.43400730690E+02  0.00000000000E+00 0.  1.
         11    1    3    3    0    0 -0.26847572172E+01  0.21262919288E+02 -0.93805169398E+01  0.23394737791E+02  0.51100000000E-03 0. -1.
        -11    1    3    3    0    0  0.65817404751E+01  0.87930983685E+01  0.52681719682E+00  0.10996154929E+02  0.51100000000E-03 0.  1.
        -12    1    3    3    0    0 -0.38106044110E+01  0.98214345029E+01 -0.82753624736E+01  0.13396376590E+02  0.00000000000E+00 0.  1.
</event>
<event>
 7    1  0.2598019E-009  0.4778727E+02  0.7816164E-02  0.1312668E+00
        -11   -1    0    0    0    0  0.00000000000E+00  0.00000000000E+00  0.45593999997E+02  0.45594000000E+02  0.51100000000E-03 0.  1.
         11   -1    0    0    0    0 -0.00000000000E+00 -0.00000000000E+00 -0.45593999997E+02  0.45594000000E+02  0.51100000000E-03 0. -1.
    9900012    2    1    2    0    0 -0.26279395882E+02  0.32877001207E+02 -0.10588641946E+02  0.47787271958E+02  0.20000004166E+02 0.  0.
        -12    1    1    2    0    0  0.26279395882E+02 -0.32877001207E+02  0.10588641946E+02  0.43400728042E+02  0.00000000000E+00 0.  1.
         11    1    3    3    0    0 -0.84479078693E+01  0.10517858229E+02 -0.31055312724E+01  0.13843294906E+02  0.51100000000E-03 0. -1.
        -11    1    3    3    0    0 -0.58655938852E+01  0.17628097954E+02  0.87756918110E+00  0.18599063337E+02  0.51100000000E-03 0.  1.
        -12    1    3    3    0    0 -0.11965894128E+02  0.47310450238E+01 -0.83606798547E+01  0.15344913715E+02  0.00000000000E+00 0.  1.
</event>
<event>
 7    1  0.2598019E-009  0.4778730E+02  0.7816164E-02  0.1312668E+00
        -11   -1    0    0    0    0  0.00000000000E+00  0.00000000000E+00  0.45593999997E+02  0.45594000000E+02  0.51100000000E-03 0.  1.
         11   -1    0    0    0    0 -0.00000000000E+00 -0.00000000000E+00 -0.45593999997E+02  0.45594000000E+02  0.51100000000E-03 0. -1.
    9900012    2    1    2    0    0 -0.52388357968E+01  0.34607073473E+01 -0.42944136881E+02  0.47787299680E+02  0.20000130560E+02 0.  0.
        -12    1    1    2    0    0  0.52388357968E+01 -0.34607073473E+01  0.42944136881E+02  0.43400700320E+02  0.00000000000E+00 0.  1.
         11    1    3    3    0    0 -0.23025346371E+00  0.71758633423E+00 -0.13952662444E+02  0.13973000263E+02  0.51100000000E-03 0. -1.
        -11    1    3    3    0    0 -0.29791969857E+01 -0.62288208376E+01 -0.19085547552E+02  0.20296106753E+02  0.51100000000E-03 0.  1.
        -12    1    3    3    0    0 -0.20293853474E+01  0.89719418507E+01 -0.99059268840E+01  0.13518192664E+02  0.00000000000E+00 0.  1.
</event>
<event>
 7    1  0.2598019E-009  0.4778727E+02  0.7816164E-02  0.1312668E+00
        -11   -1    0    0    0    0  0.00000000000E+00  0.00000000000E+00  0.45593999997E+02  0.45594000000E+02  0.51100000000E-03 0.  1.
         11   -1    0    0    0    0 -0.00000000000E+00 -0.00000000000E+00 -0.45593999997E+02  0.45594000000E+02  0.51100000000E-03 0. -1.
    9900012    2    1    2    0    0 -0.31720370141E+02 -0.25151470557E+02 -0.15647520722E+02  0.47787271230E+02  0.20000000845E+02 0.  0.
        -12    1    1    2    0    0  0.31720370141E+02  0.25151470557E+02  0.15647520722E+02  0.43400728770E+02  0.00000000000E+00 0.  1.
         11    1    3    3    0    0 -0.10108467211E+02  0.10005131164E+01 -0.62521685973E+01  0.11927772142E+02  0.51100000000E-03 0. -1.
        -11    1    3    3    0    0 -0.83688412078E+01 -0.14064657884E+02 -0.20925909320E+01  0.16499425494E+02  0.51100000000E-03 0.  1.
         12    1    3    3    0    0 -0.13243061722E+02 -0.12087325789E+02 -0.73027611930E+01  0.19360073593E+02  0.00000000000E+00 0. -1.
</event>
<event>
 7    1  0.2598019E-009  0.4778727E+02  0.7816164E-02  0.1312668E+00
        -11   -1    0    0    0    0  0.00000000000E+00  0.00000000000E+00  0.45593999997E+02  0.45594000000E+02  0.51100000000E-03 0. -1.
         11   -1    0    0    0    0 -0.00000000000E+00 -0.00000000000E+00 -0.45593999997E+02  0.45594000000E+02  0.51100000000E-03 0.  1.
    9900012    2    1    2    0    0 -0.37326500824E+02  0.39717332180E+01  0.21784883284E+02  0.47787268805E+02  0.19999989791E+02 0.  0.
        -12    1    1    2    0    0  0.37326500824E+02 -0.39717332180E+01 -0.21784883284E+02  0.43400731195E+02  0.00000000000E+00 0.  1.
         11    1    3    3    0    0 -0.59245181999E+00  0.13135903129E+01 -0.25291024097E+01  0.29108208342E+01  0.51100000000E-03 0.  1.
        -11    1    3    3    0    0 -0.36994975366E+02  0.21736255428E+01  0.24319767303E+02  0.44326108923E+02  0.51100000000E-03 0. -1.
         12    1    3    3    0    0  0.26092636198E+00  0.48451736225E+00 -0.57816093413E-02  0.55033904795E+00  0.00000000000E+00 0. -1.
</event>
<event>
 7    1  0.2598019E-009  0.4778727E+02  0.7816164E-02  0.1312668E+00
        -11   -1    0    0    0    0  0.00000000000E+00  0.00000000000E+00  0.45593999997E+02  0.45594000000E+02  0.51100000000E-03 0. -1.
         11   -1    0    0    0    0 -0.00000000000E+00 -0.00000000000E+00 -0.45593999997E+02  0.45594000000E+02  0.51100000000E-03 0.  1.
    9900012    2    1    2    0    0  0.42138229059E+02 -0.62421796323E+01 -0.83083043252E+01  0.47787273329E+02  0.20000010416E+02 0.  0.
        -12    1    1    2    0    0 -0.42138229059E+02  0.62421796323E+01  0.83083043252E+01  0.43400726671E+02  0.00000000000E+00 0.  1.
         11    1    3    3    0    0  0.13537602242E+02  0.11737779235E+01  0.52760580915E+01  0.14576735517E+02  0.51100000000E-03 0. -1.
        -11    1    3    3    0    0  0.74502218509E+01  0.76244612540E+00 -0.47811836508E+01  0.88852038292E+01  0.51100000000E-03 0.  1.
         12    1    3    3    0    0  0.21150404966E+02 -0.81784036811E+01 -0.88031787659E+01  0.24325333983E+02  0.00000000000E+00 0. -1.
</event>
<event>
 7    1  0.2598019E-009  0.4778727E+02  0.7816164E-02  0.1312668E+00
        -11   -1    0    0    0    0  0.00000000000E+00  0.00000000000E+00  0.45593999997E+02  0.45594000000E+02  0.51100000000E-03 0.  1.
         11   -1    0    0    0    0 -0.00000000000E+00 -0.00000000000E+00 -0.45593999997E+02  0.45594000000E+02  0.51100000000E-03 0. -1.
    9900012    2    1    2    0    0 -0.13100894069E+02  0.41344294579E+02 -0.16246454227E+01  0.47787267375E+02  0.19999983270E+02 0.  0.
        -12    1    1    2    0    0  0.13100894069E+02 -0.41344294579E+02  0.16246454227E+01  0.43400732625E+02  0.00000000000E+00 0.  1.
         11    1    3    3    0    0 -0.53802554154E+01  0.13131530315E+02 -0.57883940384E+01  0.15326113093E+02  0.51100000000E-03 0. -1.
        -11    1    3    3    0    0  0.24142119976E+01  0.45372277575E+01  0.43094476875E+01  0.67071748840E+01  0.51100000000E-03 0.  1.
        -12    1    3    3    0    0 -0.10134850651E+02  0.23675536507E+02 -0.14569907183E+00  0.25753979398E+02  0.00000000000E+00 0.  1.
</event>
<event>
 7    1  0.2598019E-009  0.4778727E+02  0.7816164E-02  0.1312668E+00
        -11   -1    0    0    0    0  0.00000000000E+00  0.00000000000E+00  0.45593999997E+02  0.45594000000E+02  0.51100000000E-03 0. -1.
         11   -1    0    0    0    0 -0.00000000000E+00 -0.00000000000E+00 -0.45593999997E+02  0.45594000000E+02  0.51100000000E-03 0.  1.
    9900012    2    1    2    0    0 -0.25553558432E+02 -0.22128135759E+02  0.27221028733E+02  0.47787272518E+02  0.20000006719E+02 0.  0.
        -12    1    1    2    0    0  0.25553558432E+02  0.22128135759E+02 -0.27221028733E+02  0.43400727482E+02  0.00000000000E+00 0.  1.
         11    1    3    3    0    0  0.88029689201E+00  0.70190819370E+00 -0.68773824380E+00  0.13193111398E+01  0.51100000000E-03 0.  1.
        -11    1    3    3    0    0 -0.27022886457E+02 -0.20601584236E+02  0.28182836991E+02  0.44146732230E+02  0.51100000000E-03 0. -1.
         12    1    3    3    0    0  0.58903113345E+00 -0.22284597169E+01 -0.27407001422E+00  0.23212291483E+01  0.00000000000E+00 0. -1.
</event>
<event>
 7    1  0.2598019E-009  0.4778727E+02  0.7816164E-02  0.1312668E+00
        -11   -1    0    0    0    0  0.00000000000E+00  0.00000000000E+00  0.45593999997E+02  0.45594000000E+02  0.51100000000E-03 0. -1.
         11   -1    0    0    0    0 -0.00000000000E+00 -0.00000000000E+00 -0.45593999997E+02  0.45594000000E+02  0.51100000000E-03 0.  1.
    9900012    2    1    2    0    0  0.76988671044E+01 -0.41252677433E+02 -0.11071002605E+02  0.47787273638E+02  0.20000011826E+02 0.  0.
        -12    1    1    2    0    0 -0.76988671044E+01  0.41252677433E+02  0.11071002605E+02  0.43400726362E+02  0.00000000000E+00 0.  1.
         11    1    3    3    0    0 -0.45870768697E+00 -0.11727187831E+02 -0.37008299776E+01  0.12305831542E+02  0.51100000000E-03 0. -1.
        -11    1    3    3    0    0 -0.30753129366E+01  0.23826300403E-01 -0.31588513897E+00  0.30915855208E+01  0.51100000000E-03 0.  1.
        -12    1    3    3    0    0  0.11232887728E+02 -0.29549315902E+02 -0.70542874884E+01  0.32389856575E+02  0.00000000000E+00 0.  1.
</event>
<event>
 7    1  0.2598019E-009  0.4778728E+02  0.7816164E-02  0.1312668E+00
        -11   -1    0    0    0    0  0.00000000000E+00  0.00000000000E+00  0.45593999997E+02  0.45594000000E+02  0.51100000000E-03 0.  1.
         11   -1    0    0    0    0 -0.00000000000E+00 -0.00000000000E+00 -0.45593999997E+02  0.45594000000E+02  0.51100000000E-03 0. -1.
    9900012    2    1    2    0    0  0.13822222539E+00  0.43390527313E+02  0.93050315582E+00  0.47787276481E+02  0.20000024786E+02 0.  0.
        -12    1    1    2    0    0 -0.13822222539E+00 -0.43390527313E+02 -0.93050315582E+00  0.43400723519E+02  0.00000000000E+00 0.  1.
         11    1    3    3    0    0 -0.61641474181E+01  0.26508749709E+02 -0.37008058519E+01  0.27466461161E+02  0.51100000000E-03 0. -1.
        -11    1    3    3    0    0 -0.20074845790E+01  0.31513057898E+01  0.82881033341E+00  0.38272247576E+01  0.51100000000E-03 0.  1.
         12    1    3    3    0    0  0.83098542225E+01  0.13730471815E+02  0.38024986743E+01  0.16493590562E+02  0.00000000000E+00 0. -1.
</event>
<event>
 7    1  0.2598019E-009  0.4778727E+02  0.7816164E-02  0.1312668E+00
        -11   -1    0    0    0    0  0.00000000000E+00  0.00000000000E+00  0.45593999997E+02  0.45594000000E+02  0.51100000000E-03 0. -1.
         11   -1    0    0    0    0 -0.00000000000E+00 -0.00000000000E+00 -0.45593999997E+02  0.45594000000E+02  0.51100000000E-03 0.  1.
    9900012    2    1    2    0    0  0.28911131869E+02 -0.32351374246E+02  0.10763529998E+01  0.47787268470E+02  0.19999988261E+02 0.  0.
        -12    1    1    2    0    0 -0.28911131869E+02  0.32351374246E+02 -0.10763529998E+01  0.43400731530E+02  0.00000000000E+00 0.  1.
         11    1    3    3    0    0  0.19999777588E+02 -0.14858555948E+02 -0.22362209814E+01  0.25015364738E+02  0.51100000000E-03 0. -1.
        -11    1    3    3    0    0  0.35907715722E+01 -0.15443882564E+02  0.53243673317E+01  0.16725909150E+02  0.51100000000E-03 0.  1.
        -12    1    3    3    0    0  0.53205827086E+01 -0.20489357344E+01 -0.20117933506E+01  0.60459945823E+01  0.00000000000E+00 0.  1.
</event>
<event>
 7    1  0.2598019E-009  0.4778729E+02  0.7816164E-02  0.1312668E+00
        -11   -1    0    0    0    0  0.00000000000E+00  0.00000000000E+00  0.45593999997E+02  0.45594000000E+02  0.51100000000E-03 0.  1.
         11   -1    0    0    0    0 -0.00000000000E+00 -0.00000000000E+00 -0.45593999997E+02  0.45594000000E+02  0.51100000000E-03 0. -1.
    9900012    2    1    2    0    0  0.67575514515E+01 -0.32657970563E+02 -0.27774335079E+02  0.47787294568E+02  0.20000107251E+02 0.  0.
        -12    1    1    2    0    0 -0.67575514515E+01  0.32657970563E+02  0.27774335079E+02  0.43400705432E+02  0.00000000000E+00 0.  1.
         11    1    3    3    0    0  0.75431504884E+01 -0.27999424947E+02 -0.21137864217E+02  0.35884205725E+02  0.51100000000E-03 0. -1.
        -11    1    3    3    0    0 -0.39521294050E+01 -0.32231511545E+00 -0.48052661627E+01  0.62300719918E+01  0.51100000000E-03 0.  1.
        -12    1    3    3    0    0  0.31665303682E+01 -0.43362305013E+01 -0.18312046998E+01  0.56730168505E+01  0.00000000000E+00 0.  1.
</event>
<event>
 7    1  0.2598019E-009  0.4778727E+02  0.7816164E-02  0.1312668E+00
        -11   -1    0    0    0    0  0.00000000000E+00  0.00000000000E+00  0.45593999997E+02  0.45594000000E+02  0.51100000000E-03 0.  1.
         11   -1    0    0    0    0 -0.00000000000E+00 -0.00000000000E+00 -0.45593999997E+02  0.45594000000E+02  0.51100000000E-03 0. -1.
    9900012    2    1    2    0    0 -0.51025926495E+01  0.83113296320E+01 -0.42290766798E+02  0.47787267191E+02  0.19999982432E+02 0.  0.
        -12    1    1    2    0    0  0.51025926495E+01 -0.83113296320E+01  0.42290766798E+02  0.43400732809E+02  0.00000000000E+00 0.  1.
         11    1    3    3    0    0  0.12119594606E+01  0.31162034789E+01 -0.12809144261E+02  0.13238343809E+02  0.51100000000E-03 0. -1.
        -11    1    3    3    0    0  0.33637938045E+01 -0.32117663832E+01 -0.45079884583E+01  0.64770759036E+01  0.51100000000E-03 0.  1.
        -12    1    3    3    0    0 -0.96783459146E+01  0.84068925363E+01 -0.24973634079E+02  0.28071847478E+02  0.00000000000E+00 0.  1.
</event>
<event>
 7    1  0.2598019E-009  0.4778727E+02  0.7816164E-02  0.1312668E+00
        -11   -1    0    0    0    0  0.00000000000E+00  0.00000000000E+00  0.45593999997E+02  0.45594000000E+02  0.51100000000E-03 0. -1.
         11   -1    0    0    0    0 -0.00000000000E+00 -0.00000000000E+00 -0.45593999997E+02  0.45594000000E+02  0.51100000000E-03 0.  1.
    9900012    2    1    2    0    0 -0.29023500429E+02  0.32254662099E+02  0.94673749936E+00  0.47787272861E+02  0.20000008284E+02 0.  0.
        -12    1    1    2    0    0  0.29023500429E+02 -0.32254662099E+02 -0.94673749936E+00  0.43400727139E+02  0.00000000000E+00 0.  1.
         11    1    3    3    0    0 -0.21541626786E+02  0.22687544749E+02 -0.57675673847E+00  0.31290558000E+02  0.51100000000E-03 0. -1.
        -11    1    3    3    0    0 -0.82701698263E+00  0.20111721294E+01 -0.43334079437E+01  0.48484219176E+01  0.51100000000E-03 0.  1.
        -12    1    3    3    0    0 -0.66548566602E+01  0.75559452208E+01  0.58569021816E+01  0.11648292944E+02  0.00000000000E+00 0.  1.
</event>
<event>
 7    1  0.2598019E-009  0.4778727E+02  0.7816164E-02  0.1312668E+00
        -11   -1    0    0    0    0  0.00000000000E+00  0.00000000000E+00  0.45593999997E+02  0.45594000000E+02  0.51100000000E-03 0.  1.
         11   -1    0    0    0    0 -0.00000000000E+00 -0.00000000000E+00 -0.45593999997E+02  0.45594000000E+02  0.51100000000E-03 0. -1.
    9900012    2    1    2    0    0  0.11008766515E+02 -0.28813219321E+02 -0.30532420554E+02  0.47787271288E+02  0.20000001109E+02 0.  0.
        -12    1    1    2    0    0 -0.11008766515E+02  0.28813219321E+02  0.30532420554E+02  0.43400728712E+02  0.00000000000E+00 0.  1.
         11    1    3    3    0    0 -0.33116225698E+01 -0.91039706409E+01 -0.47657938891E+01  0.10796384447E+02  0.51100000000E-03 0.  1.
        -11    1    3    3    0    0  0.18090999070E+01 -0.10402383573E+02 -0.13572361680E+02  0.17195680513E+02  0.51100000000E-03 0. -1.
        -12    1    3    3    0    0  0.12511289178E+02 -0.93068651077E+01 -0.12194264985E+02  0.19795206327E+02  0.00000000000E+00 0.  1.
</event>
<event>
 7    1  0.2598019E-009  0.4778727E+02  0.7816164E-02  0.1312668E+00
        -11   -1    0    0    0    0  0.00000000000E+00  0.00000000000E+00  0.45593999997E+02  0.45594000000E+02  0.51100000000E-03 0. -1.
         11   -1    0    0    0    0 -0.00000000000E+00 -0.00000000000E+00 -0.45593999997E+02  0.45594000000E+02  0.51100000000E-03 0.  1.
    9900012    2    1    2    0    0  0.16662367802E+01 -0.15116788567E+02  0.40648859668E+02  0.47787269201E+02  0.19999991594E+02 0.  0.
        -12    1    1    2    0    0 -0.16662367802E+01  0.15116788567E+02 -0.40648859668E+02  0.43400730799E+02  0.00000000000E+00 0.  1.
         11    1    3    3    0    0 -0.67437444593E+01 -0.97311880961E+01  0.19850507928E+02  0.23113129956E+02  0.51100000000E-03 0. -1.
        -11    1    3    3    0    0  0.78732426685E+01 -0.17113151401E+01  0.80241102433E+01  0.11371143086E+02  0.51100000000E-03 0.  1.
        -12    1    3    3    0    0  0.53673857109E+00 -0.36742853312E+01  0.12774241497E+02  0.13302996159E+02  0.00000000000E+00 0.  1.
</event>
<event>
 7    1  0.2598019E-009  0.4778727E+02  0.7816164E-02  0.1312668E+00
        -11   -1    0    0    0    0  0.00000000000E+00  0.00000000000E+00  0.45593999997E+02  0.45594000000E+02  0.51100000000E-03 0. -1.
         11   -1    0    0    0    0 -0.00000000000E+00 -0.00000000000E+00 -0.45593999997E+02  0.45594000000E+02  0.51100000000E-03 0.  1.
    9900012    2    1    2    0    0 -0.35663374199E+02  0.33166008670E+01  0.24510144346E+02  0.47787271015E+02  0.19999999866E+02 0.  0.
        -12    1    1    2    0    0  0.35663374199E+02 -0.33166008670E+01 -0.24510144346E+02  0.43400728985E+02  0.00000000000E+00 0.  1.
         11    1    3    3    0    0 -0.20434699811E+02 -0.14848975051E+00  0.12922359666E+02  0.24178221299E+02  0.51100000000E-03 0. -1.
        -11    1    3    3    0    0  0.10534469151E+01 -0.82322902759E+00  0.55705998781E+01  0.57287904219E+01  0.51100000000E-03 0.  1.
        -12    1    3    3    0    0 -0.16282121303E+02  0.42883196451E+01  0.60171848021E+01  0.17880259294E+02  0.00000000000E+00 0.  1.
</event>
<event>
 7    1  0.2598019E-009  0.4778727E+02  0.7816164E-02  0.1312668E+00
        -11   -1    0    0    0    0  0.00000000000E+00  0.00000000000E+00  0.45593999997E+02  0.45594000000E+02  0.51100000000E-03 0. -1.
         11   -1    0    0    0    0 -0.00000000000E+00 -0.00000000000E+00 -0.45593999997E+02  0.45594000000E+02  0.51100000000E-03 0.  1.
    9900012    2    1    2    0    0 -0.31301688503E+02 -0.49469165067E+01  0.29653938000E+02  0.47787265848E+02  0.19999976305E+02 0.  0.
        -12    1    1    2    0    0  0.31301688503E+02  0.49469165067E+01 -0.29653938000E+02  0.43400734152E+02  0.00000000000E+00 0.  1.
         11    1    3    3    0    0 -0.38373130989E+01  0.13633239577E+01  0.90232166008E+01  0.98995990888E+01  0.51100000000E-03 0. -1.
        -11    1    3    3    0    0 -0.27418424216E+02 -0.89481514624E+01  0.17276538050E+02  0.33620204764E+02  0.51100000000E-03 0.  1.
        -12    1    3    3    0    0 -0.45951188485E-01  0.26379109980E+01  0.33541833485E+01  0.42674619952E+01  0.00000000000E+00 0.  1.
</event>
<event>
 7    1  0.2598019E-009  0.4778724E+02  0.7816164E-02  0.1312668E+00
        -11   -1    0    0    0    0  0.00000000000E+00  0.00000000000E+00  0.45593999997E+02  0.45594000000E+02  0.51100000000E-03 0.  1.
         11   -1    0    0    0    0 -0.00000000000E+00 -0.00000000000E+00 -0.45593999997E+02  0.45594000000E+02  0.51100000000E-03 0. -1.
    9900012    2    1    2    0    0 -0.80215029408E+01 -0.16752209332E+02 -0.39225559400E+02  0.47787244970E+02  0.19999881117E+02 0.  0.
        -12    1    1    2    0    0  0.80215029408E+01  0.16752209332E+02  0.39225559400E+02  0.43400755030E+02  0.00000000000E+00 0.  1.
         11    1    3    3    0    0  0.14066158111E+01 -0.12678963966E+02 -0.20372330643E+02  0.24036774979E+02  0.51100000000E-03 0. -1.
        -11    1    3    3    0    0 -0.77420393587E+01  0.15672029248E+01 -0.14189356141E+02  0.16239862265E+02  0.51100000000E-03 0.  1.
        -12    1    3    3    0    0 -0.16860793932E+01 -0.56404482910E+01 -0.46638726156E+01  0.75106077263E+01  0.00000000000E+00 0.  1.
</event>
<event>
 7    1  0.2598019E-009  0.4778727E+02  0.7816164E-02  0.1312668E+00
        -11   -1    0    0    0    0  0.00000000000E+00  0.00000000000E+00  0.45593999997E+02  0.45594000000E+02  0.51100000000E-03 0. -1.
         11   -1    0    0    0    0 -0.00000000000E+00 -0.00000000000E+00 -0.45593999997E+02  0.45594000000E+02  0.51100000000E-03 0.  1.
    9900012    2    1    2    0    0  0.16217996265E+01 -0.42915302185E+02  0.62665866153E+01  0.47787268399E+02  0.19999987940E+02 0.  0.
        -12    1    1    2    0    0 -0.16217996265E+01  0.42915302185E+02 -0.62665866153E+01  0.43400731601E+02  0.00000000000E+00 0.  1.
         11    1    3    3    0    0  0.46011891153E+01 -0.17048709853E+02  0.81932724449E+01  0.19466873466E+02  0.51100000000E-03 0. -1.
        -11    1    3    3    0    0 -0.66893156599E+01 -0.21541465808E+02 -0.15923698841E+01  0.22612327065E+02  0.51100000000E-03 0.  1.
        -12    1    3    3    0    0  0.37099261711E+01 -0.43251265235E+01 -0.33431594550E+00  0.57080678685E+01  0.00000000000E+00 0.  1.
</event>
<event>
 7    1  0.2598019E-009  0.4778725E+02  0.7816164E-02  0.1312668E+00
        -11   -1    0    0    0    0  0.00000000000E+00  0.00000000000E+00  0.45593999997E+02  0.45594000000E+02  0.51100000000E-03 0.  1.
         11   -1    0    0    0    0 -0.00000000000E+00 -0.00000000000E+00 -0.45593999997E+02  0.45594000000E+02  0.51100000000E-03 0. -1.
    9900012    2    1    2    0    0 -0.56539380178E+01  0.22903355768E+02 -0.36429301663E+02  0.47787254151E+02  0.19999922977E+02 0.  0.
        -12    1    1    2    0    0  0.56539380178E+01 -0.22903355768E+02  0.36429301663E+02  0.43400745849E+02  0.00000000000E+00 0.  1.
         11    1    3    3    0    0 -0.10135471636E+02  0.76185426072E+01 -0.14501609217E+02  0.19263090273E+02  0.51100000000E-03 0. -1.
        -11    1    3    3    0    0  0.48051563215E+01  0.28557067557E+01 -0.48538596937E+01  0.74030090191E+01  0.51100000000E-03 0.  1.
         12    1    3    3    0    0 -0.32362270315E+00  0.12429106405E+02 -0.17073832753E+02  0.21121154859E+02  0.00000000000E+00 0. -1.
</event>
<event>
 7    1  0.2598019E-009  0.4778728E+02  0.7816164E-02  0.1312668E+00
        -11   -1    0    0    0    0  0.00000000000E+00  0.00000000000E+00  0.45593999997E+02  0.45594000000E+02  0.51100000000E-03 0.  1.
         11   -1    0    0    0    0 -0.00000000000E+00 -0.00000000000E+00 -0.45593999997E+02  0.45594000000E+02  0.51100000000E-03 0. -1.
    9900012    2    1    2    0    0 -0.10873288838E+02 -0.34751574521E+02 -0.23616137012E+02  0.47787282619E+02  0.20000052771E+02 0.  0.
        -12    1    1    2    0    0  0.10873288838E+02  0.34751574521E+02  0.23616137012E+02  0.43400717381E+02  0.00000000000E+00 0.  1.
         11    1    3    3    0    0 -0.24852300264E+01  0.16079352314E+01 -0.30468435747E+00  0.29756775382E+01  0.51100000000E-03 0. -1.
        -11    1    3    3    0    0 -0.10146892560E+01 -0.20195948079E+02 -0.96814892986E+01  0.22419570656E+02  0.51100000000E-03 0.  1.
         12    1    3    3    0    0 -0.73733695552E+01 -0.16163561673E+02 -0.13629963356E+02  0.22392034424E+02  0.00000000000E+00 0. -1.
</event>
<event>
 7    1  0.2598019E-009  0.4778727E+02  0.7816164E-02  0.1312668E+00
        -11   -1    0    0    0    0  0.00000000000E+00  0.00000000000E+00  0.45593999997E+02  0.45594000000E+02  0.51100000000E-03 0.  1.
         11   -1    0    0    0    0 -0.00000000000E+00 -0.00000000000E+00 -0.45593999997E+02  0.45594000000E+02  0.51100000000E-03 0. -1.
    9900012    2    1    2    0    0 -0.22724204642E+02  0.36744790178E+02 -0.41296507891E+01  0.47787273077E+02  0.20000009266E+02 0.  0.
        -12    1    1    2    0    0  0.22724204642E+02 -0.36744790178E+02  0.41296507891E+01  0.43400726923E+02  0.00000000000E+00 0.  1.
         11    1    3    3    0    0 -0.44146176166E+01  0.23905723667E+01 -0.25818068090E+01  0.56452999567E+01  0.51100000000E-03 0.  1.
        -11    1    3    3    0    0 -0.14341050593E+02  0.16973863814E+02 -0.73319281443E+01  0.23399464854E+02  0.51100000000E-03 0. -1.
        -12    1    3    3    0    0 -0.39685364333E+01  0.17380353997E+02  0.57840841642E+01  0.18742508266E+02  0.00000000000E+00 0.  1.
</event>
<event>
 7    1  0.2598019E-009  0.4778727E+02  0.7816164E-02  0.1312668E+00
        -11   -1    0    0    0    0  0.00000000000E+00  0.00000000000E+00  0.45593999997E+02  0.45594000000E+02  0.51100000000E-03 0.  1.
         11   -1    0    0    0    0 -0.00000000000E+00 -0.00000000000E+00 -0.45593999997E+02  0.45594000000E+02  0.51100000000E-03 0. -1.
    9900012    2    1    2    0    0  0.28655014505E+02 -0.23636110482E+02 -0.22446555140E+02  0.47787269445E+02  0.19999992709E+02 0.  0.
        -12    1    1    2    0    0 -0.28655014505E+02  0.23636110482E+02  0.22446555140E+02  0.43400730555E+02  0.00000000000E+00 0.  1.
         11    1    3    3    0    0  0.63197813463E+01 -0.29239360840E+01 -0.64252579524E+01  0.94748603422E+01  0.51100000000E-03 0. -1.
        -11    1    3    3    0    0  0.19449743124E+02 -0.13768325960E+02 -0.18740753383E+02  0.30316252159E+02  0.51100000000E-03 0.  1.
        -12    1    3    3    0    0  0.28854900352E+01 -0.69438484386E+01  0.27194561955E+01  0.79961569445E+01  0.00000000000E+00 0.  1.
</event>
<event>
 7    1  0.2598019E-009  0.4778727E+02  0.7816164E-02  0.1312668E+00
        -11   -1    0    0    0    0  0.00000000000E+00  0.00000000000E+00  0.45593999997E+02  0.45594000000E+02  0.51100000000E-03 0.  1.
         11   -1    0    0    0    0 -0.00000000000E+00 -0.00000000000E+00 -0.45593999997E+02  0.45594000000E+02  0.51100000000E-03 0. -1.
    9900012    2    1    2    0    0 -0.12466127364E+02 -0.39861898260E+01 -0.41380301682E+02  0.47787269498E+02  0.19999992949E+02 0.  0.
        -12    1    1    2    0    0  0.12466127364E+02  0.39861898260E+01  0.41380301682E+02  0.43400730502E+02  0.00000000000E+00 0.  1.
         11    1    3    3    0    0  0.22857871302E+01  0.20180455985E+01 -0.18669159243E+02  0.18916522881E+02  0.51100000000E-03 0. -1.
        -11    1    3    3    0    0 -0.39422317929E+01 -0.56969885899E+01 -0.75351456572E+01  0.10235980209E+02  0.51100000000E-03 0.  1.
         12    1    3    3    0    0 -0.10809682701E+02 -0.30724683457E+00 -0.15175996783E+02  0.18634766408E+02  0.00000000000E+00 0. -1.
</event>
<event>
 7    1  0.2598019E-009  0.4778727E+02  0.7816164E-02  0.1312668E+00
        -11   -1    0    0    0    0  0.00000000000E+00  0.00000000000E+00  0.45593999997E+02  0.45594000000E+02  0.51100000000E-03 0.  1.
         11   -1    0    0    0    0 -0.00000000000E+00 -0.00000000000E+00 -0.45593999997E+02  0.45594000000E+02  0.51100000000E-03 0. -1.
    9900012    2    1    2    0    0  0.33179692786E+01 -0.24230744273E+02 -0.35853665203E+02  0.47787271934E+02  0.20000004054E+02 0.  0.
        -12    1    1    2    0    0 -0.33179692786E+01  0.24230744273E+02  0.35853665203E+02  0.43400728066E+02  0.00000000000E+00 0.  1.
         11    1    3    3    0    0  0.25973124657E+01 -0.14286791268E+02 -0.26801760774E+02  0.30482664215E+02  0.51100000000E-03 0. -1.
        -11    1    3    3    0    0 -0.85403048388E+00 -0.49756001619E+00  0.22698504785E+01  0.24757131282E+01  0.51100000000E-03 0.  1.
        -12    1    3    3    0    0  0.15746872968E+01 -0.94463929891E+01 -0.11321754908E+02  0.14828894590E+02  0.00000000000E+00 0.  1.
</event>
<event>
 7    1  0.2598019E-009  0.4778727E+02  0.7816164E-02  0.1312668E+00
        -11   -1    0    0    0    0  0.00000000000E+00  0.00000000000E+00  0.45593999997E+02  0.45594000000E+02  0.51100000000E-03 0.  1.
         11   -1    0    0    0    0 -0.00000000000E+00 -0.00000000000E+00 -0.45593999997E+02  0.45594000000E+02  0.51100000000E-03 0. -1.
    9900012    2    1    2    0    0  0.20513667024E+02 -0.40851980450E+01 -0.38027942049E+02  0.47787265510E+02  0.19999974765E+02 0.  0.
        -12    1    1    2    0    0 -0.20513667024E+02  0.40851980450E+01  0.38027942049E+02  0.43400734490E+02  0.00000000000E+00 0.  1.
         11    1    3    3    0    0  0.27368316416E+01  0.33974138948E+01 -0.18947781133E+02  0.19443535654E+02  0.51100000000E-03 0. -1.
        -11    1    3    3    0    0  0.87724955628E+01 -0.63012468344E+01 -0.58126538460E+01  0.12265779024E+02  0.51100000000E-03 0.  1.
        -12    1    3    3    0    0  0.90043398191E+01 -0.11813651054E+01 -0.13267507070E+02  0.16077950831E+02  0.00000000000E+00 0.  1.
</event>
<event>
 7    1  0.2598019E-009  0.4778727E+02  0.7816164E-02  0.1312668E+00
        -11   -1    0    0    0    0  0.00000000000E+00  0.00000000000E+00  0.45593999997E+02  0.45594000000E+02  0.51100000000E-03 0. -1.
         11   -1    0    0    0    0 -0.00000000000E+00 -0.00000000000E+00 -0.45593999997E+02  0.45594000000E+02  0.51100000000E-03 0.  1.
    9900012    2    1    2    0    0 -0.15572560835E+01 -0.18955151605E+02  0.39011542743E+02  0.47787270904E+02  0.19999999359E+02 0.  0.
        -12    1    1    2    0    0  0.15572560835E+01  0.18955151605E+02 -0.39011542743E+02  0.43400729096E+02  0.00000000000E+00 0.  1.
         11    1    3    3    0    0  0.69111200969E+01 -0.10889737085E+02  0.20842175443E+02  0.24510125096E+02  0.51100000000E-03 0. -1.
        -11    1    3    3    0    0 -0.41614102832E+01  0.47567563104E+00  0.23833474067E+01  0.48191231540E+01  0.51100000000E-03 0.  1.
         12    1    3    3    0    0 -0.43069658971E+01 -0.85410901511E+01  0.15786019893E+02  0.18458022654E+02  0.00000000000E+00 0. -1.
</event>
<event>
 7    1  0.2598019E-009  0.4778728E+02  0.7816164E-02  0.1312668E+00
        -11   -1    0    0    0    0  0.00000000000E+00  0.00000000000E+00  0.45593999997E+02  0.45594000000E+02  0.51100000000E-03 0.  1.
         11   -1    0    0    0    0 -0.00000000000E+00 -0.00000000000E+00 -0.45593999997E+02  0.45594000000E+02  0.51100000000E-03 0. -1.
    9900012    2    1    2    0    0  0.37472128471E+02  0.13482896388E+02 -0.17253230784E+02  0.47787275587E+02  0.20000020709E+02 0.  0.
        -12    1    1    2    0    0 -0.37472128471E+02 -0.13482896388E+02  0.17253230784E+02  0.43400724413E+02  0.00000000000E+00 0.  1.
         11    1    3    3    0    0  0.13634060998E+02  0.21898345263E+00 -0.26632953455E+01  0.13893477441E+02  0.51100000000E-03 0. -1.
        -11    1    3    3    0    0  0.24948399888E+02  0.13629662674E+02 -0.15529716980E+02  0.32393864717E+02  0.51100000000E-03 0.  1.
        -12    1    3    3    0    0 -0.11103324152E+01 -0.36574973851E+00  0.93978154169E+00  0.14999334283E+01  0.00000000000E+00 0.  1.
</event>
<event>
 7    1  0.2598019E-009  0.4778727E+02  0.7816164E-02  0.1312668E+00
        -11   -1    0    0    0    0  0.00000000000E+00  0.00000000000E+00  0.45593999997E+02  0.45594000000E+02  0.51100000000E-03 0. -1.
         11   -1    0    0    0    0 -0.00000000000E+00 -0.00000000000E+00 -0.45593999997E+02  0.45594000000E+02  0.51100000000E-03 0.  1.
    9900012    2    1    2    0    0  0.16610809896E+01  0.19708953980E+02  0.38631868139E+02  0.47787270825E+02  0.19999999001E+02 0.  0.
        -12    1    1    2    0    0 -0.16610809896E+01 -0.19708953980E+02 -0.38631868139E+02  0.43400729175E+02  0.00000000000E+00 0.  1.
         11    1    3    3    0    0 -0.18742143887E+01  0.17804883631E+02  0.30170394236E+02  0.35082463558E+02  0.51100000000E-03 0. -1.
        -11    1    3    3    0    0  0.15402897197E+01 -0.34330941414E+01  0.30018982272E+01  0.48135248033E+01  0.51100000000E-03 0.  1.
        -12    1    3    3    0    0  0.19950056587E+01  0.53371644901E+01  0.54595756754E+01  0.78912824640E+01  0.00000000000E+00 0.  1.
</event>
<event>
 7    1  0.2598019E-009  0.4778727E+02  0.7816164E-02  0.1312668E+00
        -11   -1    0    0    0    0  0.00000000000E+00  0.00000000000E+00  0.45593999997E+02  0.45594000000E+02  0.51100000000E-03 0.  1.
         11   -1    0    0    0    0 -0.00000000000E+00 -0.00000000000E+00 -0.45593999997E+02  0.45594000000E+02  0.51100000000E-03 0. -1.
    9900012    2    1    2    0    0 -0.12448204348E+02  0.31772460116E+02 -0.26817459907E+02  0.47787272251E+02  0.20000005500E+02 0.  0.
        -12    1    1    2    0    0  0.12448204348E+02 -0.31772460116E+02  0.26817459907E+02  0.43400727749E+02  0.00000000000E+00 0.  1.
         11    1    3    3    0    0 -0.63288799860E+01  0.26762526727E+02 -0.15686691163E+02  0.31660066939E+02  0.51100000000E-03 0. -1.
        -11    1    3    3    0    0 -0.49455645189E+01  0.93808450977E+00 -0.10752825492E+02  0.11872736301E+02  0.51100000000E-03 0.  1.
         12    1    3    3    0    0 -0.11737598429E+01  0.40718488788E+01 -0.37794325305E+00  0.42544690107E+01  0.00000000000E+00 0. -1.
</event>
<event>
 7    1  0.2598019E-009  0.4778727E+02  0.7816164E-02  0.1312668E+00
        -11   -1    0    0    0    0  0.00000000000E+00  0.00000000000E+00  0.45593999997E+02  0.45594000000E+02  0.51100000000E-03 0. -1.
         11   -1    0    0    0    0 -0.00000000000E+00 -0.00000000000E+00 -0.45593999997E+02  0.45594000000E+02  0.51100000000E-03 0.  1.
    9900012    2    1    2    0    0  0.18946205974E+02 -0.37000400919E+02 -0.12475377292E+02  0.47787269274E+02  0.19999991927E+02 0.  0.
        -12    1    1    2    0    0 -0.18946205974E+02  0.37000400919E+02  0.12475377292E+02  0.43400730726E+02  0.00000000000E+00 0.  1.
         11    1    3    3    0    0  0.77714137761E+00 -0.12542303640E+02 -0.55166045449E+01  0.13723930023E+02  0.51100000000E-03 0. -1.
        -11    1    3    3    0    0  0.19502462130E+02 -0.23815480465E+02 -0.43826975625E+01  0.31092300929E+02  0.51100000000E-03 0.  1.
        -12    1    3    3    0    0 -0.13333975329E+01 -0.64261681488E+00 -0.25760751850E+01  0.29710383219E+01  0.00000000000E+00 0.  1.
</event>
<event>
 7    1  0.2598019E-009  0.4778727E+02  0.7816164E-02  0.1312668E+00
        -11   -1    0    0    0    0  0.00000000000E+00  0.00000000000E+00  0.45593999997E+02  0.45594000000E+02  0.51100000000E-03 0.  1.
         11   -1    0    0    0    0 -0.00000000000E+00 -0.00000000000E+00 -0.45593999997E+02  0.45594000000E+02  0.51100000000E-03 0. -1.
    9900012    2    1    2    0    0 -0.87522542115E+01  0.19341078225E+02 -0.37854247088E+02  0.47787270936E+02  0.19999999503E+02 0.  0.
        -12    1    1    2    0    0  0.87522542115E+01 -0.19341078225E+02  0.37854247088E+02  0.43400729064E+02  0.00000000000E+00 0.  1.
         11    1    3    3    0    0 -0.15154361943E+01  0.60874557067E+01 -0.23511740786E+02  0.24334247860E+02  0.51100000000E-03 0.  1.
        -11    1    3    3    0    0 -0.37093366742E+01  0.82600410956E+01 -0.14308872814E+01  0.91670549325E+01  0.51100000000E-03 0. -1.
         12    1    3    3    0    0 -0.35274813431E+01  0.49935814229E+01 -0.12911619021E+02  0.14285968143E+02  0.00000000000E+00 0. -1.
</event>
<event>
 7    1  0.2598019E-009  0.4778727E+02  0.7816164E-02  0.1312668E+00
        -11   -1    0    0    0    0  0.00000000000E+00  0.00000000000E+00  0.45593999997E+02  0.45594000000E+02  0.51100000000E-03 0.  1.
         11   -1    0    0    0    0 -0.00000000000E+00 -0.00000000000E+00 -0.45593999997E+02  0.45594000000E+02  0.51100000000E-03 0. -1.
    9900012    2    1    2    0    0  0.36780383242E+02 -0.26649664578E+01 -0.22885031343E+02  0.47787270776E+02  0.19999998775E+02 0.  0.
        -12    1    1    2    0    0 -0.36780383242E+02  0.26649664578E+01  0.22885031343E+02  0.43400729224E+02  0.00000000000E+00 0.  1.
         11    1    3    3    0    0  0.18097589297E+02 -0.29597816757E+01 -0.80010475765E+01  0.20007493809E+02  0.51100000000E-03 0. -1.
        -11    1    3    3    0    0  0.35641370342E+01 -0.21751076957E+01 -0.11300399002E+02  0.12047123480E+02  0.51100000000E-03 0.  1.
        -12    1    3    3    0    0  0.15118656910E+02  0.24699229136E+01 -0.35835847650E+01  0.15732653487E+02  0.00000000000E+00 0.  1.
</event>
<event>
 7    1  0.2598019E-009  0.4778727E+02  0.7816164E-02  0.1312668E+00
        -11   -1    0    0    0    0  0.00000000000E+00  0.00000000000E+00  0.45593999997E+02  0.45594000000E+02  0.51100000000E-03 0.  1.
         11   -1    0    0    0    0 -0.00000000000E+00 -0.00000000000E+00 -0.45593999997E+02  0.45594000000E+02  0.51100000000E-03 0. -1.
    9900012    2    1    2    0    0  0.25383853191E+02 -0.20922581334E+02 -0.28311280108E+02  0.47787274271E+02  0.20000014710E+02 0.  0.
        -12    1    1    2    0    0 -0.25383853191E+02  0.20922581334E+02  0.28311280108E+02  0.43400725729E+02  0.00000000000E+00 0.  1.
         11    1    3    3    0    0  0.13168928023E+02 -0.87883997359E+01 -0.23738570781E+02  0.28533776094E+02  0.51100000000E-03 0. -1.
        -11    1    3    3    0    0  0.19627781200E+01 -0.43132003898E+01  0.15407020294E+01  0.49829668427E+01  0.51100000000E-03 0.  1.
        -12    1    3    3    0    0  0.10252147048E+02 -0.78209812080E+01 -0.61134113567E+01  0.14270531334E+02  0.00000000000E+00 0.  1.
</event>
<event>
 7    1  0.2598019E-009  0.4778727E+02  0.7816164E-02  0.1312668E+00
        -11   -1    0    0    0    0  0.00000000000E+00  0.00000000000E+00  0.45593999997E+02  0.45594000000E+02  0.51100000000E-03 0.  1.
         11   -1    0    0    0    0 -0.00000000000E+00 -0.00000000000E+00 -0.45593999997E+02  0.45594000000E+02  0.51100000000E-03 0. -1.
    9900012    2    1    2    0    0 -0.90891533237E+01 -0.13516463805E+02 -0.40228296091E+02  0.47787270647E+02  0.19999998190E+02 0.  0.
        -12    1    1    2    0    0  0.90891533237E+01  0.13516463805E+02  0.40228296091E+02  0.43400729353E+02  0.00000000000E+00 0.  1.
         11    1    3    3    0    0 -0.73972236453E+01 -0.35683878840E+01 -0.76272062372E+01  0.11208326592E+02  0.51100000000E-03 0. -1.
        -11    1    3    3    0    0  0.15958738667E+01  0.54957608616E+00 -0.19051408983E+02  0.19126030215E+02  0.51100000000E-03 0.  1.
        -12    1    3    3    0    0 -0.32878035451E+01 -0.10497652008E+02 -0.13549680871E+02  0.17452913840E+02  0.00000000000E+00 0.  1.
</event>
<event>
 7    1  0.2598019E-009  0.4778728E+02  0.7816164E-02  0.1312668E+00
        -11   -1    0    0    0    0  0.00000000000E+00  0.00000000000E+00  0.45593999997E+02  0.45594000000E+02  0.51100000000E-03 0.  1.
         11   -1    0    0    0    0 -0.00000000000E+00 -0.00000000000E+00 -0.45593999997E+02  0.45594000000E+02  0.51100000000E-03 0. -1.
    9900012    2    1    2    0    0  0.14017293202E+02  0.38407341391E+02  0.14560702662E+02  0.47787280611E+02  0.20000043620E+02 0.  0.
        -12    1    1    2    0    0 -0.14017293202E+02 -0.38407341391E+02 -0.14560702662E+02  0.43400719389E+02  0.00000000000E+00 0.  1.
         11    1    3    3    0    0  0.14071820547E+02  0.27867801870E+02  0.10832243002E+02  0.33044939147E+02  0.51100000000E-03 0. -1.
        -11    1    3    3    0    0 -0.24891016786E+01  0.49022022624E+01 -0.24610179157E+01  0.60236055341E+01  0.51100000000E-03 0.  1.
        -12    1    3    3    0    0  0.24345743340E+01  0.56373372589E+01  0.61894775754E+01  0.87187359299E+01  0.00000000000E+00 0.  1.
</event>
<event>
 7    1  0.2598019E-009  0.4778727E+02  0.7816164E-02  0.1312668E+00
        -11   -1    0    0    0    0  0.00000000000E+00  0.00000000000E+00  0.45593999997E+02  0.45594000000E+02  0.51100000000E-03 0.  1.
         11   -1    0    0    0    0 -0.00000000000E+00 -0.00000000000E+00 -0.45593999997E+02  0.45594000000E+02  0.51100000000E-03 0. -1.
    9900012    2    1    2    0    0  0.14541473901E+02  0.56283766599E+01 -0.40502965500E+02  0.47787270728E+02  0.19999998558E+02 0.  0.
        -12    1    1    2    0    0 -0.14541473901E+02 -0.56283766599E+01  0.40502965500E+02  0.43400729272E+02  0.00000000000E+00 0.  1.
         11    1    3    3    0    0  0.11994893863E+02  0.48145180821E+01 -0.14224324924E+02  0.19219481860E+02  0.51100000000E-03 0. -1.
        -11    1    3    3    0    0  0.38074593561E+01 -0.41613994806E+01 -0.17636047046E+02  0.18516051093E+02  0.51100000000E-03 0.  1.
        -12    1    3    3    0    0 -0.12608793180E+01  0.49752580584E+01 -0.86425935293E+01  0.10051737776E+02  0.00000000000E+00 0.  1.
</event>
<event>
 7    1  0.2598019E-009  0.4778727E+02  0.7816164E-02  0.1312668E+00
        -11   -1    0    0    0    0  0.00000000000E+00  0.00000000000E+00  0.45593999997E+02  0.45594000000E+02  0.51100000000E-03 0. -1.
         11   -1    0    0    0    0 -0.00000000000E+00 -0.00000000000E+00 -0.45593999997E+02  0.45594000000E+02  0.51100000000E-03 0.  1.
    9900012    2    1    2    0    0 -0.41098851208E+02 -0.77072365460E+00  0.13925289997E+02  0.47787270892E+02  0.19999999305E+02 0.  0.
        -12    1    1    2    0    0  0.41098851208E+02  0.77072365460E+00 -0.13925289997E+02  0.43400729108E+02  0.00000000000E+00 0.  1.
         11    1    3    3    0    0 -0.17046089025E+02  0.26517488807E+01  0.11981922553E+00  0.17251529790E+02  0.51100000000E-03 0. -1.
        -11    1    3    3    0    0 -0.21199474302E+02 -0.72886209098E+01  0.11740962642E+02  0.25305965887E+02  0.51100000000E-03 0.  1.
        -12    1    3    3    0    0 -0.28532878810E+01  0.38661483745E+01  0.20645081298E+01  0.52297752154E+01  0.00000000000E+00 0.  1.
</event>
<event>
 7    1  0.2598019E-009  0.4778728E+02  0.7816164E-02  0.1312668E+00
        -11   -1    0    0    0    0  0.00000000000E+00  0.00000000000E+00  0.45593999997E+02  0.45594000000E+02  0.51100000000E-03 0. -1.
         11   -1    0    0    0    0 -0.00000000000E+00 -0.00000000000E+00 -0.45593999997E+02  0.45594000000E+02  0.51100000000E-03 0.  1.
    9900012    2    1    2    0    0 -0.79835992959E+01  0.37299485460E+01  0.42496733536E+02  0.47787277251E+02  0.20000028298E+02 0.  0.
        -12    1    1    2    0    0  0.79835992959E+01 -0.37299485460E+01 -0.42496733536E+02  0.43400722749E+02  0.00000000000E+00 0.  1.
         11    1    3    3    0    0  0.32964618693E+01 -0.49810297335E+01  0.56737815640E+01  0.82382713938E+01  0.51100000000E-03 0.  1.
        -11    1    3    3    0    0 -0.72848330143E+01  0.69060774585E+01  0.26183725171E+02  0.28041935775E+02  0.51100000000E-03 0. -1.
        -12    1    3    3    0    0 -0.39952281509E+01  0.18049008209E+01  0.10639226801E+02  0.11507070082E+02  0.00000000000E+00 0.  1.
</event>
<event>
 7    1  0.2598019E-009  0.4778727E+02  0.7816164E-02  0.1312668E+00
        -11   -1    0    0    0    0  0.00000000000E+00  0.00000000000E+00  0.45593999997E+02  0.45594000000E+02  0.51100000000E-03 0.  1.
         11   -1    0    0    0    0 -0.00000000000E+00 -0.00000000000E+00 -0.45593999997E+02  0.45594000000E+02  0.51100000000E-03 0. -1.
    9900012    2    1    2    0    0 -0.35444914165E+02 -0.22974408582E+02 -0.99728572089E+01  0.47787271080E+02  0.20000000163E+02 0.  0.
        -12    1    1    2    0    0  0.35444914165E+02  0.22974408582E+02  0.99728572089E+01  0.43400728920E+02  0.00000000000E+00 0.  1.
         11    1    3    3    0    0 -0.16776869585E+02 -0.17731095939E+01 -0.13192229759E+01  0.16921809011E+02  0.51100000000E-03 0. -1.
        -11    1    3    3    0    0 -0.34733819758E+00 -0.48172531050E+01 -0.65899629975E-01  0.48302085176E+01  0.51100000000E-03 0.  1.
         12    1    3    3    0    0 -0.18320706383E+02 -0.16384045884E+02 -0.85877346031E+01  0.26035253551E+02  0.00000000000E+00 0. -1.
</event>
<event>
 7    1  0.2598019E-009  0.4778729E+02  0.7816164E-02  0.1312668E+00
        -11   -1    0    0    0    0  0.00000000000E+00  0.00000000000E+00  0.45593999997E+02  0.45594000000E+02  0.51100000000E-03 0.  1.
         11   -1    0    0    0    0 -0.00000000000E+00 -0.00000000000E+00 -0.45593999997E+02  0.45594000000E+02  0.51100000000E-03 0. -1.
    9900012    2    1    2    0    0  0.47107418111E+01 -0.37701040966E+01 -0.42979264224E+02  0.47787286566E+02  0.20000070769E+02 0.  0.
        -12    1    1    2    0    0 -0.47107418111E+01  0.37701040966E+01  0.42979264224E+02  0.43400713434E+02  0.00000000000E+00 0.  1.
         11    1    3    3    0    0 -0.33176485097E+01 -0.46618671055E+01 -0.65410348172E+01  0.86905082293E+01  0.51100000000E-03 0. -1.
        -11    1    3    3    0    0  0.63141345372E+01 -0.23417494793E+01 -0.34089041005E+02  0.34747874791E+02  0.51100000000E-03 0.  1.
        -12    1    3    3    0    0  0.17142557836E+01  0.32335124882E+01 -0.23491884023E+01  0.43489035460E+01  0.00000000000E+00 0.  1.
</event>
<event>
 7    1  0.2598019E-009  0.4778727E+02  0.7816164E-02  0.1312668E+00
        -11   -1    0    0    0    0  0.00000000000E+00  0.00000000000E+00  0.45593999997E+02  0.45594000000E+02  0.51100000000E-03 0.  1.
         11   -1    0    0    0    0 -0.00000000000E+00 -0.00000000000E+00 -0.45593999997E+02  0.45594000000E+02  0.51100000000E-03 0. -1.
    9900012    2    1    2    0    0  0.34699562941E+01  0.10590478543E+02 -0.41945495276E+02  0.47787269518E+02  0.19999993041E+02 0.  0.
        -12    1    1    2    0    0 -0.34699562941E+01 -0.10590478543E+02  0.41945495276E+02  0.43400730482E+02  0.00000000000E+00 0.  1.
         11    1    3    3    0    0 -0.82008093735E+00  0.67595084776E+01 -0.33758695890E+02  0.34438539982E+02  0.51100000000E-03 0. -1.
        -11    1    3    3    0    0  0.38754468316E+01  0.48547465053E+01 -0.12650436413E+01  0.63393996128E+01  0.51100000000E-03 0.  1.
        -12    1    3    3    0    0  0.41459039987E+00 -0.10237764403E+01 -0.69217557438E+01  0.70093299235E+01  0.00000000000E+00 0.  1.
</event>
<event>
 7    1  0.2598019E-009  0.4778727E+02  0.7816164E-02  0.1312668E+00
        -11   -1    0    0    0    0  0.00000000000E+00  0.00000000000E+00  0.45593999997E+02  0.45594000000E+02  0.51100000000E-03 0.  1.
         11   -1    0    0    0    0 -0.00000000000E+00 -0.00000000000E+00 -0.45593999997E+02  0.45594000000E+02  0.51100000000E-03 0. -1.
    9900012    2    1    2    0    0  0.35886579491E+01  0.71455187328E+01 -0.42657781490E+02  0.47787271602E+02  0.20000002542E+02 0.  0.
        -12    1    1    2    0    0 -0.35886579491E+01 -0.71455187328E+01  0.42657781490E+02  0.43400728398E+02  0.00000000000E+00 0.  1.
         11    1    3    3    0    0 -0.57918994487E-01  0.45171849648E+01 -0.96369159931E+01  0.10643235633E+02  0.51100000000E-03 0. -1.
        -11    1    3    3    0    0 -0.46433599720E+01  0.35346449129E+00 -0.24854774150E+02  0.25287260177E+02  0.51100000000E-03 0.  1.
        -12    1    3    3    0    0  0.82899369156E+01  0.22748692767E+01 -0.81660913471E+01  0.11856775792E+02  0.00000000000E+00 0.  1.
</event>
<event>
 7    1  0.2598019E-009  0.4778727E+02  0.7816164E-02  0.1312668E+00
        -11   -1    0    0    0    0  0.00000000000E+00  0.00000000000E+00  0.45593999997E+02  0.45594000000E+02  0.51100000000E-03 0.  1.
         11   -1    0    0    0    0 -0.00000000000E+00 -0.00000000000E+00 -0.45593999997E+02  0.45594000000E+02  0.51100000000E-03 0. -1.
    9900012    2    1    2    0    0 -0.29664894044E+02  0.26363546345E+02 -0.17566462453E+02  0.47787272845E+02  0.20000008209E+02 0.  0.
        -12    1    1    2    0    0  0.29664894044E+02 -0.26363546345E+02  0.17566462453E+02  0.43400727155E+02  0.00000000000E+00 0.  1.
         11    1    3    3    0    0 -0.18466361466E+02  0.14110952982E+02 -0.26670524078E+01  0.23393132938E+02  0.51100000000E-03 0. -1.
        -11    1    3    3    0    0 -0.10355529549E+01  0.23464703744E+01  0.12848338214E+01  0.28686392855E+01  0.51100000000E-03 0.  1.
         12    1    3    3    0    0 -0.10162979623E+02  0.99061229879E+01 -0.16184243866E+02  0.21525500621E+02  0.00000000000E+00 0. -1.
</event>
<event>
 7    1  0.2598019E-009  0.4778727E+02  0.7816164E-02  0.1312668E+00
        -11   -1    0    0    0    0  0.00000000000E+00  0.00000000000E+00  0.45593999997E+02  0.45594000000E+02  0.51100000000E-03 0.  1.
         11   -1    0    0    0    0 -0.00000000000E+00 -0.00000000000E+00 -0.45593999997E+02  0.45594000000E+02  0.51100000000E-03 0. -1.
    9900012    2    1    2    0    0 -0.37220246157E+02 -0.10976464348E+02 -0.19436916877E+02  0.47787271536E+02  0.20000002240E+02 0.  0.
        -12    1    1    2    0    0  0.37220246157E+02  0.10976464348E+02  0.19436916877E+02  0.43400728464E+02  0.00000000000E+00 0.  1.
         11    1    3    3    0    0 -0.14995211555E+01 -0.14492738389E+01 -0.42685010767E+01  0.47506904823E+01  0.51100000000E-03 0. -1.
        -11    1    3    3    0    0 -0.27961421022E+02 -0.12719437416E+02 -0.15945325402E+02  0.34610382202E+02  0.51100000000E-03 0.  1.
        -12    1    3    3    0    0 -0.77593039788E+01  0.31922469063E+01  0.77690960157E+00  0.84261988509E+01  0.00000000000E+00 0.  1.
</event>
<event>
 7    1  0.2598019E-009  0.4778726E+02  0.7816164E-02  0.1312668E+00
        -11   -1    0    0    0    0  0.00000000000E+00  0.00000000000E+00  0.45593999997E+02  0.45594000000E+02  0.51100000000E-03 0.  1.
         11   -1    0    0    0    0 -0.00000000000E+00 -0.00000000000E+00 -0.45593999997E+02  0.45594000000E+02  0.51100000000E-03 0. -1.
    9900012    2    1    2    0    0 -0.21370630567E+02  0.15697496093E+01 -0.37741964061E+02  0.47787264801E+02  0.19999971533E+02 0.  0.
        -12    1    1    2    0    0  0.21370630567E+02 -0.15697496093E+01  0.37741964061E+02  0.43400735199E+02  0.00000000000E+00 0.  1.
         11    1    3    3    0    0 -0.13292521841E+02  0.48343652208E+01 -0.20765900727E+02  0.25125382728E+02  0.51100000000E-03 0. -1.
        -11    1    3    3    0    0 -0.17281579266E+01 -0.14070692410E+01  0.17293970263E+01  0.28208488091E+01  0.51100000000E-03 0.  1.
         12    1    3    3    0    0 -0.63499507998E+01 -0.18575463705E+01 -0.18705460360E+02  0.19841033263E+02  0.00000000000E+00 0. -1.
</event>
<event>
 7    1  0.2598019E-009  0.4778727E+02  0.7816164E-02  0.1312668E+00
        -11   -1    0    0    0    0  0.00000000000E+00  0.00000000000E+00  0.45593999997E+02  0.45594000000E+02  0.51100000000E-03 0. -1.
         11   -1    0    0    0    0 -0.00000000000E+00 -0.00000000000E+00 -0.45593999997E+02  0.45594000000E+02  0.51100000000E-03 0.  1.
    9900012    2    1    2    0    0  0.24640366984E+02  0.34599094830E+02  0.89094642184E+01  0.47787267278E+02  0.19999982826E+02 0.  0.
        -12    1    1    2    0    0 -0.24640366984E+02 -0.34599094830E+02 -0.89094642184E+01  0.43400732722E+02  0.00000000000E+00 0.  1.
         11    1    3    3    0    0  0.13804367778E+02  0.74392807622E+01  0.94374420420E+00  0.15709682409E+02  0.51100000000E-03 0. -1.
        -11    1    3    3    0    0  0.12085376716E+02  0.25748277302E+02  0.91168809423E+01  0.29868840499E+02  0.51100000000E-03 0.  1.
        -12    1    3    3    0    0 -0.12493775106E+01  0.14115367665E+01 -0.11511609281E+01  0.22087443694E+01  0.00000000000E+00 0.  1.
</event>
<event>
 7    1  0.2598019E-009  0.4778727E+02  0.7816164E-02  0.1312668E+00
        -11   -1    0    0    0    0  0.00000000000E+00  0.00000000000E+00  0.45593999997E+02  0.45594000000E+02  0.51100000000E-03 0.  1.
         11   -1    0    0    0    0 -0.00000000000E+00 -0.00000000000E+00 -0.45593999997E+02  0.45594000000E+02  0.51100000000E-03 0. -1.
    9900012    2    1    2    0    0 -0.30281485025E+02 -0.22994796077E+02 -0.20925928951E+02  0.47787268619E+02  0.19999988943E+02 0.  0.
        -12    1    1    2    0    0  0.30281485025E+02  0.22994796077E+02  0.20925928951E+02  0.43400731381E+02  0.00000000000E+00 0.  1.
         11    1    3    3    0    0 -0.46184807273E+01 -0.30252621352E+01 -0.60704797427E+01  0.82056870391E+01  0.51100000000E-03 0. -1.
        -11    1    3    3    0    0 -0.96667399220E+01 -0.40932813008E+01 -0.13365132555E+02  0.16994928096E+02  0.51100000000E-03 0.  1.
        -12    1    3    3    0    0 -0.15996264376E+02 -0.15876252641E+02 -0.14903166532E+01  0.22586653484E+02  0.00000000000E+00 0.  1.
</event>
<event>
 7    1  0.2598019E-009  0.4778727E+02  0.7816164E-02  0.1312668E+00
        -11   -1    0    0    0    0  0.00000000000E+00  0.00000000000E+00  0.45593999997E+02  0.45594000000E+02  0.51100000000E-03 0.  1.
         11   -1    0    0    0    0 -0.00000000000E+00 -0.00000000000E+00 -0.45593999997E+02  0.45594000000E+02  0.51100000000E-03 0. -1.
    9900012    2    1    2    0    0  0.25570805517E+02  0.35031868402E+02  0.15891518804E+01  0.47787270718E+02  0.19999998510E+02 0.  0.
        -12    1    1    2    0    0 -0.25570805517E+02 -0.35031868402E+02 -0.15891518804E+01  0.43400729282E+02  0.00000000000E+00 0.  1.
         11    1    3    3    0    0  0.24713373508E+02  0.34769656149E+02  0.56814752721E+01  0.43034392995E+02  0.51100000000E-03 0. -1.
        -11    1    3    3    0    0 -0.50778462961E+00  0.80157197155E+00 -0.15645348575E+01  0.18297902714E+01  0.51100000000E-03 0.  1.
         12    1    3    3    0    0  0.13652166388E+01 -0.53935971858E+00 -0.25277885342E+01  0.29230874517E+01  0.00000000000E+00 0. -1.
</event>
<event>
 7    1  0.2598019E-009  0.4778727E+02  0.7816164E-02  0.1312668E+00
        -11   -1    0    0    0    0  0.00000000000E+00  0.00000000000E+00  0.45593999997E+02  0.45594000000E+02  0.51100000000E-03 0.  1.
         11   -1    0    0    0    0 -0.00000000000E+00 -0.00000000000E+00 -0.45593999997E+02  0.45594000000E+02  0.51100000000E-03 0. -1.
    9900012    2    1    2    0    0  0.20756689746E+02 -0.17625542175E+02 -0.33795312403E+02  0.47787273663E+02  0.20000011937E+02 0.  0.
        -12    1    1    2    0    0 -0.20756689746E+02  0.17625542175E+02  0.33795312403E+02  0.43400726337E+02  0.00000000000E+00 0.  1.
         11    1    3    3    0    0  0.27747952466E+01 -0.12447886862E+02 -0.15311498186E+02  0.19927151149E+02  0.51100000000E-03 0. -1.
        -11    1    3    3    0    0  0.21068805129E+01  0.19866577438E+01 -0.72315940199E+00  0.29847469354E+01  0.51100000000E-03 0.  1.
         12    1    3    3    0    0  0.15875013986E+02 -0.71643130576E+01 -0.17760654816E+02  0.24875375578E+02  0.00000000000E+00 0. -1.
</event>
<event>
 7    1  0.2598019E-009  0.4778727E+02  0.7816164E-02  0.1312668E+00
        -11   -1    0    0    0    0  0.00000000000E+00  0.00000000000E+00  0.45593999997E+02  0.45594000000E+02  0.51100000000E-03 0.  1.
         11   -1    0    0    0    0 -0.00000000000E+00 -0.00000000000E+00 -0.45593999997E+02  0.45594000000E+02  0.51100000000E-03 0. -1.
    9900012    2    1    2    0    0 -0.16407413506E+02 -0.18302347918E+02 -0.35769318976E+02  0.47787270314E+02  0.19999996670E+02 0.  0.
        -12    1    1    2    0    0  0.16407413506E+02  0.18302347918E+02  0.35769318976E+02  0.43400729686E+02  0.00000000000E+00 0.  1.
         11    1    3    3    0    0  0.32605889990E+01 -0.55553574256E+01 -0.67405071349E+01  0.93235118622E+01  0.51100000000E-03 0. -1.
        -11    1    3    3    0    0 -0.41149319393E+01 -0.27504963551E+01 -0.12673769622E+01  0.51092210453E+01  0.51100000000E-03 0.  1.
         12    1    3    3    0    0 -0.15553070566E+02 -0.99964941369E+01 -0.27761434879E+02  0.33354537406E+02  0.00000000000E+00 0. -1.
</event>
<event>
 7    1  0.2598019E-009  0.4778727E+02  0.7816164E-02  0.1312668E+00
        -11   -1    0    0    0    0  0.00000000000E+00  0.00000000000E+00  0.45593999997E+02  0.45594000000E+02  0.51100000000E-03 0. -1.
         11   -1    0    0    0    0 -0.00000000000E+00 -0.00000000000E+00 -0.45593999997E+02  0.45594000000E+02  0.51100000000E-03 0.  1.
    9900012    2    1    2    0    0 -0.36532816941E+01  0.34608117199E+02  0.25933666004E+02  0.47787271025E+02  0.19999999909E+02 0.  0.
        -12    1    1    2    0    0  0.36532816941E+01 -0.34608117199E+02 -0.25933666004E+02  0.43400728975E+02  0.00000000000E+00 0.  1.
         11    1    3    3    0    0  0.16837978532E+01  0.86705028825E+01  0.17161144962E+02  0.19300717399E+02  0.51100000000E-03 0. -1.
        -11    1    3    3    0    0 -0.10324297945E+01  0.18328503009E+02  0.57707165347E+01  0.19243209280E+02  0.51100000000E-03 0.  1.
        -12    1    3    3    0    0 -0.43046497528E+01  0.76091113079E+01  0.30018045076E+01  0.92433443457E+01  0.00000000000E+00 0.  1.
</event>
<event>
 7    1  0.2598019E-009  0.4778727E+02  0.7816164E-02  0.1312668E+00
        -11   -1    0    0    0    0  0.00000000000E+00  0.00000000000E+00  0.45593999997E+02  0.45594000000E+02  0.51100000000E-03 0. -1.
         11   -1    0    0    0    0 -0.00000000000E+00 -0.00000000000E+00 -0.45593999997E+02  0.45594000000E+02  0.51100000000E-03 0.  1.
    9900012    2    1    2    0    0  0.27838923555E+02 -0.29991875408E+02  0.14460462843E+02  0.47787271425E+02  0.20000001735E+02 0.  0.
        -12    1    1    2    0    0 -0.27838923555E+02  0.29991875408E+02 -0.14460462843E+02  0.43400728575E+02  0.00000000000E+00 0.  1.
         11    1    3    3    0    0  0.24133976563E+02 -0.18980295810E+02  0.27076735281E+01  0.30822588308E+02  0.51100000000E-03 0. -1.
        -11    1    3    3    0    0  0.28427232799E+01 -0.99035904371E+01  0.82778407274E+01  0.13216838751E+02  0.51100000000E-03 0.  1.
         12    1    3    3    0    0  0.86222371195E+00 -0.11079891610E+01  0.34749485876E+01  0.37478443666E+01  0.00000000000E+00 0. -1.
</event>
<event>
 7    1  0.2598019E-009  0.4778727E+02  0.7816164E-02  0.1312668E+00
        -11   -1    0    0    0    0  0.00000000000E+00  0.00000000000E+00  0.45593999997E+02  0.45594000000E+02  0.51100000000E-03 0.  1.
         11   -1    0    0    0    0 -0.00000000000E+00 -0.00000000000E+00 -0.45593999997E+02  0.45594000000E+02  0.51100000000E-03 0. -1.
    9900012    2    1    2    0    0  0.32293058724E+02 -0.49343311182E+01 -0.28573310187E+02  0.47787270509E+02  0.19999997558E+02 0.  0.
        -12    1    1    2    0    0 -0.32293058724E+02  0.49343311182E+01  0.28573310187E+02  0.43400729491E+02  0.00000000000E+00 0.  1.
         11    1    3    3    0    0  0.10681733335E+02 -0.12860014810E+01 -0.14425289728E+02  0.17995616434E+02  0.51100000000E-03 0. -1.
        -11    1    3    3    0    0 -0.18011824851E+01  0.51345428328E+00  0.39968666367E+00  0.19151092230E+01  0.51100000000E-03 0.  1.
        -12    1    3    3    0    0  0.23412507875E+02 -0.41617839205E+01 -0.14547707123E+02  0.27876544852E+02  0.00000000000E+00 0.  1.
</event>
<event>
 7    1  0.2598019E-009  0.4778727E+02  0.7816164E-02  0.1312668E+00
        -11   -1    0    0    0    0  0.00000000000E+00  0.00000000000E+00  0.45593999997E+02  0.45594000000E+02  0.51100000000E-03 0.  1.
         11   -1    0    0    0    0 -0.00000000000E+00 -0.00000000000E+00 -0.45593999997E+02  0.45594000000E+02  0.51100000000E-03 0. -1.
    9900012    2    1    2    0    0 -0.31166892966E+02 -0.23291291202E+02 -0.19229239426E+02  0.47787272910E+02  0.20000008507E+02 0.  0.
        -12    1    1    2    0    0  0.31166892966E+02  0.23291291202E+02  0.19229239426E+02  0.43400727090E+02  0.00000000000E+00 0.  1.
         11    1    3    3    0    0 -0.13616859165E+02 -0.30916142071E+01 -0.11261991509E+02  0.17939046377E+02  0.51100000000E-03 0. -1.
        -11    1    3    3    0    0 -0.80626287434E+01 -0.31862730106E+01 -0.53652627232E+01  0.10195310800E+02  0.51100000000E-03 0.  1.
         12    1    3    3    0    0 -0.94874050575E+01 -0.17013403985E+02 -0.26019851942E+01  0.19652915733E+02  0.00000000000E+00 0. -1.
</event>
<event>
 7    1  0.2598019E-009  0.4778728E+02  0.7816164E-02  0.1312668E+00
        -11   -1    0    0    0    0  0.00000000000E+00  0.00000000000E+00  0.45593999997E+02  0.45594000000E+02  0.51100000000E-03 0.  1.
         11   -1    0    0    0    0 -0.00000000000E+00 -0.00000000000E+00 -0.45593999997E+02  0.45594000000E+02  0.51100000000E-03 0. -1.
    9900012    2    1    2    0    0 -0.74346722434E+01  0.41450540317E+02 -0.10497668342E+02  0.47787277834E+02  0.20000030956E+02 0.  0.
        -12    1    1    2    0    0  0.74346722434E+01 -0.41450540317E+02  0.10497668342E+02  0.43400722166E+02  0.00000000000E+00 0.  1.
         11    1    3    3    0    0 -0.47278322151E+01  0.72242273350E+01 -0.93386592539E+01  0.12718192284E+02  0.51100000000E-03 0. -1.
        -11    1    3    3    0    0 -0.30812338422E+01  0.20935089881E+02  0.24220852413E+01  0.21298790752E+02  0.51100000000E-03 0.  1.
        -12    1    3    3    0    0  0.37439381395E+00  0.13291223101E+02 -0.35810943292E+01  0.13770294798E+02  0.00000000000E+00 0.  1.
</event>
<event>
 7    1  0.2598019E-009  0.4778727E+02  0.7816164E-02  0.1312668E+00
        -11   -1    0    0    0    0  0.00000000000E+00  0.00000000000E+00  0.45593999997E+02  0.45594000000E+02  0.51100000000E-03 0.  1.
         11   -1    0    0    0    0 -0.00000000000E+00 -0.00000000000E+00 -0.45593999997E+02  0.45594000000E+02  0.51100000000E-03 0. -1.
    9900012    2    1    2    0    0  0.14543278855E+02  0.70516287048E+01 -0.40278910703E+02  0.47787273339E+02  0.20000010463E+02 0.  0.
        -12    1    1    2    0    0 -0.14543278855E+02 -0.70516287048E+01  0.40278910703E+02  0.43400726661E+02  0.00000000000E+00 0.  1.
         11    1    3    3    0    0  0.27371416974E+01 -0.76547228052E+00 -0.14462097539E+02  0.14738729862E+02  0.51100000000E-03 0. -1.
        -11    1    3    3    0    0  0.13781027459E+02  0.35729038605E+01 -0.24235155462E+02  0.28107385513E+02  0.51100000000E-03 0.  1.
        -12    1    3    3    0    0 -0.19748903013E+01  0.42441971248E+01 -0.15816577019E+01  0.49411579637E+01  0.00000000000E+00 0.  1.
</event>
<event>
 7    1  0.2598019E-009  0.4778727E+02  0.7816164E-02  0.1312668E+00
        -11   -1    0    0    0    0  0.00000000000E+00  0.00000000000E+00  0.45593999997E+02  0.45594000000E+02  0.51100000000E-03 0.  1.
         11   -1    0    0    0    0 -0.00000000000E+00 -0.00000000000E+00 -0.45593999997E+02  0.45594000000E+02  0.51100000000E-03 0. -1.
    9900012    2    1    2    0    0  0.21211623228E+01  0.59107367978E+01 -0.42943998676E+02  0.47787272341E+02  0.20000005910E+02 0.  0.
        -12    1    1    2    0    0 -0.21211623228E+01 -0.59107367978E+01  0.42943998676E+02  0.43400727659E+02  0.00000000000E+00 0.  1.
         11    1    3    3    0    0 -0.69369809598E+01  0.38501186493E+00 -0.58401600982E+01  0.90762001525E+01  0.51100000000E-03 0. -1.
        -11    1    3    3    0    0  0.57665019919E+01  0.29950753502E+01 -0.17380590410E+02  0.18555536771E+02  0.51100000000E-03 0.  1.
        -12    1    3    3    0    0  0.32916412907E+01  0.25306495826E+01 -0.19723248167E+02  0.20155535417E+02  0.00000000000E+00 0.  1.
</event>
<event>
 7    1  0.2598019E-009  0.4778727E+02  0.7816164E-02  0.1312668E+00
        -11   -1    0    0    0    0  0.00000000000E+00  0.00000000000E+00  0.45593999997E+02  0.45594000000E+02  0.51100000000E-03 0.  1.
         11   -1    0    0    0    0 -0.00000000000E+00 -0.00000000000E+00 -0.45593999997E+02  0.45594000000E+02  0.51100000000E-03 0. -1.
    9900012    2    1    2    0    0  0.31609457262E+01  0.31272843241E+02 -0.29927259602E+02  0.47787272247E+02  0.20000005481E+02 0.  0.
        -12    1    1    2    0    0 -0.31609457262E+01 -0.31272843241E+02  0.29927259602E+02  0.43400727753E+02  0.00000000000E+00 0.  1.
         11    1    3    3    0    0 -0.37239550707E+01  0.20379027706E+01 -0.12868401058E+01  0.44358591941E+01  0.51100000000E-03 0. -1.
        -11    1    3    3    0    0  0.23103121649E+01 -0.49605415541E+00 -0.30483343728E+01  0.38569359256E+01  0.51100000000E-03 0.  1.
         12    1    3    3    0    0  0.45745886320E+01  0.29730994626E+02 -0.25592085123E+02  0.39494477127E+02  0.00000000000E+00 0. -1.
</event>
<event>
 7    1  0.2598019E-009  0.4778727E+02  0.7816164E-02  0.1312668E+00
        -11   -1    0    0    0    0  0.00000000000E+00  0.00000000000E+00  0.45593999997E+02  0.45594000000E+02  0.51100000000E-03 0. -1.
         11   -1    0    0    0    0 -0.00000000000E+00 -0.00000000000E+00 -0.45593999997E+02  0.45594000000E+02  0.51100000000E-03 0.  1.
    9900012    2    1    2    0    0  0.25933639381E+02 -0.11455879328E+02  0.32860802833E+02  0.47787272062E+02  0.20000004639E+02 0.  0.
        -12    1    1    2    0    0 -0.25933639381E+02  0.11455879328E+02 -0.32860802833E+02  0.43400727938E+02  0.00000000000E+00 0.  1.
         11    1    3    3    0    0  0.98094934903E+01 -0.10449811094E+02  0.20826710236E+02  0.25281941657E+02  0.51100000000E-03 0. -1.
        -11    1    3    3    0    0  0.98898415553E+01  0.43363230193E+01  0.64988143211E+01  0.12603461872E+02  0.51100000000E-03 0.  1.
         12    1    3    3    0    0  0.62343043356E+01 -0.53423912530E+01  0.55352782755E+01  0.99018685326E+01  0.00000000000E+00 0. -1.
</event>
<event>
 7    1  0.2598019E-009  0.4778727E+02  0.7816164E-02  0.1312668E+00
        -11   -1    0    0    0    0  0.00000000000E+00  0.00000000000E+00  0.45593999997E+02  0.45594000000E+02  0.51100000000E-03 0.  1.
         11   -1    0    0    0    0 -0.00000000000E+00 -0.00000000000E+00 -0.45593999997E+02  0.45594000000E+02  0.51100000000E-03 0. -1.
    9900012    2    1    2    0    0 -0.12973136385E+02 -0.12348822838E+02 -0.39532613871E+02  0.47787271289E+02  0.20000001115E+02 0.  0.
        -12    1    1    2    0    0  0.12973136385E+02  0.12348822838E+02  0.39532613871E+02  0.43400728711E+02  0.00000000000E+00 0.  1.
         11    1    3    3    0    0 -0.82552628340E+01 -0.24012674593E+01 -0.12541482852E+02  0.15205401746E+02  0.51100000000E-03 0. -1.
        -11    1    3    3    0    0  0.50888901307E+01 -0.43814894901E+01 -0.75255679721E+01  0.10086051084E+02  0.51100000000E-03 0.  1.
        -12    1    3    3    0    0 -0.98067636813E+01 -0.55660658888E+01 -0.19465563047E+02  0.22495818459E+02  0.00000000000E+00 0.  1.
</event>
<event>
 7    1  0.2598019E-009  0.4778729E+02  0.7816164E-02  0.1312668E+00
        -11   -1    0    0    0    0  0.00000000000E+00  0.00000000000E+00  0.45593999997E+02  0.45594000000E+02  0.51100000000E-03 0. -1.
         11   -1    0    0    0    0 -0.00000000000E+00 -0.00000000000E+00 -0.45593999997E+02  0.45594000000E+02  0.51100000000E-03 0.  1.
    9900012    2    1    2    0    0  0.28519701605E+02 -0.13691242117E+02  0.29711924161E+02  0.47787286553E+02  0.20000070709E+02 0.  0.
        -12    1    1    2    0    0 -0.28519701605E+02  0.13691242117E+02 -0.29711924161E+02  0.43400713447E+02  0.00000000000E+00 0.  1.
         11    1    3    3    0    0  0.24943402100E+02 -0.14201673259E+02  0.28068572014E+02  0.40146052942E+02  0.51100000000E-03 0. -1.
        -11    1    3    3    0    0  0.17189139051E+01 -0.22913381291E+01 -0.13256338884E+01  0.31562954396E+01  0.51100000000E-03 0.  1.
         12    1    3    3    0    0  0.18573856003E+01  0.28017692713E+01  0.29689860354E+01  0.44849381708E+01  0.00000000000E+00 0. -1.
</event>
<event>
 7    1  0.2598019E-009  0.4778727E+02  0.7816164E-02  0.1312668E+00
        -11   -1    0    0    0    0  0.00000000000E+00  0.00000000000E+00  0.45593999997E+02  0.45594000000E+02  0.51100000000E-03 0.  1.
         11   -1    0    0    0    0 -0.00000000000E+00 -0.00000000000E+00 -0.45593999997E+02  0.45594000000E+02  0.51100000000E-03 0. -1.
    9900012    2    1    2    0    0  0.27072747077E+02  0.84830415562E+01 -0.32843989341E+02  0.47787271156E+02  0.20000000509E+02 0.  0.
        -12    1    1    2    0    0 -0.27072747077E+02 -0.84830415562E+01  0.32843989341E+02  0.43400728844E+02  0.00000000000E+00 0.  1.
         11    1    3    3    0    0  0.17036963196E+02  0.10665862345E+02 -0.29364313877E+02  0.35584851612E+02  0.51100000000E-03 0. -1.
        -11    1    3    3    0    0  0.88416125050E+01  0.23719858850E+00 -0.18071068813E+01  0.90275140765E+01  0.51100000000E-03 0.  1.
         12    1    3    3    0    0  0.11941713763E+01 -0.24200193778E+01 -0.16725685823E+01  0.31749054675E+01  0.00000000000E+00 0. -1.
</event>
<event>
 7    1  0.2598019E-009  0.4778727E+02  0.7816164E-02  0.1312668E+00
        -11   -1    0    0    0    0  0.00000000000E+00  0.00000000000E+00  0.45593999997E+02  0.45594000000E+02  0.51100000000E-03 0.  1.
         11   -1    0    0    0    0 -0.00000000000E+00 -0.00000000000E+00 -0.45593999997E+02  0.45594000000E+02  0.51100000000E-03 0. -1.
    9900012    2    1    2    0    0  0.45100713190E+01 -0.40790723990E+01 -0.42972593294E+02  0.47787270175E+02  0.19999996034E+02 0.  0.
        -12    1    1    2    0    0 -0.45100713190E+01  0.40790723990E+01  0.42972593294E+02  0.43400729825E+02  0.00000000000E+00 0.  1.
         11    1    3    3    0    0  0.19649763667E+01 -0.94315176520E+01 -0.12326999467E+02  0.15645113405E+02  0.51100000000E-03 0. -1.
        -11    1    3    3    0    0  0.37085789940E+01  0.50273547429E+01 -0.30223639696E+02  0.30862537981E+02  0.51100000000E-03 0.  1.
        -12    1    3    3    0    0 -0.11634840417E+01  0.32509051015E+00 -0.42195413079E+00  0.12796187884E+01  0.00000000000E+00 0.  1.
</event>
<event>
 7    1  0.2598019E-009  0.4778727E+02  0.7816164E-02  0.1312668E+00
        -11   -1    0    0    0    0  0.00000000000E+00  0.00000000000E+00  0.45593999997E+02  0.45594000000E+02  0.51100000000E-03 0.  1.
         11   -1    0    0    0    0 -0.00000000000E+00 -0.00000000000E+00 -0.45593999997E+02  0.45594000000E+02  0.51100000000E-03 0. -1.
    9900012    2    1    2    0    0  0.37704949654E+02  0.19869501590E+02  0.81953133942E+01  0.47787268629E+02  0.19999988988E+02 0.  0.
        -12    1    1    2    0    0 -0.37704949654E+02 -0.19869501590E+02 -0.81953133942E+01  0.43400731371E+02  0.00000000000E+00 0.  1.
         11    1    3    3    0    0  0.24314268719E+02  0.64798953192E+01  0.10559274645E+02  0.27288660428E+02  0.51100000000E-03 0. -1.
        -11    1    3    3    0    0  0.56591574794E+01  0.58646174168E+01 -0.47720437106E+01  0.94441623376E+01  0.51100000000E-03 0.  1.
         12    1    3    3    0    0  0.77315234562E+01  0.75249888543E+01  0.24080824597E+01  0.11054445863E+02  0.00000000000E+00 0. -1.
</event>
<event>
 7    1  0.2598019E-009  0.4778728E+02  0.7816164E-02  0.1312668E+00
        -11   -1    0    0    0    0  0.00000000000E+00  0.00000000000E+00  0.45593999997E+02  0.45594000000E+02  0.51100000000E-03 0.  1.
         11   -1    0    0    0    0 -0.00000000000E+00 -0.00000000000E+00 -0.45593999997E+02  0.45594000000E+02  0.51100000000E-03 0. -1.
    9900012    2    1    2    0    0  0.38365579991E+02 -0.14476699860E+02 -0.14217253371E+02  0.47787275809E+02  0.20000021722E+02 0.  0.
        -12    1    1    2    0    0 -0.38365579991E+02  0.14476699860E+02  0.14217253371E+02  0.43400724191E+02  0.00000000000E+00 0.  1.
         11    1    3    3    0    0  0.85830094551E+01 -0.33157718275E+01 -0.93850998529E+01  0.13143153869E+02  0.51100000000E-03 0. -1.
        -11    1    3    3    0    0  0.26644091205E+02 -0.13945179483E+02 -0.47656786408E+01  0.30448108646E+02  0.51100000000E-03 0.  1.
        -12    1    3    3    0    0  0.31384793311E+01  0.27842514500E+01 -0.66474877429E-01  0.41960132933E+01  0.00000000000E+00 0.  1.
</event>
<event>
 7    1  0.2598019E-009  0.4778727E+02  0.7816164E-02  0.1312668E+00
        -11   -1    0    0    0    0  0.00000000000E+00  0.00000000000E+00  0.45593999997E+02  0.45594000000E+02  0.51100000000E-03 0.  1.
         11   -1    0    0    0    0 -0.00000000000E+00 -0.00000000000E+00 -0.45593999997E+02  0.45594000000E+02  0.51100000000E-03 0. -1.
    9900012    2    1    2    0    0  0.36868894773E+02 -0.10712581113E+01 -0.22872699002E+02  0.47787270106E+02  0.19999995720E+02 0.  0.
        -12    1    1    2    0    0 -0.36868894773E+02  0.10712581113E+01  0.22872699002E+02  0.43400729894E+02  0.00000000000E+00 0.  1.
         11    1    3    3    0    0  0.16794564004E+02 -0.17190913725E+01 -0.78592935288E+01  0.18622060849E+02  0.51100000000E-03 0. -1.
        -11    1    3    3    0    0  0.14603871317E+01 -0.45920088798E+01 -0.22983519488E+00  0.48241165621E+01  0.51100000000E-03 0.  1.
        -12    1    3    3    0    0  0.18613943637E+02  0.52398421410E+01 -0.14783570279E+02  0.24341092695E+02  0.00000000000E+00 0.  1.
</event>
<event>
 7    1  0.2598019E-009  0.4778727E+02  0.7816164E-02  0.1312668E+00
        -11   -1    0    0    0    0  0.00000000000E+00  0.00000000000E+00  0.45593999997E+02  0.45594000000E+02  0.51100000000E-03 0. -1.
         11   -1    0    0    0    0 -0.00000000000E+00 -0.00000000000E+00 -0.45593999997E+02  0.45594000000E+02  0.51100000000E-03 0.  1.
    9900012    2    1    2    0    0 -0.34832519247E+02  0.24993779388E+02  0.67550138715E+01  0.47787267085E+02  0.19999981948E+02 0.  0.
        -12    1    1    2    0    0  0.34832519247E+02 -0.24993779388E+02 -0.67550138715E+01  0.43400732915E+02  0.00000000000E+00 0.  1.
         11    1    3    3    0    0 -0.13638561323E+02  0.14647377345E+02  0.95803418511E+01  0.22188712633E+02  0.51100000000E-03 0. -1.
        -11    1    3    3    0    0 -0.10830086628E+02  0.53950184712E+01 -0.62427588281E+01  0.13615029884E+02  0.51100000000E-03 0.  1.
        -12    1    3    3    0    0 -0.10363871295E+02  0.49513835718E+01  0.34174308486E+01  0.11983524569E+02  0.00000000000E+00 0.  1.
</event>
<event>
 7    1  0.2598019E-009  0.4778727E+02  0.7816164E-02  0.1312668E+00
        -11   -1    0    0    0    0  0.00000000000E+00  0.00000000000E+00  0.45593999997E+02  0.45594000000E+02  0.51100000000E-03 0.  1.
         11   -1    0    0    0    0 -0.00000000000E+00 -0.00000000000E+00 -0.45593999997E+02  0.45594000000E+02  0.51100000000E-03 0. -1.
    9900012    2    1    2    0    0  0.31603058985E+01 -0.32112338938E+02 -0.29024704859E+02  0.47787270310E+02  0.19999996653E+02 0.  0.
        -12    1    1    2    0    0 -0.31603058985E+01  0.32112338938E+02  0.29024704859E+02  0.43400729690E+02  0.00000000000E+00 0.  1.
         11    1    3    3    0    0  0.78687391879E+01 -0.21290834757E+02 -0.91235918937E+01  0.24463373242E+02  0.51100000000E-03 0. -1.
        -11    1    3    3    0    0 -0.42579605088E+01 -0.66641126865E+01 -0.11762361707E+02  0.14173700250E+02  0.51100000000E-03 0.  1.
         12    1    3    3    0    0 -0.45047278066E+00 -0.41573914937E+01 -0.81387512589E+01  0.91501968183E+01  0.00000000000E+00 0. -1.
</event>
<event>
 7    1  0.2598019E-009  0.4778727E+02  0.7816164E-02  0.1312668E+00
        -11   -1    0    0    0    0  0.00000000000E+00  0.00000000000E+00  0.45593999997E+02  0.45594000000E+02  0.51100000000E-03 0.  1.
         11   -1    0    0    0    0 -0.00000000000E+00 -0.00000000000E+00 -0.45593999997E+02  0.45594000000E+02  0.51100000000E-03 0. -1.
    9900012    2    1    2    0    0 -0.37862096719E+02 -0.18579405787E+02 -0.10241612578E+02  0.47787270564E+02  0.19999997811E+02 0.  0.
        -12    1    1    2    0    0  0.37862096719E+02  0.18579405787E+02  0.10241612578E+02  0.43400729436E+02  0.00000000000E+00 0.  1.
         11    1    3    3    0    0  0.11163269450E+01  0.10182637418E+01 -0.20530505663E+01  0.25491300055E+01  0.51100000000E-03 0. -1.
        -11    1    3    3    0    0 -0.14838839718E+01 -0.26581872599E+01  0.74897813620E+00  0.31350980304E+01  0.51100000000E-03 0.  1.
         12    1    3    3    0    0 -0.37494539692E+02 -0.16939482269E+02 -0.89375401477E+01  0.42103042529E+02  0.00000000000E+00 0. -1.
</event>
<event>
 7    1  0.2598019E-009  0.4778724E+02  0.7816164E-02  0.1312668E+00
        -11   -1    0    0    0    0  0.00000000000E+00  0.00000000000E+00  0.45593999997E+02  0.45594000000E+02  0.51100000000E-03 0. -1.
         11   -1    0    0    0    0 -0.00000000000E+00 -0.00000000000E+00 -0.45593999997E+02  0.45594000000E+02  0.51100000000E-03 0.  1.
    9900012    2    1    2    0    0 -0.44014747148E+01 -0.42313475305E+02  0.85920210792E+01  0.47787239658E+02  0.19999856895E+02 0.  0.
        -12    1    1    2    0    0  0.44014747148E+01  0.42313475305E+02 -0.85920210792E+01  0.43400760342E+02  0.00000000000E+00 0.  1.
         11    1    3    3    0    0 -0.22184507783E+01 -0.36145958217E+02  0.20166447675E+01  0.36270079621E+02  0.51100000000E-03 0. -1.
        -11    1    3    3    0    0  0.21116845357E+01 -0.31081317696E+01  0.44695632924E+01  0.58392371900E+01  0.51100000000E-03 0.  1.
         12    1    3    3    0    0 -0.42947084722E+01 -0.30593853181E+01  0.21058130193E+01  0.56779228471E+01  0.00000000000E+00 0. -1.
</event>
<event>
 7    1  0.2598019E-009  0.4778727E+02  0.7816164E-02  0.1312668E+00
        -11   -1    0    0    0    0  0.00000000000E+00  0.00000000000E+00  0.45593999997E+02  0.45594000000E+02  0.51100000000E-03 0.  1.
         11   -1    0    0    0    0 -0.00000000000E+00 -0.00000000000E+00 -0.45593999997E+02  0.45594000000E+02  0.51100000000E-03 0. -1.
    9900012    2    1    2    0    0 -0.17318291227E+02  0.10524500932E+01 -0.39781811507E+02  0.47787269718E+02  0.19999993953E+02 0.  0.
        -12    1    1    2    0    0  0.17318291227E+02 -0.10524500932E+01  0.39781811507E+02  0.43400730282E+02  0.00000000000E+00 0.  1.
         11    1    3    3    0    0 -0.13213691324E+01 -0.52068862998E+01 -0.14114467373E+02  0.15102180995E+02  0.51100000000E-03 0. -1.
        -11    1    3    3    0    0 -0.98728367866E+01  0.76708722318E+01 -0.22273540886E+02  0.25542627329E+02  0.51100000000E-03 0.  1.
        -12    1    3    3    0    0 -0.61240853077E+01 -0.14115358388E+01 -0.33938032484E+01  0.71424613943E+01  0.00000000000E+00 0.  1.
</event>
<event>
 7    1  0.2598019E-009  0.4778729E+02  0.7816164E-02  0.1312668E+00
        -11   -1    0    0    0    0  0.00000000000E+00  0.00000000000E+00  0.45593999997E+02  0.45594000000E+02  0.51100000000E-03 0.  1.
         11   -1    0    0    0    0 -0.00000000000E+00 -0.00000000000E+00 -0.45593999997E+02  0.45594000000E+02  0.51100000000E-03 0. -1.
    9900012    2    1    2    0    0 -0.13821386286E+02 -0.34290163638E+02 -0.22732704226E+02  0.47787287072E+02  0.20000073077E+02 0.  0.
        -12    1    1    2    0    0  0.13821386286E+02  0.34290163638E+02  0.22732704226E+02  0.43400712928E+02  0.00000000000E+00 0.  1.
         11    1    3    3    0    0 -0.10175247282E+02 -0.16521067654E+02 -0.17841248385E+02  0.26358897509E+02  0.51100000000E-03 0. -1.
        -11    1    3    3    0    0  0.14657247319E+01  0.65659993826E+00  0.25522005962E+00  0.16262256942E+01  0.51100000000E-03 0.  1.
         12    1    3    3    0    0 -0.51118637355E+01 -0.18425695922E+02 -0.51466759008E+01  0.19802163869E+02  0.00000000000E+00 0. -1.
</event>
<event>
 7    1  0.2598019E-009  0.4778727E+02  0.7816164E-02  0.1312668E+00
        -11   -1    0    0    0    0  0.00000000000E+00  0.00000000000E+00  0.45593999997E+02  0.45594000000E+02  0.51100000000E-03 0.  1.
         11   -1    0    0    0    0 -0.00000000000E+00 -0.00000000000E+00 -0.45593999997E+02  0.45594000000E+02  0.51100000000E-03 0. -1.
    9900012    2    1    2    0    0  0.38355957252E+02  0.86120111741E+01 -0.18392304692E+02  0.47787273450E+02  0.20000010969E+02 0.  0.
        -12    1    1    2    0    0 -0.38355957252E+02 -0.86120111741E+01  0.18392304692E+02  0.43400726550E+02  0.00000000000E+00 0.  1.
         11    1    3    3    0    0 -0.46166489501E+00 -0.16402400361E+01 -0.67848382120E+00  0.18340835335E+01  0.51100000000E-03 0. -1.
        -11    1    3    3    0    0  0.27247084055E+02  0.81847454881E+01 -0.18875635903E+02  0.34142104200E+02  0.51100000000E-03 0.  1.
        -12    1    3    3    0    0  0.11570538092E+02  0.20675057221E+01  0.11618150317E+01  0.11811085717E+02  0.00000000000E+00 0.  1.
</event>
<event>
 7    1  0.2598019E-009  0.4778727E+02  0.7816164E-02  0.1312668E+00
        -11   -1    0    0    0    0  0.00000000000E+00  0.00000000000E+00  0.45593999997E+02  0.45594000000E+02  0.51100000000E-03 0. -1.
         11   -1    0    0    0    0 -0.00000000000E+00 -0.00000000000E+00 -0.45593999997E+02  0.45594000000E+02  0.51100000000E-03 0.  1.
    9900012    2    1    2    0    0 -0.18848169539E+02  0.39088919346E+02 -0.65272213161E+00  0.47787272393E+02  0.20000006151E+02 0.  0.
        -12    1    1    2    0    0  0.18848169539E+02 -0.39088919346E+02  0.65272213161E+00  0.43400727607E+02  0.00000000000E+00 0.  1.
         11    1    3    3    0    0 -0.11174708441E+02  0.20998918888E+02  0.41837296069E+01  0.24152273120E+02  0.51100000000E-03 0. -1.
        -11    1    3    3    0    0  0.27200099640E+01  0.63466950042E+00 -0.21985005232E+00  0.28017126700E+01  0.51100000000E-03 0.  1.
        -12    1    3    3    0    0 -0.10393471062E+02  0.17455330957E+02 -0.46166016862E+01  0.20833286603E+02  0.00000000000E+00 0.  1.
</event>
<event>
 7    1  0.2598019E-009  0.4778727E+02  0.7816164E-02  0.1312668E+00
        -11   -1    0    0    0    0  0.00000000000E+00  0.00000000000E+00  0.45593999997E+02  0.45594000000E+02  0.51100000000E-03 0.  1.
         11   -1    0    0    0    0 -0.00000000000E+00 -0.00000000000E+00 -0.45593999997E+02  0.45594000000E+02  0.51100000000E-03 0. -1.
    9900012    2    1    2    0    0 -0.33588630945E+02  0.22763209263E+02 -0.15403355354E+02  0.47787272116E+02  0.20000004884E+02 0.  0.
        -12    1    1    2    0    0  0.33588630945E+02 -0.22763209263E+02  0.15403355354E+02  0.43400727884E+02  0.00000000000E+00 0.  1.
         11    1    3    3    0    0 -0.58437635109E+01 -0.82027930017E+00  0.95277916436E+00  0.59774759305E+01  0.51100000000E-03 0.  1.
        -11    1    3    3    0    0 -0.24319350299E+02  0.22417995155E+02 -0.10101214942E+02  0.34583693401E+02  0.51100000000E-03 0. -1.
        -12    1    3    3    0    0 -0.34255171356E+01  0.11654934085E+01 -0.62549195766E+01  0.72261027838E+01  0.00000000000E+00 0.  1.
</event>
<event>
 7    1  0.2598019E-009  0.4778725E+02  0.7816164E-02  0.1312668E+00
        -11   -1    0    0    0    0  0.00000000000E+00  0.00000000000E+00  0.45593999997E+02  0.45594000000E+02  0.51100000000E-03 0.  1.
         11   -1    0    0    0    0 -0.00000000000E+00 -0.00000000000E+00 -0.45593999997E+02  0.45594000000E+02  0.51100000000E-03 0. -1.
    9900012    2    1    2    0    0 -0.37088934473E+02 -0.21681578517E+02 -0.61599394134E+01  0.47787253913E+02  0.19999921890E+02 0.  0.
        -12    1    1    2    0    0  0.37088934473E+02  0.21681578517E+02  0.61599394134E+01  0.43400746087E+02  0.00000000000E+00 0.  1.
         11    1    3    3    0    0  0.14210263833E+01  0.73238274062E+00 -0.43666717068E-01  0.15992521703E+01  0.51100000000E-03 0. -1.
        -11    1    3    3    0    0 -0.38809514245E+01 -0.56705700750E+01 -0.32939989657E+01  0.76202085524E+01  0.51100000000E-03 0.  1.
         12    1    3    3    0    0 -0.34629009432E+02 -0.16743391183E+02 -0.28222737306E+01  0.38567793190E+02  0.00000000000E+00 0. -1.
</event>
<event>
 7    1  0.2598019E-009  0.4778727E+02  0.7816164E-02  0.1312668E+00
        -11   -1    0    0    0    0  0.00000000000E+00  0.00000000000E+00  0.45593999997E+02  0.45594000000E+02  0.51100000000E-03 0. -1.
         11   -1    0    0    0    0 -0.00000000000E+00 -0.00000000000E+00 -0.45593999997E+02  0.45594000000E+02  0.51100000000E-03 0.  1.
    9900012    2    1    2    0    0 -0.21469423093E+02 -0.37517363835E+02  0.38902954536E+01  0.47787272866E+02  0.20000008305E+02 0.  0.
        -12    1    1    2    0    0  0.21469423093E+02  0.37517363835E+02 -0.38902954536E+01  0.43400727134E+02  0.00000000000E+00 0.  1.
         11    1    3    3    0    0 -0.74211992371E+00 -0.75211654090E+01  0.13699222008E+01  0.76808435857E+01  0.51100000000E-03 0.  1.
        -11    1    3    3    0    0 -0.97894086422E+01 -0.21195210551E+02  0.85014483942E+01  0.24846410141E+02  0.51100000000E-03 0. -1.
        -12    1    3    3    0    0 -0.10937894527E+02 -0.88009878748E+01 -0.59810751415E+01  0.15260019139E+02  0.00000000000E+00 0.  1.
</event>
<event>
 7    1  0.2598019E-009  0.4778727E+02  0.7816164E-02  0.1312668E+00
        -11   -1    0    0    0    0  0.00000000000E+00  0.00000000000E+00  0.45593999997E+02  0.45594000000E+02  0.51100000000E-03 0.  1.
         11   -1    0    0    0    0 -0.00000000000E+00 -0.00000000000E+00 -0.45593999997E+02  0.45594000000E+02  0.51100000000E-03 0. -1.
    9900012    2    1    2    0    0 -0.66236946691E+01  0.40919069570E+02  0.12860006896E+02  0.47787270018E+02  0.19999995321E+02 0.  0.
        -12    1    1    2    0    0  0.66236946691E+01 -0.40919069570E+02 -0.12860006896E+02  0.43400729982E+02  0.00000000000E+00 0.  1.
         11    1    3    3    0    0 -0.18888658703E+01  0.14734149733E+01  0.15535373436E+01  0.28552135645E+01  0.51100000000E-03 0.  1.
        -11    1    3    3    0    0 -0.99084689635E+01  0.12662549649E+02  0.25273243561E+01  0.16275911325E+02  0.51100000000E-03 0. -1.
        -12    1    3    3    0    0  0.51736401647E+01  0.26783104948E+02  0.87791451967E+01  0.28656145128E+02  0.00000000000E+00 0.  1.
</event>
<event>
 7    1  0.2598019E-009  0.4778728E+02  0.7816164E-02  0.1312668E+00
        -11   -1    0    0    0    0  0.00000000000E+00  0.00000000000E+00  0.45593999997E+02  0.45594000000E+02  0.51100000000E-03 0.  1.
         11   -1    0    0    0    0 -0.00000000000E+00 -0.00000000000E+00 -0.45593999997E+02  0.45594000000E+02  0.51100000000E-03 0. -1.
    9900012    2    1    2    0    0  0.14340693565E+02 -0.34918343142E+02 -0.21416736664E+02  0.47787276630E+02  0.20000025467E+02 0.  0.
        -12    1    1    2    0    0 -0.14340693565E+02  0.34918343142E+02  0.21416736664E+02  0.43400723370E+02  0.00000000000E+00 0.  1.
         11    1    3    3    0    0  0.12345253394E+02 -0.12836263877E+02 -0.13494296079E+02  0.22344372415E+02  0.51100000000E-03 0. -1.
        -11    1    3    3    0    0  0.86176345009E+00 -0.22691164133E+02 -0.81696441790E+01  0.24132439831E+02  0.51100000000E-03 0.  1.
        -12    1    3    3    0    0  0.11336767211E+01  0.60908486800E+00  0.24720359403E+00  0.13104643838E+01  0.00000000000E+00 0.  1.
</event>
<event>
 7    1  0.2598019E-009  0.4778726E+02  0.7816164E-02  0.1312668E+00
        -11   -1    0    0    0    0  0.00000000000E+00  0.00000000000E+00  0.45593999997E+02  0.45594000000E+02  0.51100000000E-03 0. -1.
         11   -1    0    0    0    0 -0.00000000000E+00 -0.00000000000E+00 -0.45593999997E+02  0.45594000000E+02  0.51100000000E-03 0.  1.
    9900012    2    1    2    0    0 -0.76300167607E+01  0.32756437367E+02  0.27430321346E+02  0.47787264132E+02  0.19999968483E+02 0.  0.
        -12    1    1    2    0    0  0.76300167607E+01 -0.32756437367E+02 -0.27430321346E+02  0.43400735868E+02  0.00000000000E+00 0.  1.
         11    1    3    3    0    0 -0.10253131288E+02  0.12295576010E+02  0.87291764541E+01  0.18234758360E+02  0.51100000000E-03 0. -1.
        -11    1    3    3    0    0  0.80925287347E+00  0.98961778490E+01  0.15423710334E+02  0.18343393005E+02  0.51100000000E-03 0.  1.
         12    1    3    3    0    0  0.18138616539E+01  0.10564683508E+02  0.32774345583E+01  0.11209112766E+02  0.00000000000E+00 0. -1.
</event>
<event>
 7    1  0.2598019E-009  0.4778727E+02  0.7816164E-02  0.1312668E+00
        -11   -1    0    0    0    0  0.00000000000E+00  0.00000000000E+00  0.45593999997E+02  0.45594000000E+02  0.51100000000E-03 0.  1.
         11   -1    0    0    0    0 -0.00000000000E+00 -0.00000000000E+00 -0.45593999997E+02  0.45594000000E+02  0.51100000000E-03 0. -1.
    9900012    2    1    2    0    0 -0.33468123476E+02  0.12623506476E+02 -0.24579563507E+02  0.47787272507E+02  0.20000006669E+02 0.  0.
        -12    1    1    2    0    0  0.33468123476E+02 -0.12623506476E+02  0.24579563507E+02  0.43400727493E+02  0.00000000000E+00 0.  1.
         11    1    3    3    0    0 -0.18244850629E+02  0.69878148370E+00 -0.20361853747E+02  0.27349002876E+02  0.51100000000E-03 0. -1.
        -11    1    3    3    0    0 -0.68530990622E+01  0.68714269482E+01  0.20572605896E+00  0.97068943815E+01  0.51100000000E-03 0.  1.
         12    1    3    3    0    0 -0.83701737847E+01  0.50532980437E+01 -0.44234358182E+01  0.10731375249E+02  0.00000000000E+00 0. -1.
</event>
<event>
 7    1  0.2598019E-009  0.4778727E+02  0.7816164E-02  0.1312668E+00
        -11   -1    0    0    0    0  0.00000000000E+00  0.00000000000E+00  0.45593999997E+02  0.45594000000E+02  0.51100000000E-03 0.  1.
         11   -1    0    0    0    0 -0.00000000000E+00 -0.00000000000E+00 -0.45593999997E+02  0.45594000000E+02  0.51100000000E-03 0. -1.
    9900012    2    1    2    0    0  0.25072907409E+02 -0.33324931546E+02 -0.12017567764E+02  0.47787266326E+02  0.19999978486E+02 0.  0.
        -12    1    1    2    0    0 -0.25072907409E+02  0.33324931546E+02  0.12017567764E+02  0.43400733674E+02  0.00000000000E+00 0.  1.
         11    1    3    3    0    0 -0.14390825063E+01 -0.56258621381E+01 -0.31690390682E+01  0.66154434571E+01  0.51100000000E-03 0.  1.
        -11    1    3    3    0    0  0.15507012448E+02 -0.78348200862E+01 -0.22195633821E+01  0.17515087859E+02  0.51100000000E-03 0. -1.
         12    1    3    3    0    0  0.11004977467E+02 -0.19864249322E+02 -0.66289653142E+01  0.23656735009E+02  0.00000000000E+00 0. -1.
</event>
<event>
 7    1  0.2598019E-009  0.4778727E+02  0.7816164E-02  0.1312668E+00
        -11   -1    0    0    0    0  0.00000000000E+00  0.00000000000E+00  0.45593999997E+02  0.45594000000E+02  0.51100000000E-03 0. -1.
         11   -1    0    0    0    0 -0.00000000000E+00 -0.00000000000E+00 -0.45593999997E+02  0.45594000000E+02  0.51100000000E-03 0.  1.
    9900012    2    1    2    0    0  0.38557861614E+02  0.84781279238E+01  0.18028745620E+02  0.47787274038E+02  0.20000013651E+02 0.  0.
        -12    1    1    2    0    0 -0.38557861614E+02 -0.84781279238E+01 -0.18028745620E+02  0.43400725962E+02  0.00000000000E+00 0.  1.
         11    1    3    3    0    0  0.50744372808E+00 -0.11325302575E+01  0.56301357423E+01  0.57652886015E+01  0.51100000000E-03 0. -1.
        -11    1    3    3    0    0  0.10647355059E+02  0.65750168132E+01  0.27564027388E+01  0.12813850794E+02  0.51100000000E-03 0.  1.
         12    1    3    3    0    0  0.27403062827E+02  0.30356413681E+01  0.96422071394E+01  0.29208134643E+02  0.00000000000E+00 0. -1.
</event>
<event>
 7    1  0.2598019E-009  0.4778727E+02  0.7816164E-02  0.1312668E+00
        -11   -1    0    0    0    0  0.00000000000E+00  0.00000000000E+00  0.45593999997E+02  0.45594000000E+02  0.51100000000E-03 0. -1.
         11   -1    0    0    0    0 -0.00000000000E+00 -0.00000000000E+00 -0.45593999997E+02  0.45594000000E+02  0.51100000000E-03 0.  1.
    9900012    2    1    2    0    0  0.32361560934E+02  0.24109312525E+02  0.15971655291E+02  0.47787270177E+02  0.19999996043E+02 0.  0.
        -12    1    1    2    0    0 -0.32361560934E+02 -0.24109312525E+02 -0.15971655291E+02  0.43400729823E+02  0.00000000000E+00 0.  1.
         11    1    3    3    0    0  0.18911815157E+02  0.13691861328E+02  0.14827991491E+02  0.27658509560E+02  0.51100000000E-03 0. -1.
        -11    1    3    3    0    0  0.14427291902E+02  0.11317333678E+02 -0.58966969772E-01  0.18336637385E+02  0.51100000000E-03 0.  1.
        -12    1    3    3    0    0 -0.97754612582E+00 -0.89988248152E+00  0.12026307699E+01  0.17921232317E+01  0.00000000000E+00 0.  1.
</event>
<event>
 7    1  0.2598019E-009  0.4778727E+02  0.7816164E-02  0.1312668E+00
        -11   -1    0    0    0    0  0.00000000000E+00  0.00000000000E+00  0.45593999997E+02  0.45594000000E+02  0.51100000000E-03 0.  1.
         11   -1    0    0    0    0 -0.00000000000E+00 -0.00000000000E+00 -0.45593999997E+02  0.45594000000E+02  0.51100000000E-03 0. -1.
    9900012    2    1    2    0    0 -0.37150452085E+02  0.43112967148E+01 -0.22019989234E+02  0.47787270798E+02  0.19999998875E+02 0.  0.
        -12    1    1    2    0    0  0.37150452085E+02 -0.43112967148E+01  0.22019989234E+02  0.43400729202E+02  0.00000000000E+00 0.  1.
         11    1    3    3    0    0 -0.21905813426E+02  0.13709638082E+01 -0.19956706129E+02  0.29665035368E+02  0.51100000000E-03 0.  1.
        -11    1    3    3    0    0 -0.11622379749E+02  0.11031408210E+01 -0.54026955356E+01  0.12864126477E+02  0.51100000000E-03 0. -1.
         12    1    3    3    0    0 -0.36222589096E+01  0.18371920856E+01  0.33394124313E+01  0.52581089523E+01  0.00000000000E+00 0. -1.
</event>
<event>
 7    1  0.2598019E-009  0.4778726E+02  0.7816164E-02  0.1312668E+00
        -11   -1    0    0    0    0  0.00000000000E+00  0.00000000000E+00  0.45593999997E+02  0.45594000000E+02  0.51100000000E-03 0. -1.
         11   -1    0    0    0    0 -0.00000000000E+00 -0.00000000000E+00 -0.45593999997E+02  0.45594000000E+02  0.51100000000E-03 0.  1.
    9900012    2    1    2    0    0  0.28987309917E+02 -0.30149575114E+02  0.11591511970E+02  0.47787260772E+02  0.19999953165E+02 0.  0.
        -12    1    1    2    0    0 -0.28987309917E+02  0.30149575114E+02 -0.11591511970E+02  0.43400739228E+02  0.00000000000E+00 0.  1.
         11    1    3    3    0    0  0.16796939204E+02 -0.28994391478E+02  0.78173863108E+01  0.34408188456E+02  0.51100000000E-03 0. -1.
        -11    1    3    3    0    0  0.86653921889E+01 -0.11607184527E+01  0.44181645961E+01  0.97957372246E+01  0.51100000000E-03 0.  1.
        -12    1    3    3    0    0  0.35249785239E+01  0.55348168919E-02 -0.64403893731E+00  0.35833350919E+01  0.00000000000E+00 0.  1.
</event>
<event>
 7    1  0.2598019E-009  0.4778728E+02  0.7816164E-02  0.1312668E+00
        -11   -1    0    0    0    0  0.00000000000E+00  0.00000000000E+00  0.45593999997E+02  0.45594000000E+02  0.51100000000E-03 0.  1.
         11   -1    0    0    0    0 -0.00000000000E+00 -0.00000000000E+00 -0.45593999997E+02  0.45594000000E+02  0.51100000000E-03 0. -1.
    9900012    2    1    2    0    0  0.22153794160E+02 -0.17185220682E+02 -0.33128544901E+02  0.47787275435E+02  0.20000020017E+02 0.  0.
        -12    1    1    2    0    0 -0.22153794160E+02  0.17185220682E+02  0.33128544901E+02  0.43400724565E+02  0.00000000000E+00 0.  1.
         11    1    3    3    0    0  0.24861974328E+01  0.26706191377E+01 -0.89396398313E+01  0.96555965548E+01  0.51100000000E-03 0. -1.
        -11    1    3    3    0    0 -0.63966295128E+00 -0.15102113096E+00  0.28839587604E+00  0.71773847303E+00  0.51100000000E-03 0.  1.
         12    1    3    3    0    0  0.20307259678E+02 -0.19704818689E+02 -0.24477300945E+02  0.37413940407E+02  0.00000000000E+00 0. -1.
</event>
<event>
 7    1  0.2598019E-009  0.4778727E+02  0.7816164E-02  0.1312668E+00
        -11   -1    0    0    0    0  0.00000000000E+00  0.00000000000E+00  0.45593999997E+02  0.45594000000E+02  0.51100000000E-03 0.  1.
         11   -1    0    0    0    0 -0.00000000000E+00 -0.00000000000E+00 -0.45593999997E+02  0.45594000000E+02  0.51100000000E-03 0. -1.
    9900012    2    1    2    0    0 -0.15152800759E+02  0.32460409821E+02 -0.24501792975E+02  0.47787269182E+02  0.19999991508E+02 0.  0.
        -12    1    1    2    0    0  0.15152800759E+02 -0.32460409821E+02  0.24501792975E+02  0.43400730818E+02  0.00000000000E+00 0.  1.
         11    1    3    3    0    0 -0.90970502288E+01  0.21228062278E+02 -0.17301380575E+02  0.28856970059E+02  0.51100000000E-03 0. -1.
        -11    1    3    3    0    0  0.21272863531E+01  0.37806413744E+01  0.17687220630E+01  0.46847598046E+01  0.51100000000E-03 0.  1.
         12    1    3    3    0    0 -0.81830368834E+01  0.74517061681E+01 -0.89691344630E+01  0.14245539318E+02  0.00000000000E+00 0. -1.
</event>
<event>
 7    1  0.2598019E-009  0.4778725E+02  0.7816164E-02  0.1312668E+00
        -11   -1    0    0    0    0  0.00000000000E+00  0.00000000000E+00  0.45593999997E+02  0.45594000000E+02  0.51100000000E-03 0. -1.
         11   -1    0    0    0    0 -0.00000000000E+00 -0.00000000000E+00 -0.45593999997E+02  0.45594000000E+02  0.51100000000E-03 0.  1.
    9900012    2    1    2    0    0  0.29061181024E+02 -0.51830080541E+01  0.31815237377E+02  0.47787249495E+02  0.19999901749E+02 0.  0.
        -12    1    1    2    0    0 -0.29061181024E+02  0.51830080541E+01 -0.31815237377E+02  0.43400750505E+02  0.00000000000E+00 0.  1.
         11    1    3    3    0    0  0.13935803432E+02 -0.47428740481E+00  0.14523604021E+02  0.20133718977E+02  0.51100000000E-03 0. -1.
        -11    1    3    3    0    0 -0.20109788620E-01  0.39393693363E+01  0.47537869958E+01  0.61739392801E+01  0.51100000000E-03 0.  1.
        -12    1    3    3    0    0  0.15145487381E+02 -0.86480899856E+01  0.12537846361E+02  0.21479591238E+02  0.00000000000E+00 0.  1.
</event>
<event>
 7    1  0.2598019E-009  0.4778726E+02  0.7816164E-02  0.1312668E+00
        -11   -1    0    0    0    0  0.00000000000E+00  0.00000000000E+00  0.45593999997E+02  0.45594000000E+02  0.51100000000E-03 0.  1.
         11   -1    0    0    0    0 -0.00000000000E+00 -0.00000000000E+00 -0.45593999997E+02  0.45594000000E+02  0.51100000000E-03 0. -1.
    9900012    2    1    2    0    0  0.82921399193E+01 -0.95465389107E+01 -0.41517801511E+02  0.47787264616E+02  0.19999970688E+02 0.  0.
        -12    1    1    2    0    0 -0.82921399193E+01  0.95465389107E+01  0.41517801511E+02  0.43400735384E+02  0.00000000000E+00 0.  1.
         11    1    3    3    0    0  0.80098451507E+01 -0.12431496184E+01 -0.32189805205E+02  0.33194677280E+02  0.51100000000E-03 0. -1.
        -11    1    3    3    0    0  0.13950485578E+01 -0.74886070081E+01 -0.31173124902E+01  0.82306155798E+01  0.51100000000E-03 0.  1.
        -12    1    3    3    0    0 -0.11127537892E+01 -0.81478228417E+00 -0.62106838154E+01  0.63619717558E+01  0.00000000000E+00 0.  1.
</event>
<event>
 7    1  0.2598019E-009  0.4778727E+02  0.7816164E-02  0.1312668E+00
        -11   -1    0    0    0    0  0.00000000000E+00  0.00000000000E+00  0.45593999997E+02  0.45594000000E+02  0.51100000000E-03 0.  1.
         11   -1    0    0    0    0 -0.00000000000E+00 -0.00000000000E+00 -0.45593999997E+02  0.45594000000E+02  0.51100000000E-03 0. -1.
    9900012    2    1    2    0    0  0.73969942746E+01  0.33630242023E+02 -0.26418071506E+02  0.47787271838E+02  0.20000003620E+02 0.  0.
        -12    1    1    2    0    0 -0.73969942746E+01 -0.33630242023E+02  0.26418071506E+02  0.43400728162E+02  0.00000000000E+00 0.  1.
         11    1    3    3    0    0  0.53406258595E+00  0.23496841500E+02 -0.12348321350E+02  0.26549346955E+02  0.51100000000E-03 0. -1.
        -11    1    3    3    0    0  0.50631794577E+01  0.19081976978E+01 -0.72529287973E+00  0.54592174070E+01  0.51100000000E-03 0.  1.
         12    1    3    3    0    0  0.17997522309E+01  0.82252028259E+01 -0.13344457277E+02  0.15778707476E+02  0.00000000000E+00 0. -1.
</event>
<event>
 7    1  0.2598019E-009  0.4778723E+02  0.7816164E-02  0.1312668E+00
        -11   -1    0    0    0    0  0.00000000000E+00  0.00000000000E+00  0.45593999997E+02  0.45594000000E+02  0.51100000000E-03 0.  1.
         11   -1    0    0    0    0 -0.00000000000E+00 -0.00000000000E+00 -0.45593999997E+02  0.45594000000E+02  0.51100000000E-03 0. -1.
    9900012    2    1    2    0    0 -0.10974933669E+02  0.89916787744E+01 -0.41016180488E+02  0.47787233669E+02  0.19999829592E+02 0.  0.
        -12    1    1    2    0    0  0.10974933669E+02 -0.89916787744E+01  0.41016180488E+02  0.43400766331E+02  0.00000000000E+00 0.  1.
         11    1    3    3    0    0  0.60160469707E+00 -0.25540759200E+01 -0.68311628097E+01  0.73177877539E+01  0.51100000000E-03 0. -1.
        -11    1    3    3    0    0 -0.11410901344E+02  0.14187000734E+02 -0.25107107242E+02  0.31013650118E+02  0.51100000000E-03 0.  1.
        -12    1    3    3    0    0 -0.16563702208E+00 -0.26412460400E+01 -0.90779104367E+01  0.94557957975E+01  0.00000000000E+00 0.  1.
</event>
<event>
 7    1  0.2598019E-009  0.4778727E+02  0.7816164E-02  0.1312668E+00
        -11   -1    0    0    0    0  0.00000000000E+00  0.00000000000E+00  0.45593999997E+02  0.45594000000E+02  0.51100000000E-03 0.  1.
         11   -1    0    0    0    0 -0.00000000000E+00 -0.00000000000E+00 -0.45593999997E+02  0.45594000000E+02  0.51100000000E-03 0. -1.
    9900012    2    1    2    0    0 -0.20228756688E+02  0.22151858780E+02 -0.31364247940E+02  0.47787268515E+02  0.19999988469E+02 0.  0.
        -12    1    1    2    0    0  0.20228756688E+02 -0.22151858780E+02  0.31364247940E+02  0.43400731485E+02  0.00000000000E+00 0.  1.
         11    1    3    3    0    0 -0.53839398248E+01  0.15872718820E+02 -0.73029560221E+01  0.18282865686E+02  0.51100000000E-03 0. -1.
        -11    1    3    3    0    0 -0.12673576338E+02  0.71392119789E+01 -0.22085469782E+02  0.26445337219E+02  0.51100000000E-03 0.  1.
        -12    1    3    3    0    0 -0.21712405251E+01 -0.86007201871E+00 -0.19758221359E+01  0.30590656103E+01  0.00000000000E+00 0.  1.
</event>
<event>
 7    1  0.2598019E-009  0.4778727E+02  0.7816164E-02  0.1312668E+00
        -11   -1    0    0    0    0  0.00000000000E+00  0.00000000000E+00  0.45593999997E+02  0.45594000000E+02  0.51100000000E-03 0.  1.
         11   -1    0    0    0    0 -0.00000000000E+00 -0.00000000000E+00 -0.45593999997E+02  0.45594000000E+02  0.51100000000E-03 0. -1.
    9900012    2    1    2    0    0 -0.23626701993E+02 -0.66083515363E+01 -0.35801282088E+02  0.47787272400E+02  0.20000006180E+02 0.  0.
        -12    1    1    2    0    0  0.23626701993E+02  0.66083515363E+01  0.35801282088E+02  0.43400727600E+02  0.00000000000E+00 0.  1.
         11    1    3    3    0    0 -0.10469589686E+02 -0.92673176738E+01 -0.19773016322E+02  0.24217094371E+02  0.51100000000E-03 0. -1.
        -11    1    3    3    0    0 -0.13359039862E+02  0.45860505116E+01 -0.10183554673E+02  0.17412656069E+02  0.51100000000E-03 0.  1.
        -12    1    3    3    0    0  0.20192755551E+00 -0.19270843742E+01 -0.58447110932E+01  0.61575219599E+01  0.00000000000E+00 0.  1.
</event>
<event>
 7    1  0.2598019E-009  0.4778726E+02  0.7816164E-02  0.1312668E+00
        -11   -1    0    0    0    0  0.00000000000E+00  0.00000000000E+00  0.45593999997E+02  0.45594000000E+02  0.51100000000E-03 0.  1.
         11   -1    0    0    0    0 -0.00000000000E+00 -0.00000000000E+00 -0.45593999997E+02  0.45594000000E+02  0.51100000000E-03 0. -1.
    9900012    2    1    2    0    0 -0.27598617571E+02 -0.32116642119E+02 -0.95111238907E+01  0.47787264171E+02  0.19999968662E+02 0.  0.
        -12    1    1    2    0    0  0.27598617571E+02  0.32116642119E+02  0.95111238907E+01  0.43400735829E+02  0.00000000000E+00 0.  1.
         11    1    3    3    0    0 -0.16702607133E+02 -0.96013578153E+01 -0.91780391444E+01  0.21340092777E+02  0.51100000000E-03 0. -1.
        -11    1    3    3    0    0 -0.34901265486E+01 -0.16594439268E+02 -0.48014651194E+00  0.16964284214E+02  0.51100000000E-03 0.  1.
        -12    1    3    3    0    0 -0.74058838889E+01 -0.59208450355E+01  0.14706176559E+00  0.94828871803E+01  0.00000000000E+00 0.  1.
</event>
<event>
 7    1  0.2598019E-009  0.4778727E+02  0.7816164E-02  0.1312668E+00
        -11   -1    0    0    0    0  0.00000000000E+00  0.00000000000E+00  0.45593999997E+02  0.45594000000E+02  0.51100000000E-03 0.  1.
         11   -1    0    0    0    0 -0.00000000000E+00 -0.00000000000E+00 -0.45593999997E+02  0.45594000000E+02  0.51100000000E-03 0. -1.
    9900012    2    1    2    0    0  0.37157083260E+02  0.11360975281E+02  0.19336559183E+02  0.47787272854E+02  0.20000008251E+02 0.  0.
        -12    1    1    2    0    0 -0.37157083260E+02 -0.11360975281E+02 -0.19336559183E+02  0.43400727146E+02  0.00000000000E+00 0.  1.
         11    1    3    3    0    0  0.66375367876E+01  0.85200303080E+01  0.32261249988E+01  0.11271898413E+02  0.51100000000E-03 0. -1.
        -11    1    3    3    0    0  0.25156636625E+02  0.28032095782E+01  0.17740374169E+02  0.30910115272E+02  0.51100000000E-03 0.  1.
        -12    1    3    3    0    0  0.53629098478E+01  0.37735395170E-01 -0.16299399853E+01  0.56052591690E+01  0.00000000000E+00 0.  1.
</event>
<event>
 7    1  0.2598019E-009  0.4778728E+02  0.7816164E-02  0.1312668E+00
        -11   -1    0    0    0    0  0.00000000000E+00  0.00000000000E+00  0.45593999997E+02  0.45594000000E+02  0.51100000000E-03 0.  1.
         11   -1    0    0    0    0 -0.00000000000E+00 -0.00000000000E+00 -0.45593999997E+02  0.45594000000E+02  0.51100000000E-03 0. -1.
    9900012    2    1    2    0    0  0.23143277721E+01 -0.26505627578E+02 -0.34288746673E+02  0.47787279329E+02  0.20000037773E+02 0.  0.
        -12    1    1    2    0    0 -0.23143277721E+01  0.26505627578E+02  0.34288746673E+02  0.43400720671E+02  0.00000000000E+00 0.  1.
         11    1    3    3    0    0 -0.57580931579E+01 -0.11449907415E+02 -0.13693674071E+02  0.18755605201E+02  0.51100000000E-03 0. -1.
        -11    1    3    3    0    0  0.53712531800E+01 -0.78113328180E+01 -0.32161875238E+01  0.10010551611E+02  0.51100000000E-03 0.  1.
        -12    1    3    3    0    0  0.27011677500E+01 -0.72443873449E+01 -0.17378885079E+02  0.19021122517E+02  0.00000000000E+00 0.  1.
</event>
<event>
 7    1  0.2598019E-009  0.4778727E+02  0.7816164E-02  0.1312668E+00
        -11   -1    0    0    0    0  0.00000000000E+00  0.00000000000E+00  0.45593999997E+02  0.45594000000E+02  0.51100000000E-03 0. -1.
         11   -1    0    0    0    0 -0.00000000000E+00 -0.00000000000E+00 -0.45593999997E+02  0.45594000000E+02  0.51100000000E-03 0.  1.
    9900012    2    1    2    0    0  0.23276626617E+02  0.84244062415E+01  0.35649002070E+02  0.47787270562E+02  0.19999997800E+02 0.  0.
        -12    1    1    2    0    0 -0.23276626617E+02 -0.84244062415E+01 -0.35649002070E+02  0.43400729438E+02  0.00000000000E+00 0.  1.
         11    1    3    3    0    0  0.54202227078E+01  0.42314483315E+01  0.29499892138E+00  0.68826589199E+01  0.51100000000E-03 0. -1.
        -11    1    3    3    0    0  0.40139973501E+01 -0.25824273797E+01  0.53201501614E+01  0.71473844096E+01  0.51100000000E-03 0.  1.
         12    1    3    3    0    0  0.13842406560E+02  0.67753852898E+01  0.30033852987E+02  0.33757227232E+02  0.00000000000E+00 0. -1.
</event>
<event>
 7    1  0.2598019E-009  0.4778729E+02  0.7816164E-02  0.1312668E+00
        -11   -1    0    0    0    0  0.00000000000E+00  0.00000000000E+00  0.45593999997E+02  0.45594000000E+02  0.51100000000E-03 0. -1.
         11   -1    0    0    0    0 -0.00000000000E+00 -0.00000000000E+00 -0.45593999997E+02  0.45594000000E+02  0.51100000000E-03 0.  1.
    9900012    2    1    2    0    0  0.38590463132E+02  0.85883759957E+01 -0.17906360621E+02  0.47787288051E+02  0.20000077541E+02 0.  0.
        -12    1    1    2    0    0 -0.38590463132E+02 -0.85883759957E+01  0.17906360621E+02  0.43400711949E+02  0.00000000000E+00 0.  1.
         11    1    3    3    0    0  0.24265659621E+02  0.50831545107E+00 -0.24710441368E+01  0.24396448119E+02  0.51100000000E-03 0. -1.
        -11    1    3    3    0    0  0.12143918194E+02  0.90815130226E+01 -0.13032655851E+02  0.19994968034E+02  0.51100000000E-03 0.  1.
        -12    1    3    3    0    0  0.21808853163E+01 -0.10014524780E+01 -0.24026606340E+01  0.33958718985E+01  0.00000000000E+00 0.  1.
</event>
<event>
 7    1  0.2598019E-009  0.4778726E+02  0.7816164E-02  0.1312668E+00
        -11   -1    0    0    0    0  0.00000000000E+00  0.00000000000E+00  0.45593999997E+02  0.45594000000E+02  0.51100000000E-03 0.  1.
         11   -1    0    0    0    0 -0.00000000000E+00 -0.00000000000E+00 -0.45593999997E+02  0.45594000000E+02  0.51100000000E-03 0. -1.
    9900012    2    1    2    0    0 -0.13063475622E+02  0.37763680723E+02 -0.16937352813E+02  0.47787263861E+02  0.19999967248E+02 0.  0.
        -12    1    1    2    0    0  0.13063475622E+02 -0.37763680723E+02  0.16937352813E+02  0.43400736139E+02  0.00000000000E+00 0.  1.
         11    1    3    3    0    0 -0.23504209886E+01  0.12887776025E+02 -0.11566441921E+02  0.17475749731E+02  0.51100000000E-03 0. -1.
        -11    1    3    3    0    0 -0.17466569436E+01  0.18903640348E+01  0.32773999903E+01  0.41672098123E+01  0.51100000000E-03 0.  1.
        -12    1    3    3    0    0 -0.89663976900E+01  0.22985540663E+02 -0.86483108821E+01  0.26144304317E+02  0.00000000000E+00 0.  1.
</event>
<event>
 7    1  0.2598019E-009  0.4778727E+02  0.7816164E-02  0.1312668E+00
        -11   -1    0    0    0    0  0.00000000000E+00  0.00000000000E+00  0.45593999997E+02  0.45594000000E+02  0.51100000000E-03 0.  1.
         11   -1    0    0    0    0 -0.00000000000E+00 -0.00000000000E+00 -0.45593999997E+02  0.45594000000E+02  0.51100000000E-03 0. -1.
    9900012    2    1    2    0    0 -0.30220234715E+02  0.24921934832E+02 -0.18688442716E+02  0.47787270592E+02  0.19999997936E+02 0.  0.
        -12    1    1    2    0    0  0.30220234715E+02 -0.24921934832E+02  0.18688442716E+02  0.43400729408E+02  0.00000000000E+00 0.  1.
         11    1    3    3    0    0 -0.16871681278E+02  0.19780248843E+02 -0.20739077686E+02  0.33256897284E+02  0.51100000000E-03 0. -1.
        -11    1    3    3    0    0 -0.10131174850E+02  0.31923981795E+01  0.15850968951E+01  0.10739862309E+02  0.51100000000E-03 0.  1.
         12    1    3    3    0    0 -0.32173785864E+01  0.19492878102E+01  0.46553807483E+00  0.37905109991E+01  0.00000000000E+00 0. -1.
</event>
<event>
 7    1  0.2598019E-009  0.4778727E+02  0.7816164E-02  0.1312668E+00
        -11   -1    0    0    0    0  0.00000000000E+00  0.00000000000E+00  0.45593999997E+02  0.45594000000E+02  0.51100000000E-03 0.  1.
         11   -1    0    0    0    0 -0.00000000000E+00 -0.00000000000E+00 -0.45593999997E+02  0.45594000000E+02  0.51100000000E-03 0. -1.
    9900012    2    1    2    0    0 -0.20066292088E+02  0.84741718399E+01 -0.37538717140E+02  0.47787274763E+02  0.20000016955E+02 0.  0.
        -12    1    1    2    0    0  0.20066292088E+02 -0.84741718399E+01  0.37538717140E+02  0.43400725237E+02  0.00000000000E+00 0.  1.
         11    1    3    3    0    0 -0.19224884136E+02  0.83913542000E+01 -0.19286358347E+02  0.28495168255E+02  0.51100000000E-03 0.  1.
        -11    1    3    3    0    0  0.77451691713E+00 -0.27375553872E+01 -0.64350674074E+01  0.70359206044E+01  0.51100000000E-03 0. -1.
         12    1    3    3    0    0 -0.16159248696E+01  0.28203730271E+01 -0.11817291386E+02  0.12256185903E+02  0.00000000000E+00 0. -1.
</event>
<event>
 7    1  0.2598019E-009  0.4778727E+02  0.7816164E-02  0.1312668E+00
        -11   -1    0    0    0    0  0.00000000000E+00  0.00000000000E+00  0.45593999997E+02  0.45594000000E+02  0.51100000000E-03 0.  1.
         11   -1    0    0    0    0 -0.00000000000E+00 -0.00000000000E+00 -0.45593999997E+02  0.45594000000E+02  0.51100000000E-03 0. -1.
    9900012    2    1    2    0    0 -0.57881287211E+01 -0.24483002157E+01 -0.42943296437E+02  0.47787270548E+02  0.19999997738E+02 0.  0.
        -12    1    1    2    0    0  0.57881287211E+01  0.24483002157E+01  0.42943296437E+02  0.43400729452E+02  0.00000000000E+00 0.  1.
         11    1    3    3    0    0  0.12940840064E+01 -0.15622204142E+01 -0.23025610585E+02  0.23114798920E+02  0.51100000000E-03 0. -1.
        -11    1    3    3    0    0 -0.22742080860E+01  0.38178692702E+01 -0.94572798380E+00  0.45434072967E+01  0.51100000000E-03 0.  1.
        -12    1    3    3    0    0 -0.48080046415E+01 -0.47039490717E+01 -0.18971957869E+02  0.20129064332E+02  0.00000000000E+00 0.  1.
</event>
<event>
 7    1  0.2598019E-009  0.4778727E+02  0.7816164E-02  0.1312668E+00
        -11   -1    0    0    0    0  0.00000000000E+00  0.00000000000E+00  0.45593999997E+02  0.45594000000E+02  0.51100000000E-03 0. -1.
         11   -1    0    0    0    0 -0.00000000000E+00 -0.00000000000E+00 -0.45593999997E+02  0.45594000000E+02  0.51100000000E-03 0.  1.
    9900012    2    1    2    0    0 -0.31086895135E+02 -0.28912640490E+02  0.90159496945E+01  0.47787272147E+02  0.20000005029E+02 0.  0.
        -12    1    1    2    0    0  0.31086895135E+02  0.28912640490E+02 -0.90159496945E+01  0.43400727853E+02  0.00000000000E+00 0.  1.
         11    1    3    3    0    0 -0.17821057655E+02 -0.12723843193E+02  0.46562030760E+01  0.22386748511E+02  0.51100000000E-03 0. -1.
        -11    1    3    3    0    0  0.19341735246E+01 -0.63510970346E+01 -0.48787734951E+00  0.66569877073E+01  0.51100000000E-03 0.  1.
        -12    1    3    3    0    0 -0.15200011005E+02 -0.98377002624E+01  0.48476239680E+01  0.18743535930E+02  0.00000000000E+00 0.  1.
</event>
<event>
 7    1  0.2598019E-009  0.4778727E+02  0.7816164E-02  0.1312668E+00
        -11   -1    0    0    0    0  0.00000000000E+00  0.00000000000E+00  0.45593999997E+02  0.45594000000E+02  0.51100000000E-03 0. -1.
         11   -1    0    0    0    0 -0.00000000000E+00 -0.00000000000E+00 -0.45593999997E+02  0.45594000000E+02  0.51100000000E-03 0.  1.
    9900012    2    1    2    0    0  0.90447271322E+01 -0.40512910071E+02 -0.12669657734E+02  0.47787271913E+02  0.20000003962E+02 0.  0.
        -12    1    1    2    0    0 -0.90447271322E+01  0.40512910071E+02  0.12669657734E+02  0.43400728087E+02  0.00000000000E+00 0.  1.
         11    1    3    3    0    0 -0.10334107321E+00 -0.34672040998E+01  0.35803888581E+01  0.49851146710E+01  0.51100000000E-03 0. -1.
        -11    1    3    3    0    0  0.94010206187E+01 -0.21334548103E+02 -0.13213957045E+02  0.26798335629E+02  0.51100000000E-03 0.  1.
        -12    1    3    3    0    0 -0.25295241328E+00 -0.15711157869E+02 -0.30360895471E+01  0.16003821614E+02  0.00000000000E+00 0.  1.
</event>
<event>
 7    1  0.2598019E-009  0.4778727E+02  0.7816164E-02  0.1312668E+00
        -11   -1    0    0    0    0  0.00000000000E+00  0.00000000000E+00  0.45593999997E+02  0.45594000000E+02  0.51100000000E-03 0.  1.
         11   -1    0    0    0    0 -0.00000000000E+00 -0.00000000000E+00 -0.45593999997E+02  0.45594000000E+02  0.51100000000E-03 0. -1.
    9900012    2    1    2    0    0 -0.99894859097E+01  0.13791884661E+02 -0.39920143632E+02  0.47787265227E+02  0.19999973475E+02 0.  0.
        -12    1    1    2    0    0  0.99894859097E+01 -0.13791884661E+02  0.39920143632E+02  0.43400734773E+02  0.00000000000E+00 0.  1.
         11    1    3    3    0    0 -0.35229251062E+01  0.49568537649E+01 -0.11593431539E+02  0.13091564294E+02  0.51100000000E-03 0. -1.
        -11    1    3    3    0    0 -0.53640006325E+01  0.74549787638E+01 -0.35347921509E+01  0.98409332365E+01  0.51100000000E-03 0.  1.
        -12    1    3    3    0    0 -0.11025601711E+01  0.13800521319E+01 -0.24791919943E+02  0.24854767697E+02  0.00000000000E+00 0.  1.
</event>
<event>
 7    1  0.2598019E-009  0.4778727E+02  0.7816164E-02  0.1312668E+00
        -11   -1    0    0    0    0  0.00000000000E+00  0.00000000000E+00  0.45593999997E+02  0.45594000000E+02  0.51100000000E-03 0.  1.
         11   -1    0    0    0    0 -0.00000000000E+00 -0.00000000000E+00 -0.45593999997E+02  0.45594000000E+02  0.51100000000E-03 0. -1.
    9900012    2    1    2    0    0  0.22638312119E+02  0.33327128216E+02  0.16137933533E+02  0.47787267870E+02  0.19999985525E+02 0.  0.
        -12    1    1    2    0    0 -0.22638312119E+02 -0.33327128216E+02 -0.16137933533E+02  0.43400732130E+02  0.00000000000E+00 0.  1.
         11    1    3    3    0    0  0.34574529014E+01  0.46000847048E+01  0.14219815057E+01  0.59276295026E+01  0.51100000000E-03 0. -1.
        -11    1    3    3    0    0  0.17904984041E+02  0.31401941311E+02  0.12883056307E+02  0.38375037612E+02  0.51100000000E-03 0.  1.
        -12    1    3    3    0    0  0.12758751761E+01 -0.26748977995E+01  0.18328957200E+01  0.34846007552E+01  0.00000000000E+00 0.  1.
</event>
<event>
 7    1  0.2598019E-009  0.4778727E+02  0.7816164E-02  0.1312668E+00
        -11   -1    0    0    0    0  0.00000000000E+00  0.00000000000E+00  0.45593999997E+02  0.45594000000E+02  0.51100000000E-03 0.  1.
         11   -1    0    0    0    0 -0.00000000000E+00 -0.00000000000E+00 -0.45593999997E+02  0.45594000000E+02  0.51100000000E-03 0. -1.
    9900012    2    1    2    0    0 -0.20344694528E+02  0.34407812248E+02 -0.16906183274E+02  0.47787272217E+02  0.20000005348E+02 0.  0.
        -12    1    1    2    0    0  0.20344694528E+02 -0.34407812248E+02  0.16906183274E+02  0.43400727783E+02  0.00000000000E+00 0.  1.
         11    1    3    3    0    0 -0.13969787346E+02  0.21183782637E+02 -0.13738292902E+02  0.28855645850E+02  0.51100000000E-03 0. -1.
        -11    1    3    3    0    0  0.24585857364E+01 -0.19561396017E+00 -0.12085942817E+01  0.27465631330E+01  0.51100000000E-03 0.  1.
        -12    1    3    3    0    0 -0.88334929183E+01  0.13419643571E+02 -0.19592960909E+01  0.16185063234E+02  0.00000000000E+00 0.  1.
</event>
<event>
 7    1  0.2598019E-009  0.4778727E+02  0.7816164E-02  0.1312668E+00
        -11   -1    0    0    0    0  0.00000000000E+00  0.00000000000E+00  0.45593999997E+02  0.45594000000E+02  0.51100000000E-03 0.  1.
         11   -1    0    0    0    0 -0.00000000000E+00 -0.00000000000E+00 -0.45593999997E+02  0.45594000000E+02  0.51100000000E-03 0. -1.
    9900012    2    1    2    0    0 -0.41377012749E+02 -0.12917859109E+02  0.21667840044E+01  0.47787271655E+02  0.20000002782E+02 0.  0.
        -12    1    1    2    0    0  0.41377012749E+02  0.12917859109E+02 -0.21667840044E+01  0.43400728345E+02  0.00000000000E+00 0.  1.
         11    1    3    3    0    0 -0.37184016161E+02 -0.93669789499E+01  0.74019281380E+00  0.38352825687E+02  0.51100000000E-03 0. -1.
        -11    1    3    3    0    0  0.15397697514E+01  0.55672692373E-01 -0.14128163133E+01  0.20904641906E+01  0.51100000000E-03 0.  1.
        -12    1    3    3    0    0 -0.57327663396E+01 -0.36065528511E+01  0.28394075039E+01  0.73439817773E+01  0.00000000000E+00 0.  1.
</event>
<event>
 7    1  0.2598019E-009  0.4778727E+02  0.7816164E-02  0.1312668E+00
        -11   -1    0    0    0    0  0.00000000000E+00  0.00000000000E+00  0.45593999997E+02  0.45594000000E+02  0.51100000000E-03 0.  1.
         11   -1    0    0    0    0 -0.00000000000E+00 -0.00000000000E+00 -0.45593999997E+02  0.45594000000E+02  0.51100000000E-03 0. -1.
    9900012    2    1    2    0    0  0.20847899822E+01  0.40414224416E+02 -0.15683341585E+02  0.47787273190E+02  0.20000009782E+02 0.  0.
        -12    1    1    2    0    0 -0.20847899822E+01 -0.40414224416E+02  0.15683341585E+02  0.43400726810E+02  0.00000000000E+00 0.  1.
         11    1    3    3    0    0  0.24130383553E+01  0.11800274415E+02 -0.52795222945E+01  0.13150763716E+02  0.51100000000E-03 0. -1.
        -11    1    3    3    0    0  0.75933807091E+01  0.90331037532E+01 -0.23610999087E+01  0.12034582961E+02  0.51100000000E-03 0.  1.
        -12    1    3    3    0    0 -0.79216290822E+01  0.19580846247E+02 -0.80427193814E+01  0.22601926513E+02  0.00000000000E+00 0.  1.
</event>
<event>
 7    1  0.2598019E-009  0.4778727E+02  0.7816164E-02  0.1312668E+00
        -11   -1    0    0    0    0  0.00000000000E+00  0.00000000000E+00  0.45593999997E+02  0.45594000000E+02  0.51100000000E-03 0.  1.
         11   -1    0    0    0    0 -0.00000000000E+00 -0.00000000000E+00 -0.45593999997E+02  0.45594000000E+02  0.51100000000E-03 0. -1.
    9900012    2    1    2    0    0  0.29531242716E+02 -0.15317717441E+02 -0.27872867822E+02  0.47787268156E+02  0.19999986831E+02 0.  0.
        -12    1    1    2    0    0 -0.29531242716E+02  0.15317717441E+02  0.27872867822E+02  0.43400731844E+02  0.00000000000E+00 0.  1.
         11    1    3    3    0    0  0.20322057565E+02 -0.65089226231E+01 -0.22395254358E+02  0.30933792451E+02  0.51100000000E-03 0. -1.
        -11    1    3    3    0    0  0.89810905281E+01 -0.59273692956E+01 -0.11485068166E+00  0.10761360731E+02  0.51100000000E-03 0.  1.
        -12    1    3    3    0    0  0.22809462336E+00 -0.28814255222E+01 -0.53627627826E+01  0.60921149743E+01  0.00000000000E+00 0.  1.
</event>
<event>
 7    1  0.2598019E-009  0.4778728E+02  0.7816164E-02  0.1312668E+00
        -11   -1    0    0    0    0  0.00000000000E+00  0.00000000000E+00  0.45593999997E+02  0.45594000000E+02  0.51100000000E-03 0.  1.
         11   -1    0    0    0    0 -0.00000000000E+00 -0.00000000000E+00 -0.45593999997E+02  0.45594000000E+02  0.51100000000E-03 0. -1.
    9900012    2    1    2    0    0  0.14214692661E+02  0.25421518938E+02 -0.32176260449E+02  0.47787275939E+02  0.20000022318E+02 0.  0.
        -12    1    1    2    0    0 -0.14214692661E+02 -0.25421518938E+02  0.32176260449E+02  0.43400724061E+02  0.00000000000E+00 0.  1.
         11    1    3    3    0    0  0.13957392766E+02  0.69083907445E+01 -0.18852471976E+02  0.24453023849E+02  0.51100000000E-03 0. -1.
        -11    1    3    3    0    0 -0.22388946287E+01  0.83347316098E+01 -0.68251597908E+01  0.11002872652E+02  0.51100000000E-03 0.  1.
         12    1    3    3    0    0  0.24961945237E+01  0.10178396583E+02 -0.64986286820E+01  0.12331379438E+02  0.00000000000E+00 0. -1.
</event>
<event>
 7    1  0.2598019E-009  0.4778727E+02  0.7816164E-02  0.1312668E+00
        -11   -1    0    0    0    0  0.00000000000E+00  0.00000000000E+00  0.45593999997E+02  0.45594000000E+02  0.51100000000E-03 0.  1.
         11   -1    0    0    0    0 -0.00000000000E+00 -0.00000000000E+00 -0.45593999997E+02  0.45594000000E+02  0.51100000000E-03 0. -1.
    9900012    2    1    2    0    0 -0.39971547769E+02  0.46379774656E+01  0.16259999944E+02  0.47787273460E+02  0.20000011011E+02 0.  0.
        -12    1    1    2    0    0  0.39971547769E+02 -0.46379774656E+01 -0.16259999944E+02  0.43400726540E+02  0.00000000000E+00 0.  1.
         11    1    3    3    0    0 -0.77027843406E+00  0.62769451765E+00 -0.17526564147E+01  0.20147292727E+01  0.51100000000E-03 0. -1.
        -11    1    3    3    0    0 -0.39450964324E+02  0.14307580735E+01  0.16648843702E+02  0.42844015353E+02  0.51100000000E-03 0.  1.
        -12    1    3    3    0    0  0.24969498827E+00  0.25795248744E+01  0.13638126571E+01  0.29285288335E+01  0.00000000000E+00 0.  1.
</event>
<event>
 7    1  0.2598019E-009  0.4778727E+02  0.7816164E-02  0.1312668E+00
        -11   -1    0    0    0    0  0.00000000000E+00  0.00000000000E+00  0.45593999997E+02  0.45594000000E+02  0.51100000000E-03 0.  1.
         11   -1    0    0    0    0 -0.00000000000E+00 -0.00000000000E+00 -0.45593999997E+02  0.45594000000E+02  0.51100000000E-03 0. -1.
    9900012    2    1    2    0    0 -0.29130330043E+02 -0.27309774795E+02 -0.17006564803E+02  0.47787272193E+02  0.20000005236E+02 0.  0.
        -12    1    1    2    0    0  0.29130330043E+02  0.27309774795E+02  0.17006564803E+02  0.43400727807E+02  0.00000000000E+00 0.  1.
         11    1    3    3    0    0 -0.68337554398E+01 -0.20695626500E+01 -0.78437072415E+00  0.71832124197E+01  0.51100000000E-03 0. -1.
        -11    1    3    3    0    0 -0.23368179466E+02 -0.19288684833E+02 -0.16591306742E+02  0.34545573288E+02  0.51100000000E-03 0.  1.
        -12    1    3    3    0    0  0.10716048624E+01 -0.59515273125E+01  0.36911266366E+00  0.60584864852E+01  0.00000000000E+00 0.  1.
</event>
<event>
 7    1  0.2598019E-009  0.4778727E+02  0.7816164E-02  0.1312668E+00
        -11   -1    0    0    0    0  0.00000000000E+00  0.00000000000E+00  0.45593999997E+02  0.45594000000E+02  0.51100000000E-03 0. -1.
         11   -1    0    0    0    0 -0.00000000000E+00 -0.00000000000E+00 -0.45593999997E+02  0.45594000000E+02  0.51100000000E-03 0.  1.
    9900012    2    1    2    0    0  0.30291015785E+02 -0.18072175802E+02 -0.25287819643E+02  0.47787274225E+02  0.20000014500E+02 0.  0.
        -12    1    1    2    0    0 -0.30291015785E+02  0.18072175802E+02  0.25287819643E+02  0.43400725775E+02  0.00000000000E+00 0.  1.
         11    1    3    3    0    0  0.12452218487E+02 -0.13932190562E+02 -0.17653065520E+02  0.25705921528E+02  0.51100000000E-03 0. -1.
        -11    1    3    3    0    0  0.18001701192E+02 -0.53269817424E+01 -0.53816058917E+01  0.19529456278E+02  0.51100000000E-03 0.  1.
        -12    1    3    3    0    0 -0.16290389431E+00  0.11869965021E+01 -0.22531482319E+01  0.25518964183E+01  0.00000000000E+00 0.  1.
</event>
<event>
 7    1  0.2598019E-009  0.4778727E+02  0.7816164E-02  0.1312668E+00
        -11   -1    0    0    0    0  0.00000000000E+00  0.00000000000E+00  0.45593999997E+02  0.45594000000E+02  0.51100000000E-03 0.  1.
         11   -1    0    0    0    0 -0.00000000000E+00 -0.00000000000E+00 -0.45593999997E+02  0.45594000000E+02  0.51100000000E-03 0. -1.
    9900012    2    1    2    0    0  0.34012556572E+02  0.11707859768E+00 -0.26958404848E+02  0.47787270699E+02  0.19999998423E+02 0.  0.
        -12    1    1    2    0    0 -0.34012556572E+02 -0.11707859768E+00  0.26958404848E+02  0.43400729301E+02  0.00000000000E+00 0.  1.
         11    1    3    3    0    0 -0.51389534041E+00  0.18792009245E+01  0.41374867177E+00  0.19916507626E+01  0.51100000000E-03 0. -1.
        -11    1    3    3    0    0  0.10343304688E+02  0.45678549126E+01 -0.54723508568E+01  0.12561682791E+02  0.51100000000E-03 0.  1.
         12    1    3    3    0    0  0.24183147224E+02 -0.63299772394E+01 -0.21899802663E+02  0.33233937146E+02  0.00000000000E+00 0. -1.
</event>
<event>
 7    1  0.2598019E-009  0.4778725E+02  0.7816164E-02  0.1312668E+00
        -11   -1    0    0    0    0  0.00000000000E+00  0.00000000000E+00  0.45593999997E+02  0.45594000000E+02  0.51100000000E-03 0.  1.
         11   -1    0    0    0    0 -0.00000000000E+00 -0.00000000000E+00 -0.45593999997E+02  0.45594000000E+02  0.51100000000E-03 0. -1.
    9900012    2    1    2    0    0 -0.13001871621E+02 -0.10535875124E+02 -0.40044625033E+02  0.47787247423E+02  0.19999892299E+02 0.  0.
        -12    1    1    2    0    0  0.13001871621E+02  0.10535875124E+02  0.40044625033E+02  0.43400752577E+02  0.00000000000E+00 0.  1.
         11    1    3    3    0    0 -0.11739633384E+02 -0.12684384839E+02 -0.26041366623E+02  0.31254845810E+02  0.51100000000E-03 0. -1.
        -11    1    3    3    0    0  0.22951128449E+01  0.22692567098E+01 -0.12044896373E+02  0.12469827500E+02  0.51100000000E-03 0.  1.
        -12    1    3    3    0    0 -0.35573510819E+01 -0.12074699398E+00 -0.19583620372E+01  0.40625741132E+01  0.00000000000E+00 0.  1.
</event>
<event>
 7    1  0.2598019E-009  0.4778727E+02  0.7816164E-02  0.1312668E+00
        -11   -1    0    0    0    0  0.00000000000E+00  0.00000000000E+00  0.45593999997E+02  0.45594000000E+02  0.51100000000E-03 0.  1.
         11   -1    0    0    0    0 -0.00000000000E+00 -0.00000000000E+00 -0.45593999997E+02  0.45594000000E+02  0.51100000000E-03 0. -1.
    9900012    2    1    2    0    0  0.61518750930E+01  0.45360324976E+01 -0.42722384347E+02  0.47787270948E+02  0.19999999560E+02 0.  0.
        -12    1    1    2    0    0 -0.61518750930E+01 -0.45360324976E+01  0.42722384347E+02  0.43400729052E+02  0.00000000000E+00 0.  1.
         11    1    3    3    0    0  0.41700962501E+00  0.53658806733E+01 -0.87414498343E+01  0.10265452640E+02  0.51100000000E-03 0.  1.
        -11    1    3    3    0    0  0.22853447042E+01  0.42203270970E+01 -0.29630091819E+02  0.30016267301E+02  0.51100000000E-03 0. -1.
        -12    1    3    3    0    0  0.34495207638E+01 -0.50501752727E+01 -0.43508426937E+01  0.75055510078E+01  0.00000000000E+00 0.  1.
</event>
<event>
 7    1  0.2598019E-009  0.4778725E+02  0.7816164E-02  0.1312668E+00
        -11   -1    0    0    0    0  0.00000000000E+00  0.00000000000E+00  0.45593999997E+02  0.45594000000E+02  0.51100000000E-03 0.  1.
         11   -1    0    0    0    0 -0.00000000000E+00 -0.00000000000E+00 -0.45593999997E+02  0.45594000000E+02  0.51100000000E-03 0. -1.
    9900012    2    1    2    0    0  0.38574654805E+02 -0.14092804550E+02 -0.14036180680E+02  0.47787245381E+02  0.19999882990E+02 0.  0.
        -12    1    1    2    0    0 -0.38574654805E+02  0.14092804550E+02  0.14036180680E+02  0.43400754619E+02  0.00000000000E+00 0.  1.
         11    1    3    3    0    0  0.26844959054E+02 -0.18369861632E+01 -0.64232111594E+01  0.27663766675E+02  0.51100000000E-03 0. -1.
        -11    1    3    3    0    0  0.10386018414E+01 -0.62645088144E+01 -0.21331682866E+01  0.66987440368E+01  0.51100000000E-03 0.  1.
         12    1    3    3    0    0  0.10691093910E+02 -0.59913095724E+01 -0.54798012338E+01  0.13424734669E+02  0.00000000000E+00 0. -1.
</event>
<event>
 7    1  0.2598019E-009  0.4778727E+02  0.7816164E-02  0.1312668E+00
        -11   -1    0    0    0    0  0.00000000000E+00  0.00000000000E+00  0.45593999997E+02  0.45594000000E+02  0.51100000000E-03 0.  1.
         11   -1    0    0    0    0 -0.00000000000E+00 -0.00000000000E+00 -0.45593999997E+02  0.45594000000E+02  0.51100000000E-03 0. -1.
    9900012    2    1    2    0    0 -0.30471568131E+02  0.21916175438E+02 -0.21789632357E+02  0.47787270877E+02  0.19999999235E+02 0.  0.
        -12    1    1    2    0    0  0.30471568131E+02 -0.21916175438E+02  0.21789632357E+02  0.43400729123E+02  0.00000000000E+00 0.  1.
         11    1    3    3    0    0 -0.29573866406E+02  0.17355985955E+02 -0.18676221418E+02  0.39046703695E+02  0.51100000000E-03 0. -1.
        -11    1    3    3    0    0  0.10611306555E+01  0.33649380129E+01 -0.47536189893E+01  0.59199408659E+01  0.51100000000E-03 0.  1.
         12    1    3    3    0    0 -0.19588323800E+01  0.11952514696E+01  0.16402080501E+01  0.28206263163E+01  0.00000000000E+00 0. -1.
</event>
<event>
 7    1  0.2598019E-009  0.4778727E+02  0.7816164E-02  0.1312668E+00
        -11   -1    0    0    0    0  0.00000000000E+00  0.00000000000E+00  0.45593999997E+02  0.45594000000E+02  0.51100000000E-03 0.  1.
         11   -1    0    0    0    0 -0.00000000000E+00 -0.00000000000E+00 -0.45593999997E+02  0.45594000000E+02  0.51100000000E-03 0. -1.
    9900012    2    1    2    0    0 -0.20939357115E+02 -0.12720269226E+02 -0.35824031169E+02  0.47787272647E+02  0.20000007306E+02 0.  0.
        -12    1    1    2    0    0  0.20939357115E+02  0.12720269226E+02  0.35824031169E+02  0.43400727353E+02  0.00000000000E+00 0.  1.
         11    1    3    3    0    0 -0.60592532216E+01 -0.79424758415E+01 -0.67785387199E+01  0.12072533269E+02  0.51100000000E-03 0. -1.
        -11    1    3    3    0    0 -0.28708305053E+01 -0.18800657795E+01  0.70311507324E+00  0.35029539239E+01  0.51100000000E-03 0.  1.
         12    1    3    3    0    0 -0.12009273388E+02 -0.28977276053E+01 -0.29748607523E+02  0.32211785454E+02  0.00000000000E+00 0. -1.
</event>
<event>
 7    1  0.2598019E-009  0.4778729E+02  0.7816164E-02  0.1312668E+00
        -11   -1    0    0    0    0  0.00000000000E+00  0.00000000000E+00  0.45593999997E+02  0.45594000000E+02  0.51100000000E-03 0.  1.
         11   -1    0    0    0    0 -0.00000000000E+00 -0.00000000000E+00 -0.45593999997E+02  0.45594000000E+02  0.51100000000E-03 0. -1.
    9900012    2    1    2    0    0  0.22908594693E+02  0.30904108305E+02 -0.20093621941E+02  0.47787294204E+02  0.20000105592E+02 0.  0.
        -12    1    1    2    0    0 -0.22908594693E+02 -0.30904108305E+02  0.20093621941E+02  0.43400705796E+02  0.00000000000E+00 0.  1.
         11    1    3    3    0    0  0.19628863221E+02  0.23071225009E+02 -0.22703543185E+02  0.37855310964E+02  0.51100000000E-03 0. -1.
        -11    1    3    3    0    0  0.22629515618E+01  0.81952040410E+01  0.22576952466E+01  0.87965622338E+01  0.51100000000E-03 0.  1.
         12    1    3    3    0    0  0.10167799103E+01 -0.36232074510E+00  0.35222599704E+00  0.11354210062E+01  0.00000000000E+00 0. -1.
</event>
<event>
 7    1  0.2598019E-009  0.4778728E+02  0.7816164E-02  0.1312668E+00
        -11   -1    0    0    0    0  0.00000000000E+00  0.00000000000E+00  0.45593999997E+02  0.45594000000E+02  0.51100000000E-03 0. -1.
         11   -1    0    0    0    0 -0.00000000000E+00 -0.00000000000E+00 -0.45593999997E+02  0.45594000000E+02  0.51100000000E-03 0.  1.
    9900012    2    1    2    0    0 -0.28316303639E+02  0.32838681835E+02 -0.18522130032E+01  0.47787276856E+02  0.20000026496E+02 0.  0.
        -12    1    1    2    0    0  0.28316303639E+02 -0.32838681835E+02  0.18522130032E+01  0.43400723144E+02  0.00000000000E+00 0.  1.
         11    1    3    3    0    0 -0.85422783824E+01  0.11451548328E+02 -0.41346366729E+01  0.14872918333E+02  0.51100000000E-03 0. -1.
        -11    1    3    3    0    0 -0.14568814901E+02  0.85668030966E+01  0.70033063197E+01  0.18294446769E+02  0.51100000000E-03 0.  1.
        -12    1    3    3    0    0 -0.52052103556E+01  0.12820330410E+02 -0.47208826501E+01  0.14619911753E+02  0.00000000000E+00 0.  1.
</event>
<event>
 7    1  0.2598019E-009  0.4778727E+02  0.7816164E-02  0.1312668E+00
        -11   -1    0    0    0    0  0.00000000000E+00  0.00000000000E+00  0.45593999997E+02  0.45594000000E+02  0.51100000000E-03 0.  1.
         11   -1    0    0    0    0 -0.00000000000E+00 -0.00000000000E+00 -0.45593999997E+02  0.45594000000E+02  0.51100000000E-03 0. -1.
    9900012    2    1    2    0    0  0.10544855393E+02  0.41996786663E+02  0.29494749809E+01  0.47787268809E+02  0.19999989807E+02 0.  0.
        -12    1    1    2    0    0 -0.10544855393E+02 -0.41996786663E+02 -0.29494749809E+01  0.43400731191E+02  0.00000000000E+00 0.  1.
         11    1    3    3    0    0  0.93842307681E+01  0.33818695361E+02 -0.33504188569E+01  0.35256109397E+02  0.51100000000E-03 0. -1.
        -11    1    3    3    0    0 -0.29540441447E+01  0.33820465363E+01  0.30188465252E+01  0.54109195324E+01  0.51100000000E-03 0.  1.
        -12    1    3    3    0    0  0.41146687696E+01  0.47960447656E+01  0.32810473127E+01  0.71202398798E+01  0.00000000000E+00 0.  1.
</event>
<event>
 7    1  0.2598019E-009  0.4778727E+02  0.7816164E-02  0.1312668E+00
        -11   -1    0    0    0    0  0.00000000000E+00  0.00000000000E+00  0.45593999997E+02  0.45594000000E+02  0.51100000000E-03 0.  1.
         11   -1    0    0    0    0 -0.00000000000E+00 -0.00000000000E+00 -0.45593999997E+02  0.45594000000E+02  0.51100000000E-03 0. -1.
    9900012    2    1    2    0    0  0.51950130634E+01  0.36925052075E+02 -0.22207555987E+02  0.47787272190E+02  0.20000005225E+02 0.  0.
        -12    1    1    2    0    0 -0.51950130634E+01 -0.36925052075E+02  0.22207555987E+02  0.43400727810E+02  0.00000000000E+00 0.  1.
         11    1    3    3    0    0 -0.18124674080E+01  0.65313312934E+01 -0.21088968926E+01  0.70986458521E+01  0.51100000000E-03 0. -1.
        -11    1    3    3    0    0  0.73527609588E+01  0.31932381035E+02 -0.20953806231E+02  0.38894756049E+02  0.51100000000E-03 0.  1.
        -12    1    3    3    0    0 -0.34528048741E+00 -0.15386602530E+01  0.85514713678E+00  0.17938702892E+01  0.00000000000E+00 0.  1.
</event>
<event>
 7    1  0.2598019E-009  0.4778727E+02  0.7816164E-02  0.1312668E+00
        -11   -1    0    0    0    0  0.00000000000E+00  0.00000000000E+00  0.45593999997E+02  0.45594000000E+02  0.51100000000E-03 0.  1.
         11   -1    0    0    0    0 -0.00000000000E+00 -0.00000000000E+00 -0.45593999997E+02  0.45594000000E+02  0.51100000000E-03 0. -1.
    9900012    2    1    2    0    0  0.42163125543E+02  0.84321901573E+01 -0.58985073921E+01  0.47787269869E+02  0.19999994642E+02 0.  0.
        -12    1    1    2    0    0 -0.42163125543E+02 -0.84321901573E+01  0.58985073921E+01  0.43400730131E+02  0.00000000000E+00 0.  1.
         11    1    3    3    0    0  0.11757857166E+02 -0.11109459851E+01 -0.91095173077E+01  0.14915250985E+02  0.51100000000E-03 0. -1.
        -11    1    3    3    0    0  0.23442388239E+02  0.10259192246E+02  0.13273781584E+01  0.25623397997E+02  0.51100000000E-03 0.  1.
         12    1    3    3    0    0  0.69628801387E+01 -0.71605610343E+00  0.18836317572E+01  0.72486208872E+01  0.00000000000E+00 0. -1.
</event>
<event>
 7    1  0.2598019E-009  0.4778727E+02  0.7816164E-02  0.1312668E+00
        -11   -1    0    0    0    0  0.00000000000E+00  0.00000000000E+00  0.45593999997E+02  0.45594000000E+02  0.51100000000E-03 0.  1.
         11   -1    0    0    0    0 -0.00000000000E+00 -0.00000000000E+00 -0.45593999997E+02  0.45594000000E+02  0.51100000000E-03 0. -1.
    9900012    2    1    2    0    0 -0.29531211145E+02 -0.25321216464E+02 -0.19244915490E+02  0.47787271814E+02  0.20000003508E+02 0.  0.
        -12    1    1    2    0    0  0.29531211145E+02  0.25321216464E+02  0.19244915490E+02  0.43400728186E+02  0.00000000000E+00 0.  1.
         11    1    3    3    0    0 -0.11835088420E+02 -0.25206309306E+01 -0.11862071819E+02  0.16944959319E+02  0.51100000000E-03 0. -1.
        -11    1    3    3    0    0 -0.15107191816E+02 -0.13406251924E+02 -0.47680849193E+01  0.20753059275E+02  0.51100000000E-03 0.  1.
         12    1    3    3    0    0 -0.25889309083E+01 -0.93943336090E+01 -0.26147587513E+01  0.10089253220E+02  0.00000000000E+00 0. -1.
</event>
<event>
 7    1  0.2598019E-009  0.4778727E+02  0.7816164E-02  0.1312668E+00
        -11   -1    0    0    0    0  0.00000000000E+00  0.00000000000E+00  0.45593999997E+02  0.45594000000E+02  0.51100000000E-03 0.  1.
         11   -1    0    0    0    0 -0.00000000000E+00 -0.00000000000E+00 -0.45593999997E+02  0.45594000000E+02  0.51100000000E-03 0. -1.
    9900012    2    1    2    0    0 -0.11404232954E+02 -0.41711570919E+02 -0.37029272216E+01  0.47787270193E+02  0.19999996116E+02 0.  0.
        -12    1    1    2    0    0  0.11404232954E+02  0.41711570919E+02  0.37029272216E+01  0.43400729807E+02  0.00000000000E+00 0.  1.
         11    1    3    3    0    0 -0.10259111921E+02 -0.28170498693E+02 -0.36012551926E+01  0.30195950279E+02  0.51100000000E-03 0. -1.
        -11    1    3    3    0    0 -0.39575789492E+01 -0.17985844157E+01  0.28027661174E+01  0.51723142992E+01  0.51100000000E-03 0.  1.
         12    1    3    3    0    0  0.28124579162E+01 -0.11742487810E+02 -0.29044381464E+01  0.12419005614E+02  0.00000000000E+00 0. -1.
</event>
<event>
 7    1  0.2598019E-009  0.4778728E+02  0.7816164E-02  0.1312668E+00
        -11   -1    0    0    0    0  0.00000000000E+00  0.00000000000E+00  0.45593999997E+02  0.45594000000E+02  0.51100000000E-03 0. -1.
         11   -1    0    0    0    0 -0.00000000000E+00 -0.00000000000E+00 -0.45593999997E+02  0.45594000000E+02  0.51100000000E-03 0.  1.
    9900012    2    1    2    0    0 -0.21106343718E+02  0.37419020273E+02 -0.61613376113E+01  0.47787275300E+02  0.20000019401E+02 0.  0.
        -12    1    1    2    0    0  0.21106343718E+02 -0.37419020273E+02  0.61613376113E+01  0.43400724700E+02  0.00000000000E+00 0.  1.
         11    1    3    3    0    0 -0.14434968483E+02  0.26279341889E+02  0.39301540664E+01  0.30239349141E+02  0.51100000000E-03 0. -1.
        -11    1    3    3    0    0 -0.23501358141E+01  0.79846332906E+00 -0.23585198186E-01  0.24821842307E+01  0.51100000000E-03 0.  1.
         12    1    3    3    0    0 -0.43212394209E+01  0.10341215055E+02 -0.10067906479E+02  0.15065741928E+02  0.00000000000E+00 0. -1.
</event>
<event>
 7    1  0.2598019E-009  0.4778727E+02  0.7816164E-02  0.1312668E+00
        -11   -1    0    0    0    0  0.00000000000E+00  0.00000000000E+00  0.45593999997E+02  0.45594000000E+02  0.51100000000E-03 0.  1.
         11   -1    0    0    0    0 -0.00000000000E+00 -0.00000000000E+00 -0.45593999997E+02  0.45594000000E+02  0.51100000000E-03 0. -1.
    9900012    2    1    2    0    0  0.34229495347E+02 -0.15857679055E+02 -0.21459248008E+02  0.47787266575E+02  0.19999979623E+02 0.  0.
        -12    1    1    2    0    0 -0.34229495347E+02  0.15857679055E+02  0.21459248008E+02  0.43400733425E+02  0.00000000000E+00 0.  1.
         11    1    3    3    0    0  0.24948828137E+02 -0.10496215615E+02 -0.12521881006E+02  0.29823012454E+02  0.51100000000E-03 0. -1.
        -11    1    3    3    0    0  0.16517508768E+01 -0.29059101636E+01 -0.93598252513E+01  0.99387586667E+01  0.51100000000E-03 0.  1.
        -12    1    3    3    0    0  0.76289163333E+01 -0.24555532767E+01  0.42245824909E+00  0.80254954543E+01  0.00000000000E+00 0.  1.
</event>
<event>
 7    1  0.2598019E-009  0.4778727E+02  0.7816164E-02  0.1312668E+00
        -11   -1    0    0    0    0  0.00000000000E+00  0.00000000000E+00  0.45593999997E+02  0.45594000000E+02  0.51100000000E-03 0.  1.
         11   -1    0    0    0    0 -0.00000000000E+00 -0.00000000000E+00 -0.45593999997E+02  0.45594000000E+02  0.51100000000E-03 0. -1.
    9900012    2    1    2    0    0  0.28269962123E+02 -0.22719721422E+02 -0.23837927581E+02  0.47787270844E+02  0.19999999087E+02 0.  0.
        -12    1    1    2    0    0 -0.28269962123E+02  0.22719721422E+02  0.23837927581E+02  0.43400729156E+02  0.00000000000E+00 0.  1.
         11    1    3    3    0    0  0.26208169521E+02 -0.15499861521E+02 -0.12836616514E+02  0.33043797914E+02  0.51100000000E-03 0. -1.
        -11    1    3    3    0    0  0.19404803370E+00 -0.76216794563E+01 -0.10034378084E+02  0.12602237744E+02  0.51100000000E-03 0.  1.
        -12    1    3    3    0    0  0.18677445682E+01  0.40181955536E+00 -0.96693298334E+00  0.21412351859E+01  0.00000000000E+00 0.  1.
</event>
<event>
 7    1  0.2598019E-009  0.4778727E+02  0.7816164E-02  0.1312668E+00
        -11   -1    0    0    0    0  0.00000000000E+00  0.00000000000E+00  0.45593999997E+02  0.45594000000E+02  0.51100000000E-03 0.  1.
         11   -1    0    0    0    0 -0.00000000000E+00 -0.00000000000E+00 -0.45593999997E+02  0.45594000000E+02  0.51100000000E-03 0. -1.
    9900012    2    1    2    0    0  0.39384736632E+02  0.10537613181E+02 -0.14880340101E+02  0.47787270828E+02  0.19999999014E+02 0.  0.
        -12    1    1    2    0    0 -0.39384736632E+02 -0.10537613181E+02  0.14880340101E+02  0.43400729172E+02  0.00000000000E+00 0.  1.
         11    1    3    3    0    0  0.93977636136E+01  0.59005419116E+01 -0.75346023455E+01  0.13412851619E+02  0.51100000000E-03 0. -1.
        -11    1    3    3    0    0  0.96343007257E+01  0.24596948818E+01  0.42902277541E+01  0.10829399975E+02  0.51100000000E-03 0.  1.
         12    1    3    3    0    0  0.20352672293E+02  0.21773763877E+01 -0.11635965510E+02  0.23545019234E+02  0.00000000000E+00 0. -1.
</event>
<event>
 7    1  0.2598019E-009  0.4778727E+02  0.7816164E-02  0.1312668E+00
        -11   -1    0    0    0    0  0.00000000000E+00  0.00000000000E+00  0.45593999997E+02  0.45594000000E+02  0.51100000000E-03 0.  1.
         11   -1    0    0    0    0 -0.00000000000E+00 -0.00000000000E+00 -0.45593999997E+02  0.45594000000E+02  0.51100000000E-03 0. -1.
    9900012    2    1    2    0    0  0.36923136353E+02 -0.48140054920E+01 -0.22296418905E+02  0.47787274856E+02  0.20000017378E+02 0.  0.
        -12    1    1    2    0    0 -0.36923136353E+02  0.48140054920E+01  0.22296418905E+02  0.43400725144E+02  0.00000000000E+00 0.  1.
         11    1    3    3    0    0  0.23408902139E+02 -0.23177173570E+01 -0.69200524777E+01  0.24520106844E+02  0.51100000000E-03 0. -1.
        -11    1    3    3    0    0  0.36367625901E+00 -0.81595077766E+00 -0.80902832570E+01  0.81394544985E+01  0.51100000000E-03 0.  1.
        -12    1    3    3    0    0  0.13150557955E+02 -0.16803373574E+01 -0.72860831707E+01  0.15127713513E+02  0.00000000000E+00 0.  1.
</event>
<event>
 7    1  0.2598019E-009  0.4778727E+02  0.7816164E-02  0.1312668E+00
        -11   -1    0    0    0    0  0.00000000000E+00  0.00000000000E+00  0.45593999997E+02  0.45594000000E+02  0.51100000000E-03 0. -1.
         11   -1    0    0    0    0 -0.00000000000E+00 -0.00000000000E+00 -0.45593999997E+02  0.45594000000E+02  0.51100000000E-03 0.  1.
    9900012    2    1    2    0    0 -0.38621656034E+02  0.10516645660E+02  0.16774715796E+02  0.47787271426E+02  0.20000001740E+02 0.  0.
        -12    1    1    2    0    0  0.38621656034E+02 -0.10516645660E+02 -0.16774715796E+02  0.43400728574E+02  0.00000000000E+00 0.  1.
         11    1    3    3    0    0 -0.19997109368E+02 -0.30420303451E+00  0.10228177115E+02  0.22463137134E+02  0.51100000000E-03 0. -1.
        -11    1    3    3    0    0 -0.13672800480E+02  0.12174881377E+02  0.80140652132E+01  0.19984955617E+02  0.51100000000E-03 0.  1.
        -12    1    3    3    0    0 -0.49517461854E+01 -0.13540326828E+01 -0.14675265326E+01  0.53391786741E+01  0.00000000000E+00 0.  1.
</event>
<event>
 7    1  0.2598019E-009  0.4778727E+02  0.7816164E-02  0.1312668E+00
        -11   -1    0    0    0    0  0.00000000000E+00  0.00000000000E+00  0.45593999997E+02  0.45594000000E+02  0.51100000000E-03 0. -1.
         11   -1    0    0    0    0 -0.00000000000E+00 -0.00000000000E+00 -0.45593999997E+02  0.45594000000E+02  0.51100000000E-03 0.  1.
    9900012    2    1    2    0    0 -0.59797740276E+01 -0.39247512897E+02 -0.17535635757E+02  0.47787268584E+02  0.19999988782E+02 0.  0.
        -12    1    1    2    0    0  0.59797740276E+01  0.39247512897E+02  0.17535635757E+02  0.43400731416E+02  0.00000000000E+00 0.  1.
         11    1    3    3    0    0 -0.11609723527E+02 -0.25718906906E+02 -0.15465575000E+02  0.32178127092E+02  0.51100000000E-03 0. -1.
        -11    1    3    3    0    0  0.51885593288E+01 -0.11939153402E+02 -0.34401859301E+01  0.13464746984E+02  0.51100000000E-03 0.  1.
        -12    1    3    3    0    0  0.44139017048E+00 -0.15894525891E+01  0.13701251726E+01  0.21443945076E+01  0.00000000000E+00 0.  1.
</event>
<event>
 7    1  0.2598019E-009  0.4778727E+02  0.7816164E-02  0.1312668E+00
        -11   -1    0    0    0    0  0.00000000000E+00  0.00000000000E+00  0.45593999997E+02  0.45594000000E+02  0.51100000000E-03 0.  1.
         11   -1    0    0    0    0 -0.00000000000E+00 -0.00000000000E+00 -0.45593999997E+02  0.45594000000E+02  0.51100000000E-03 0. -1.
    9900012    2    1    2    0    0 -0.15789644573E+02 -0.26907278601E+02 -0.30171325724E+02  0.47787269437E+02  0.19999992671E+02 0.  0.
        -12    1    1    2    0    0  0.15789644573E+02  0.26907278601E+02  0.30171325724E+02  0.43400730563E+02  0.00000000000E+00 0.  1.
         11    1    3    3    0    0 -0.83023276435E+01 -0.42068828911E+01 -0.53387024561E+01  0.10729783415E+02  0.51100000000E-03 0. -1.
        -11    1    3    3    0    0 -0.12854795119E+01 -0.20908338036E+02 -0.20294875613E+02  0.29166642478E+02  0.51100000000E-03 0.  1.
        -12    1    3    3    0    0 -0.62018374176E+01 -0.17920576742E+01 -0.45377476547E+01  0.78908435443E+01  0.00000000000E+00 0.  1.
</event>
<event>
 7    1  0.2598019E-009  0.4778727E+02  0.7816164E-02  0.1312668E+00
        -11   -1    0    0    0    0  0.00000000000E+00  0.00000000000E+00  0.45593999997E+02  0.45594000000E+02  0.51100000000E-03 0. -1.
         11   -1    0    0    0    0 -0.00000000000E+00 -0.00000000000E+00 -0.45593999997E+02  0.45594000000E+02  0.51100000000E-03 0.  1.
    9900012    2    1    2    0    0 -0.18164058711E+02  0.23444317942E+02  0.31686816573E+02  0.47787269394E+02  0.19999992475E+02 0.  0.
        -12    1    1    2    0    0  0.18164058711E+02 -0.23444317942E+02 -0.31686816573E+02  0.43400730606E+02  0.00000000000E+00 0.  1.
         11    1    3    3    0    0 -0.43897811224E+01  0.14035211214E+01  0.14641767585E+02  0.15349964433E+02  0.51100000000E-03 0. -1.
        -11    1    3    3    0    0 -0.32016323399E+00  0.57610630960E+01  0.87007160156E+00  0.58351844312E+01  0.51100000000E-03 0.  1.
         12    1    3    3    0    0 -0.13454114355E+02  0.16279733724E+02  0.16174977387E+02  0.26602120530E+02  0.00000000000E+00 0. -1.
</event>
<event>
 7    1  0.2598019E-009  0.4778727E+02  0.7816164E-02  0.1312668E+00
        -11   -1    0    0    0    0  0.00000000000E+00  0.00000000000E+00  0.45593999997E+02  0.45594000000E+02  0.51100000000E-03 0. -1.
         11   -1    0    0    0    0 -0.00000000000E+00 -0.00000000000E+00 -0.45593999997E+02  0.45594000000E+02  0.51100000000E-03 0.  1.
    9900012    2    1    2    0    0  0.19275938093E+02  0.38133517191E+02 -0.76089546814E+01  0.47787272886E+02  0.20000008394E+02 0.  0.
        -12    1    1    2    0    0 -0.19275938093E+02 -0.38133517191E+02  0.76089546814E+01  0.43400727114E+02  0.00000000000E+00 0.  1.
         11    1    3    3    0    0  0.18833611568E+02  0.15644126447E+02 -0.33557059843E+01  0.24712433710E+02  0.51100000000E-03 0. -1.
        -11    1    3    3    0    0  0.88295236849E+00  0.13600173960E+02 -0.38649868783E+01  0.14166243696E+02  0.51100000000E-03 0.  1.
         12    1    3    3    0    0 -0.44062584345E+00  0.88892167846E+01 -0.38826181878E+00  0.89085954795E+01  0.00000000000E+00 0. -1.
</event>
<event>
 7    1  0.2598019E-009  0.4778727E+02  0.7816164E-02  0.1312668E+00
        -11   -1    0    0    0    0  0.00000000000E+00  0.00000000000E+00  0.45593999997E+02  0.45594000000E+02  0.51100000000E-03 0. -1.
         11   -1    0    0    0    0 -0.00000000000E+00 -0.00000000000E+00 -0.45593999997E+02  0.45594000000E+02  0.51100000000E-03 0.  1.
    9900012    2    1    2    0    0 -0.61593869342E+01 -0.42642413377E+02 -0.52258736333E+01  0.47787271650E+02  0.20000002763E+02 0.  0.
        -12    1    1    2    0    0  0.61593869342E+01  0.42642413377E+02  0.52258736333E+01  0.43400728350E+02  0.00000000000E+00 0.  1.
         11    1    3    3    0    0 -0.33239145479E+01 -0.84609085536E+01  0.48773098817E+01  0.10316178237E+02  0.51100000000E-03 0. -1.
        -11    1    3    3    0    0  0.17834080944E+01 -0.26948524180E+02 -0.10252017963E+02  0.28887841257E+02  0.51100000000E-03 0.  1.
        -12    1    3    3    0    0 -0.46188804806E+01 -0.72329806440E+01  0.14883444843E+00  0.85832521566E+01  0.00000000000E+00 0.  1.
</event>
<event>
 7    1  0.2598019E-009  0.4778728E+02  0.7816164E-02  0.1312668E+00
        -11   -1    0    0    0    0  0.00000000000E+00  0.00000000000E+00  0.45593999997E+02  0.45594000000E+02  0.51100000000E-03 0.  1.
         11   -1    0    0    0    0 -0.00000000000E+00 -0.00000000000E+00 -0.45593999997E+02  0.45594000000E+02  0.51100000000E-03 0. -1.
    9900012    2    1    2    0    0  0.20442551773E+02 -0.47348715898E+01 -0.37990866493E+02  0.47787275711E+02  0.20000021276E+02 0.  0.
        -12    1    1    2    0    0 -0.20442551773E+02  0.47348715898E+01  0.37990866493E+02  0.43400724289E+02  0.00000000000E+00 0.  1.
         11    1    3    3    0    0  0.12160765133E+02  0.22946420639E+01 -0.96540357286E+01  0.15695540671E+02  0.51100000000E-03 0. -1.
        -11    1    3    3    0    0  0.56397836499E+01 -0.21689946929E+01 -0.24800229621E+02  0.25525733821E+02  0.51100000000E-03 0.  1.
        -12    1    3    3    0    0  0.26420029893E+01 -0.48605189608E+01 -0.35366011432E+01  0.65660012192E+01  0.00000000000E+00 0.  1.
</event>
<event>
 7    1  0.2598019E-009  0.4778727E+02  0.7816164E-02  0.1312668E+00
        -11   -1    0    0    0    0  0.00000000000E+00  0.00000000000E+00  0.45593999997E+02  0.45594000000E+02  0.51100000000E-03 0.  1.
         11   -1    0    0    0    0 -0.00000000000E+00 -0.00000000000E+00 -0.45593999997E+02  0.45594000000E+02  0.51100000000E-03 0. -1.
    9900012    2    1    2    0    0  0.27748068482E+02  0.12655067790E+02 -0.30879070459E+02  0.47787273765E+02  0.20000012406E+02 0.  0.
        -12    1    1    2    0    0 -0.27748068482E+02 -0.12655067790E+02  0.30879070459E+02  0.43400726235E+02  0.00000000000E+00 0.  1.
         11    1    3    3    0    0 -0.18644973859E+01  0.17399588197E+00 -0.56624400142E+01  0.59640466333E+01  0.51100000000E-03 0. -1.
        -11    1    3    3    0    0  0.93051604670E+01  0.78031187977E+01 -0.63098782240E+01  0.13685365825E+02  0.51100000000E-03 0.  1.
         12    1    3    3    0    0  0.20307405401E+02  0.46779531107E+01 -0.18906752221E+02  0.28137861308E+02  0.00000000000E+00 0. -1.
</event>
<event>
 7    1  0.2598019E-009  0.4778727E+02  0.7816164E-02  0.1312668E+00
        -11   -1    0    0    0    0  0.00000000000E+00  0.00000000000E+00  0.45593999997E+02  0.45594000000E+02  0.51100000000E-03 0. -1.
         11   -1    0    0    0    0 -0.00000000000E+00 -0.00000000000E+00 -0.45593999997E+02  0.45594000000E+02  0.51100000000E-03 0.  1.
    9900012    2    1    2    0    0  0.55873519385E+01  0.34738243647E+02 -0.25409827931E+02  0.47787269260E+02  0.19999991862E+02 0.  0.
        -12    1    1    2    0    0 -0.55873519385E+01 -0.34738243647E+02  0.25409827931E+02  0.43400730740E+02  0.00000000000E+00 0.  1.
         11    1    3    3    0    0  0.11531253287E+02  0.28158191617E+02 -0.20670018713E+02  0.36784551531E+02  0.51100000000E-03 0. -1.
        -11    1    3    3    0    0 -0.34547115716E+01  0.63495158199E+01 -0.44443010949E+01  0.84854696791E+01  0.51100000000E-03 0.  1.
         12    1    3    3    0    0 -0.24891897772E+01  0.23053621005E+00 -0.29550812302E+00  0.25172480494E+01  0.00000000000E+00 0. -1.
</event>
<event>
 7    1  0.2598019E-009  0.4778727E+02  0.7816164E-02  0.1312668E+00
        -11   -1    0    0    0    0  0.00000000000E+00  0.00000000000E+00  0.45593999997E+02  0.45594000000E+02  0.51100000000E-03 0.  1.
         11   -1    0    0    0    0 -0.00000000000E+00 -0.00000000000E+00 -0.45593999997E+02  0.45594000000E+02  0.51100000000E-03 0. -1.
    9900012    2    1    2    0    0  0.16555300690E+02 -0.23381711487E+02 -0.32601243884E+02  0.47787268258E+02  0.19999987295E+02 0.  0.
        -12    1    1    2    0    0 -0.16555300690E+02  0.23381711487E+02  0.32601243884E+02  0.43400731742E+02  0.00000000000E+00 0.  1.
         11    1    3    3    0    0  0.86647598949E+01 -0.19947615755E+02 -0.18914202257E+02  0.28822430252E+02  0.51100000000E-03 0. -1.
        -11    1    3    3    0    0  0.52775682406E+01  0.15310728082E+00 -0.80630981867E+00  0.53410021680E+01  0.51100000000E-03 0.  1.
        -12    1    3    3    0    0  0.26129725542E+01 -0.35872030126E+01 -0.12880731808E+02  0.13623835838E+02  0.00000000000E+00 0.  1.
</event>
<event>
 7    1  0.2598019E-009  0.4778727E+02  0.7816164E-02  0.1312668E+00
        -11   -1    0    0    0    0  0.00000000000E+00  0.00000000000E+00  0.45593999997E+02  0.45594000000E+02  0.51100000000E-03 0.  1.
         11   -1    0    0    0    0 -0.00000000000E+00 -0.00000000000E+00 -0.45593999997E+02  0.45594000000E+02  0.51100000000E-03 0. -1.
    9900012    2    1    2    0    0 -0.24802977901E+02  0.35586312463E+02  0.14317441589E+01  0.47787271449E+02  0.20000001843E+02 0.  0.
        -12    1    1    2    0    0  0.24802977901E+02 -0.35586312463E+02 -0.14317441589E+01  0.43400728551E+02  0.00000000000E+00 0.  1.
         11    1    3    3    0    0 -0.14403047337E+02  0.55654432487E+01 -0.19947081652E+01  0.15569225802E+02  0.51100000000E-03 0. -1.
        -11    1    3    3    0    0 -0.67807165656E+01  0.14068214282E+02  0.26605358580E+01  0.15842071252E+02  0.51100000000E-03 0.  1.
         12    1    3    3    0    0 -0.36192139982E+01  0.15952654932E+02  0.76591646611E+00  0.16375974395E+02  0.00000000000E+00 0. -1.
</event>
<event>
 7    1  0.2598019E-009  0.4778727E+02  0.7816164E-02  0.1312668E+00
        -11   -1    0    0    0    0  0.00000000000E+00  0.00000000000E+00  0.45593999997E+02  0.45594000000E+02  0.51100000000E-03 0.  1.
         11   -1    0    0    0    0 -0.00000000000E+00 -0.00000000000E+00 -0.45593999997E+02  0.45594000000E+02  0.51100000000E-03 0. -1.
    9900012    2    1    2    0    0  0.25858827525E+02 -0.34835457560E+02 -0.11979373176E+01  0.47787272838E+02  0.20000008179E+02 0.  0.
        -12    1    1    2    0    0 -0.25858827525E+02  0.34835457560E+02  0.11979373176E+01  0.43400727162E+02  0.00000000000E+00 0.  1.
         11    1    3    3    0    0  0.18061285119E+02 -0.12701938470E+02 -0.57339040389E+01  0.22812867353E+02  0.51100000000E-03 0. -1.
        -11    1    3    3    0    0  0.70191137850E+01 -0.22395642995E+02  0.36255217099E+01  0.23748203961E+02  0.51100000000E-03 0.  1.
         12    1    3    3    0    0  0.77842862074E+00  0.26212390498E+00  0.91044501141E+00  0.12262015242E+01  0.00000000000E+00 0. -1.
</event>
<event>
 7    1  0.2598019E-009  0.4778727E+02  0.7816164E-02  0.1312668E+00
        -11   -1    0    0    0    0  0.00000000000E+00  0.00000000000E+00  0.45593999997E+02  0.45594000000E+02  0.51100000000E-03 0. -1.
         11   -1    0    0    0    0 -0.00000000000E+00 -0.00000000000E+00 -0.45593999997E+02  0.45594000000E+02  0.51100000000E-03 0.  1.
    9900012    2    1    2    0    0  0.41411198806E+02  0.46883057267E+01  0.12114285078E+02  0.47787268439E+02  0.19999988119E+02 0.  0.
        -12    1    1    2    0    0 -0.41411198806E+02 -0.46883057267E+01 -0.12114285078E+02  0.43400731561E+02  0.00000000000E+00 0.  1.
         11    1    3    3    0    0  0.33403245329E+02  0.12174279121E+01  0.11862770814E+02  0.35468073826E+02  0.51100000000E-03 0. -1.
        -11    1    3    3    0    0 -0.14701063651E+01 -0.16603160569E+00  0.14807286103E+01  0.20931642786E+01  0.51100000000E-03 0.  1.
         12    1    3    3    0    0  0.94780598414E+01  0.36369094203E+01 -0.12292143461E+01  0.10226030334E+02  0.00000000000E+00 0. -1.
</event>
<event>
 7    1  0.2598019E-009  0.4778727E+02  0.7816164E-02  0.1312668E+00
        -11   -1    0    0    0    0  0.00000000000E+00  0.00000000000E+00  0.45593999997E+02  0.45594000000E+02  0.51100000000E-03 0.  1.
         11   -1    0    0    0    0 -0.00000000000E+00 -0.00000000000E+00 -0.45593999997E+02  0.45594000000E+02  0.51100000000E-03 0. -1.
    9900012    2    1    2    0    0 -0.29743783720E+02 -0.18558695185E+02  0.25583302646E+02  0.47787271766E+02  0.20000003289E+02 0.  0.
        -12    1    1    2    0    0  0.29743783720E+02  0.18558695185E+02 -0.25583302646E+02  0.43400728234E+02  0.00000000000E+00 0.  1.
         11    1    3    3    0    0 -0.18676722246E+02 -0.17829187798E+02  0.10055769613E+02  0.27709536159E+02  0.51100000000E-03 0. -1.
        -11    1    3    3    0    0 -0.77830987321E+00  0.19287644805E+01  0.21236492744E+01  0.29725048666E+01  0.51100000000E-03 0.  1.
         12    1    3    3    0    0 -0.10288751601E+02 -0.26582718672E+01  0.13403883759E+02  0.17105230740E+02  0.00000000000E+00 0. -1.
</event>
<event>
 7    1  0.2598019E-009  0.4778727E+02  0.7816164E-02  0.1312668E+00
        -11   -1    0    0    0    0  0.00000000000E+00  0.00000000000E+00  0.45593999997E+02  0.45594000000E+02  0.51100000000E-03 0. -1.
         11   -1    0    0    0    0 -0.00000000000E+00 -0.00000000000E+00 -0.45593999997E+02  0.45594000000E+02  0.51100000000E-03 0.  1.
    9900012    2    1    2    0    0  0.24253806033E+01  0.22668853750E+02  0.36930532915E+02  0.47787266564E+02  0.19999979573E+02 0.  0.
        -12    1    1    2    0    0 -0.24253806033E+01 -0.22668853750E+02 -0.36930532915E+02  0.43400733436E+02  0.00000000000E+00 0.  1.
         11    1    3    3    0    0 -0.43296738256E+01  0.75091805250E+01  0.98439551729E+01  0.13116299833E+02  0.51100000000E-03 0. -1.
        -11    1    3    3    0    0  0.10354514884E+02  0.12699334247E+02  0.16650885798E+02  0.23361101578E+02  0.51100000000E-03 0.  1.
        -12    1    3    3    0    0 -0.35994604553E+01  0.24603389777E+01  0.10435691944E+02  0.11309865154E+02  0.00000000000E+00 0.  1.
</event>
<event>
 7    1  0.2598019E-009  0.4778726E+02  0.7816164E-02  0.1312668E+00
        -11   -1    0    0    0    0  0.00000000000E+00  0.00000000000E+00  0.45593999997E+02  0.45594000000E+02  0.51100000000E-03 0.  1.
         11   -1    0    0    0    0 -0.00000000000E+00 -0.00000000000E+00 -0.45593999997E+02  0.45594000000E+02  0.51100000000E-03 0. -1.
    9900012    2    1    2    0    0  0.20348299016E+02 -0.25809274692E+02 -0.28345227128E+02  0.47787264593E+02  0.19999970584E+02 0.  0.
        -12    1    1    2    0    0 -0.20348299016E+02  0.25809274692E+02  0.28345227128E+02  0.43400735407E+02  0.00000000000E+00 0.  1.
         11    1    3    3    0    0  0.84457941562E+01 -0.51746849911E+01 -0.13067936199E+02  0.16397553490E+02  0.51100000000E-03 0. -1.
        -11    1    3    3    0    0 -0.20340260758E+01 -0.74006055749E+01 -0.17065190377E+01  0.78624698689E+01  0.51100000000E-03 0.  1.
        -12    1    3    3    0    0  0.13936530936E+02 -0.13233984126E+02 -0.13570771891E+02  0.23527241234E+02  0.00000000000E+00 0.  1.
</event>
<event>
 7    1  0.2598019E-009  0.4778727E+02  0.7816164E-02  0.1312668E+00
        -11   -1    0    0    0    0  0.00000000000E+00  0.00000000000E+00  0.45593999997E+02  0.45594000000E+02  0.51100000000E-03 0. -1.
         11   -1    0    0    0    0 -0.00000000000E+00 -0.00000000000E+00 -0.45593999997E+02  0.45594000000E+02  0.51100000000E-03 0.  1.
    9900012    2    1    2    0    0 -0.20948948391E+02 -0.69592690344E+01  0.37367547456E+02  0.47787268819E+02  0.19999989853E+02 0.  0.
        -12    1    1    2    0    0  0.20948948391E+02  0.69592690344E+01 -0.37367547456E+02  0.43400731181E+02  0.00000000000E+00 0.  1.
         11    1    3    3    0    0 -0.10779813529E+02 -0.13149932240E+02  0.19567173609E+02  0.25922950854E+02  0.51100000000E-03 0. -1.
        -11    1    3    3    0    0 -0.82631330427E+00  0.68761570644E+00  0.65027785563E-01  0.10769577107E+01  0.51100000000E-03 0.  1.
         12    1    3    3    0    0 -0.93428215576E+01  0.55030474995E+01  0.17735346061E+02  0.20787360254E+02  0.00000000000E+00 0. -1.
</event>
<event>
 7    1  0.2598019E-009  0.4778727E+02  0.7816164E-02  0.1312668E+00
        -11   -1    0    0    0    0  0.00000000000E+00  0.00000000000E+00  0.45593999997E+02  0.45594000000E+02  0.51100000000E-03 0.  1.
         11   -1    0    0    0    0 -0.00000000000E+00 -0.00000000000E+00 -0.45593999997E+02  0.45594000000E+02  0.51100000000E-03 0. -1.
    9900012    2    1    2    0    0  0.52537411233E+01 -0.29301386783E+01 -0.42981805395E+02  0.47787273007E+02  0.20000008949E+02 0.  0.
        -12    1    1    2    0    0 -0.52537411233E+01  0.29301386783E+01  0.42981805395E+02  0.43400726993E+02  0.00000000000E+00 0.  1.
         11    1    3    3    0    0  0.45695551663E+01  0.72699332923E+01 -0.22492645794E+02  0.24075960615E+02  0.51100000000E-03 0. -1.
        -11    1    3    3    0    0 -0.79031470238E+00 -0.30315301743E+01 -0.17382938749E+01  0.35827975638E+01  0.51100000000E-03 0.  1.
         12    1    3    3    0    0  0.14745006594E+01 -0.71685417963E+01 -0.18750865727E+02  0.20128514828E+02  0.00000000000E+00 0. -1.
</event>
<event>
 7    1  0.2598019E-009  0.4778726E+02  0.7816164E-02  0.1312668E+00
        -11   -1    0    0    0    0  0.00000000000E+00  0.00000000000E+00  0.45593999997E+02  0.45594000000E+02  0.51100000000E-03 0. -1.
         11   -1    0    0    0    0 -0.00000000000E+00 -0.00000000000E+00 -0.45593999997E+02  0.45594000000E+02  0.51100000000E-03 0.  1.
    9900012    2    1    2    0    0 -0.16419902210E+02  0.38724977769E+02  0.10695176294E+02  0.47787263972E+02  0.19999967756E+02 0.  0.
        -12    1    1    2    0    0  0.16419902210E+02 -0.38724977769E+02 -0.10695176294E+02  0.43400736028E+02  0.00000000000E+00 0.  1.
         11    1    3    3    0    0  0.16121857655E+01  0.32362888517E+01  0.39489977201E+01  0.53541845064E+01  0.51100000000E-03 0. -1.
        -11    1    3    3    0    0 -0.14721567175E+02  0.31375419438E+02  0.10195746672E+02  0.36126094937E+02  0.51100000000E-03 0.  1.
        -12    1    3    3    0    0 -0.33105208007E+01  0.41132694795E+01 -0.34495680980E+01  0.63069845287E+01  0.00000000000E+00 0.  1.
</event>
<event>
 7    1  0.2598019E-009  0.4778727E+02  0.7816164E-02  0.1312668E+00
        -11   -1    0    0    0    0  0.00000000000E+00  0.00000000000E+00  0.45593999997E+02  0.45594000000E+02  0.51100000000E-03 0.  1.
         11   -1    0    0    0    0 -0.00000000000E+00 -0.00000000000E+00 -0.45593999997E+02  0.45594000000E+02  0.51100000000E-03 0. -1.
    9900012    2    1    2    0    0  0.13947729568E+02 -0.34763288450E+02 -0.21922543309E+02  0.47787270869E+02  0.19999999199E+02 0.  0.
        -12    1    1    2    0    0 -0.13947729568E+02  0.34763288450E+02  0.21922543309E+02  0.43400729131E+02  0.00000000000E+00 0.  1.
         11    1    3    3    0    0 -0.41338458615E+01 -0.81835683423E+01 -0.16148081572E+01  0.93095154582E+01  0.51100000000E-03 0. -1.
        -11    1    3    3    0    0  0.12615395327E+02 -0.17218225418E+02 -0.16531835495E+02  0.26998464232E+02  0.51100000000E-03 0.  1.
        -12    1    3    3    0    0  0.54661801030E+01 -0.93614946894E+01 -0.37758996570E+01  0.11479291178E+02  0.00000000000E+00 0.  1.
</event>
<event>
 7    1  0.2598019E-009  0.4778727E+02  0.7816164E-02  0.1312668E+00
        -11   -1    0    0    0    0  0.00000000000E+00  0.00000000000E+00  0.45593999997E+02  0.45594000000E+02  0.51100000000E-03 0.  1.
         11   -1    0    0    0    0 -0.00000000000E+00 -0.00000000000E+00 -0.45593999997E+02  0.45594000000E+02  0.51100000000E-03 0. -1.
    9900012    2    1    2    0    0 -0.46158374175E+01 -0.43040381829E+02  0.31373420774E+01  0.47787270302E+02  0.19999996613E+02 0.  0.
        -12    1    1    2    0    0  0.46158374175E+01  0.43040381829E+02 -0.31373420774E+01  0.43400729698E+02  0.00000000000E+00 0.  1.
         11    1    3    3    0    0 -0.57815652755E+01 -0.39194509853E+02  0.85831137492E+00  0.39627929524E+02  0.51100000000E-03 0. -1.
        -11    1    3    3    0    0  0.16802467960E+01  0.13043469225E+01  0.20869560846E+01  0.29799221718E+01  0.51100000000E-03 0.  1.
        -12    1    3    3    0    0 -0.51451893798E+00 -0.51502188985E+01  0.19207461789E+00  0.51794186063E+01  0.00000000000E+00 0.  1.
</event>
<event>
 7    1  0.2598019E-009  0.4778727E+02  0.7816164E-02  0.1312668E+00
        -11   -1    0    0    0    0  0.00000000000E+00  0.00000000000E+00  0.45593999997E+02  0.45594000000E+02  0.51100000000E-03 0. -1.
         11   -1    0    0    0    0 -0.00000000000E+00 -0.00000000000E+00 -0.45593999997E+02  0.45594000000E+02  0.51100000000E-03 0.  1.
    9900012    2    1    2    0    0  0.30889963739E+02 -0.15623475988E+02  0.26179003068E+02  0.47787273470E+02  0.20000011057E+02 0.  0.
        -12    1    1    2    0    0 -0.30889963739E+02  0.15623475988E+02 -0.26179003068E+02  0.43400726530E+02  0.00000000000E+00 0.  1.
         11    1    3    3    0    0  0.20157523668E+02 -0.19620995103E+02  0.16769764429E+02  0.32749568066E+02  0.51100000000E-03 0. -1.
        -11    1    3    3    0    0  0.90678596758E+01  0.29913872751E+01  0.65482557077E+01  0.11578174727E+02  0.51100000000E-03 0.  1.
         12    1    3    3    0    0  0.16645803951E+01  0.10061318395E+01  0.28609829310E+01  0.34595306765E+01  0.00000000000E+00 0. -1.
</event>
<event>
 7    1  0.2598019E-009  0.4778724E+02  0.7816164E-02  0.1312668E+00
        -11   -1    0    0    0    0  0.00000000000E+00  0.00000000000E+00  0.45593999997E+02  0.45594000000E+02  0.51100000000E-03 0.  1.
         11   -1    0    0    0    0 -0.00000000000E+00 -0.00000000000E+00 -0.45593999997E+02  0.45594000000E+02  0.51100000000E-03 0. -1.
    9900012    2    1    2    0    0 -0.10386215240E+02 -0.42134275611E+02  0.67501419567E+00  0.47787236269E+02  0.19999841444E+02 0.  0.
        -12    1    1    2    0    0  0.10386215240E+02  0.42134275611E+02 -0.67501419567E+00  0.43400763731E+02  0.00000000000E+00 0.  1.
         11    1    3    3    0    0 -0.24163096333E+01 -0.24051904023E+02 -0.22828589041E+01  0.24280528915E+02  0.51100000000E-03 0. -1.
        -11    1    3    3    0    0  0.77826865883E+00 -0.37081110909E+01  0.53025104027E+01  0.65170857598E+01  0.51100000000E-03 0.  1.
        -12    1    3    3    0    0 -0.87481742652E+01 -0.14374260497E+02 -0.23446373030E+01  0.16989621594E+02  0.00000000000E+00 0.  1.
</event>
<event>
 7    1  0.2598019E-009  0.4778727E+02  0.7816164E-02  0.1312668E+00
        -11   -1    0    0    0    0  0.00000000000E+00  0.00000000000E+00  0.45593999997E+02  0.45594000000E+02  0.51100000000E-03 0. -1.
         11   -1    0    0    0    0 -0.00000000000E+00 -0.00000000000E+00 -0.45593999997E+02  0.45594000000E+02  0.51100000000E-03 0.  1.
    9900012    2    1    2    0    0  0.12493545988E+02 -0.35498271132E+02 -0.21619608351E+02  0.47787269476E+02  0.19999992850E+02 0.  0.
        -12    1    1    2    0    0 -0.12493545988E+02  0.35498271132E+02  0.21619608351E+02  0.43400730524E+02  0.00000000000E+00 0.  1.
         11    1    3    3    0    0  0.14817445349E+02 -0.24282454898E+02 -0.14020417958E+02  0.31713820686E+02  0.51100000000E-03 0. -1.
        -11    1    3    3    0    0  0.14915956171E+01 -0.87245102744E+00  0.10840071203E+01  0.20398774420E+01  0.51100000000E-03 0.  1.
         12    1    3    3    0    0 -0.38154949779E+01 -0.10343365208E+02 -0.86831975133E+01  0.14033571349E+02  0.00000000000E+00 0. -1.
</event>
<event>
 7    1  0.2598019E-009  0.4778729E+02  0.7816164E-02  0.1312668E+00
        -11   -1    0    0    0    0  0.00000000000E+00  0.00000000000E+00  0.45593999997E+02  0.45594000000E+02  0.51100000000E-03 0.  1.
         11   -1    0    0    0    0 -0.00000000000E+00 -0.00000000000E+00 -0.45593999997E+02  0.45594000000E+02  0.51100000000E-03 0. -1.
    9900012    2    1    2    0    0  0.24697666230E+02  0.12979568028E+02 -0.33244212553E+02  0.47787290654E+02  0.20000089410E+02 0.  0.
        -12    1    1    2    0    0 -0.24697666230E+02 -0.12979568028E+02  0.33244212553E+02  0.43400709346E+02  0.00000000000E+00 0.  1.
         11    1    3    3    0    0  0.13609084038E+02  0.10370135157E+02 -0.29990238968E+02  0.34527688963E+02  0.51100000000E-03 0. -1.
        -11    1    3    3    0    0  0.80758922939E+01  0.44678672870E+01 -0.16600573979E+01  0.93775084784E+01  0.51100000000E-03 0.  1.
         12    1    3    3    0    0  0.30126898983E+01 -0.18584344160E+01 -0.15939161878E+01  0.38820932131E+01  0.00000000000E+00 0. -1.
</event>
<event>
 7    1  0.2598019E-009  0.4778727E+02  0.7816164E-02  0.1312668E+00
        -11   -1    0    0    0    0  0.00000000000E+00  0.00000000000E+00  0.45593999997E+02  0.45594000000E+02  0.51100000000E-03 0.  1.
         11   -1    0    0    0    0 -0.00000000000E+00 -0.00000000000E+00 -0.45593999997E+02  0.45594000000E+02  0.51100000000E-03 0. -1.
    9900012    2    1    2    0    0  0.61889418442E+01  0.41289640817E+02  0.11852672609E+02  0.47787270882E+02  0.19999999261E+02 0.  0.
        -12    1    1    2    0    0 -0.61889418442E+01 -0.41289640817E+02 -0.11852672609E+02  0.43400729118E+02  0.00000000000E+00 0.  1.
         11    1    3    3    0    0  0.93584223030E+00  0.30042201647E+02  0.22950904611E+01  0.30144271777E+02  0.51100000000E-03 0. -1.
        -11    1    3    3    0    0  0.73102743483E+01  0.99091698908E+01  0.73411814452E+01  0.14336132820E+02  0.51100000000E-03 0.  1.
         12    1    3    3    0    0 -0.20571747344E+01  0.13382692796E+01  0.22164007025E+01  0.33068662849E+01  0.00000000000E+00 0. -1.
</event>
<event>
 7    1  0.2598019E-009  0.4778727E+02  0.7816164E-02  0.1312668E+00
        -11   -1    0    0    0    0  0.00000000000E+00  0.00000000000E+00  0.45593999997E+02  0.45594000000E+02  0.51100000000E-03 0. -1.
         11   -1    0    0    0    0 -0.00000000000E+00 -0.00000000000E+00 -0.45593999997E+02  0.45594000000E+02  0.51100000000E-03 0.  1.
    9900012    2    1    2    0    0  0.40927265228E+02  0.14279866521E+02 -0.21604667144E+01  0.47787271396E+02  0.20000001605E+02 0.  0.
        -12    1    1    2    0    0 -0.40927265228E+02 -0.14279866521E+02  0.21604667144E+01  0.43400728604E+02  0.00000000000E+00 0.  1.
         11    1    3    3    0    0  0.28086135742E+02  0.17727047311E+02  0.46935601352E+00  0.33215952833E+02  0.51100000000E-03 0. -1.
        -11    1    3    3    0    0  0.91679246243E+01 -0.21443350329E+01 -0.42755756789E+01  0.10340675137E+02  0.51100000000E-03 0.  1.
         12    1    3    3    0    0  0.36732048620E+01 -0.13028457569E+01  0.16457529509E+01  0.42306434262E+01  0.00000000000E+00 0. -1.
</event>
<event>
 7    1  0.2598019E-009  0.4778727E+02  0.7816164E-02  0.1312668E+00
        -11   -1    0    0    0    0  0.00000000000E+00  0.00000000000E+00  0.45593999997E+02  0.45594000000E+02  0.51100000000E-03 0.  1.
         11   -1    0    0    0    0 -0.00000000000E+00 -0.00000000000E+00 -0.45593999997E+02  0.45594000000E+02  0.51100000000E-03 0. -1.
    9900012    2    1    2    0    0  0.28091089347E+02  0.28016620414E+02 -0.17594978615E+02  0.47787267373E+02  0.19999983260E+02 0.  0.
        -12    1    1    2    0    0 -0.28091089347E+02 -0.28016620414E+02  0.17594978615E+02  0.43400732627E+02  0.00000000000E+00 0.  1.
         11    1    3    3    0    0  0.20769388874E+02  0.14368483651E+02 -0.34020286366E+01  0.25483222632E+02  0.51100000000E-03 0. -1.
        -11    1    3    3    0    0  0.65507464786E+00  0.68503076672E+01 -0.27317752388E+01  0.74039472004E+01  0.51100000000E-03 0.  1.
         12    1    3    3    0    0  0.66666258252E+01  0.67978290958E+01 -0.11461174739E+02  0.14900097540E+02  0.00000000000E+00 0. -1.
</event>
<event>
 7    1  0.2598019E-009  0.4778727E+02  0.7816164E-02  0.1312668E+00
        -11   -1    0    0    0    0  0.00000000000E+00  0.00000000000E+00  0.45593999997E+02  0.45594000000E+02  0.51100000000E-03 0.  1.
         11   -1    0    0    0    0 -0.00000000000E+00 -0.00000000000E+00 -0.45593999997E+02  0.45594000000E+02  0.51100000000E-03 0. -1.
    9900012    2    1    2    0    0  0.40534164259E+02 -0.59442271794E+01 -0.14327278168E+02  0.47787271796E+02  0.20000003425E+02 0.  0.
        -12    1    1    2    0    0 -0.40534164259E+02  0.59442271794E+01  0.14327278168E+02  0.43400728204E+02  0.00000000000E+00 0.  1.
         11    1    3    3    0    0  0.11775292843E+02 -0.83179747775E+00  0.14360239010E+01  0.11891659829E+02  0.51100000000E-03 0. -1.
        -11    1    3    3    0    0  0.97672136826E+01  0.10298935279E+01 -0.12129704190E+02  0.15607333783E+02  0.51100000000E-03 0.  1.
        -12    1    3    3    0    0  0.18991657733E+02 -0.61423232296E+01 -0.36335978790E+01  0.20288278184E+02  0.00000000000E+00 0.  1.
</event>
<event>
 7    1  0.2598019E-009  0.4778727E+02  0.7816164E-02  0.1312668E+00
        -11   -1    0    0    0    0  0.00000000000E+00  0.00000000000E+00  0.45593999997E+02  0.45594000000E+02  0.51100000000E-03 0.  1.
         11   -1    0    0    0    0 -0.00000000000E+00 -0.00000000000E+00 -0.45593999997E+02  0.45594000000E+02  0.51100000000E-03 0. -1.
    9900012    2    1    2    0    0 -0.38160029498E+02  0.78005382134E+01 -0.19146457743E+02  0.47787273142E+02  0.20000009562E+02 0.  0.
        -12    1    1    2    0    0  0.38160029498E+02 -0.78005382134E+01  0.19146457743E+02  0.43400726858E+02  0.00000000000E+00 0.  1.
         11    1    3    3    0    0 -0.12177168848E+02 -0.18256470429E+01 -0.93409304406E+01  0.15455400675E+02  0.51100000000E-03 0. -1.
        -11    1    3    3    0    0 -0.11315923993E+02  0.10673453119E+02 -0.80738597901E+01  0.17525979273E+02  0.51100000000E-03 0.  1.
        -12    1    3    3    0    0 -0.14666936658E+02 -0.10472678625E+01 -0.17316675118E+01  0.14805893194E+02  0.00000000000E+00 0.  1.
</event>
<event>
 7    1  0.2598019E-009  0.4778727E+02  0.7816164E-02  0.1312668E+00
        -11   -1    0    0    0    0  0.00000000000E+00  0.00000000000E+00  0.45593999997E+02  0.45594000000E+02  0.51100000000E-03 0.  1.
         11   -1    0    0    0    0 -0.00000000000E+00 -0.00000000000E+00 -0.45593999997E+02  0.45594000000E+02  0.51100000000E-03 0. -1.
    9900012    2    1    2    0    0 -0.63470465852E+00 -0.42439168557E+02 -0.90629591952E+01  0.47787272964E+02  0.20000008754E+02 0.  0.
        -12    1    1    2    0    0  0.63470465852E+00  0.42439168557E+02  0.90629591952E+01  0.43400727036E+02  0.00000000000E+00 0.  1.
         11    1    3    3    0    0 -0.50249843774E+01 -0.30792080550E+02 -0.47288542592E+01  0.31555740452E+02  0.51100000000E-03 0. -1.
        -11    1    3    3    0    0  0.42379515621E+00 -0.60041927627E+00 -0.44334109832E+01  0.44939113085E+01  0.51100000000E-03 0.  1.
        -12    1    3    3    0    0  0.39664845627E+01 -0.11046668731E+02  0.99306047188E-01  0.11737621204E+02  0.00000000000E+00 0.  1.
</event>
<event>
 7    1  0.2598019E-009  0.4778727E+02  0.7816164E-02  0.1312668E+00
        -11   -1    0    0    0    0  0.00000000000E+00  0.00000000000E+00  0.45593999997E+02  0.45594000000E+02  0.51100000000E-03 0.  1.
         11   -1    0    0    0    0 -0.00000000000E+00 -0.00000000000E+00 -0.45593999997E+02  0.45594000000E+02  0.51100000000E-03 0. -1.
    9900012    2    1    2    0    0  0.37122422774E+02 -0.10412139806E+02 -0.19928282550E+02  0.47787269898E+02  0.19999994774E+02 0.  0.
        -12    1    1    2    0    0 -0.37122422774E+02  0.10412139806E+02  0.19928282550E+02  0.43400730102E+02  0.00000000000E+00 0.  1.
         11    1    3    3    0    0  0.37396766548E+02 -0.11305358189E+02 -0.16669052877E+02  0.42475717724E+02  0.51100000000E-03 0. -1.
        -11    1    3    3    0    0  0.83655481133E+00 -0.12442200224E+01 -0.22410248069E+01  0.26963122710E+01  0.51100000000E-03 0.  1.
         12    1    3    3    0    0 -0.11108985856E+01  0.21374384053E+01 -0.10182048659E+01  0.26152399035E+01  0.00000000000E+00 0. -1.
</event>
<event>
 7    1  0.2598019E-009  0.4778728E+02  0.7816164E-02  0.1312668E+00
        -11   -1    0    0    0    0  0.00000000000E+00  0.00000000000E+00  0.45593999997E+02  0.45594000000E+02  0.51100000000E-03 0.  1.
         11   -1    0    0    0    0 -0.00000000000E+00 -0.00000000000E+00 -0.45593999997E+02  0.45594000000E+02  0.51100000000E-03 0. -1.
    9900012    2    1    2    0    0  0.32473264203E+00 -0.26570857370E+02 -0.34314821845E+02  0.47787275225E+02  0.20000019063E+02 0.  0.
        -12    1    1    2    0    0 -0.32473264203E+00  0.26570857370E+02  0.34314821845E+02  0.43400724775E+02  0.00000000000E+00 0.  1.
         11    1    3    3    0    0  0.72713900817E+00 -0.51205483491E+01 -0.50487031628E+01  0.72275964484E+01  0.51100000000E-03 0. -1.
        -11    1    3    3    0    0 -0.56764132063E+01 -0.21328449094E+02 -0.26850921979E+02  0.34757681439E+02  0.51100000000E-03 0.  1.
        -12    1    3    3    0    0  0.52740068402E+01 -0.12185992686E+00 -0.24151967040E+01  0.58019973381E+01  0.00000000000E+00 0.  1.
</event>
<event>
 7    1  0.2598019E-009  0.4778727E+02  0.7816164E-02  0.1312668E+00
        -11   -1    0    0    0    0  0.00000000000E+00  0.00000000000E+00  0.45593999997E+02  0.45594000000E+02  0.51100000000E-03 0. -1.
         11   -1    0    0    0    0 -0.00000000000E+00 -0.00000000000E+00 -0.45593999997E+02  0.45594000000E+02  0.51100000000E-03 0.  1.
    9900012    2    1    2    0    0  0.28249706749E+02 -0.32453804440E+02 -0.56857577578E+01  0.47787271950E+02  0.20000004128E+02 0.  0.
        -12    1    1    2    0    0 -0.28249706749E+02  0.32453804440E+02  0.56857577578E+01  0.43400728050E+02  0.00000000000E+00 0.  1.
         11    1    3    3    0    0  0.20833746526E+01 -0.51924966111E+01 -0.69758115432E+01  0.89422825915E+01  0.51100000000E-03 0.  1.
        -11    1    3    3    0    0  0.68761381948E+01 -0.61548850884E+01  0.41305819117E+01  0.10110667343E+02  0.51100000000E-03 0. -1.
         12    1    3    3    0    0  0.19290193902E+02 -0.21106422740E+02 -0.28405281263E+01  0.28734322015E+02  0.00000000000E+00 0. -1.
</event>
<event>
 7    1  0.2598019E-009  0.4778727E+02  0.7816164E-02  0.1312668E+00
        -11   -1    0    0    0    0  0.00000000000E+00  0.00000000000E+00  0.45593999997E+02  0.45594000000E+02  0.51100000000E-03 0. -1.
         11   -1    0    0    0    0 -0.00000000000E+00 -0.00000000000E+00 -0.45593999997E+02  0.45594000000E+02  0.51100000000E-03 0.  1.
    9900012    2    1    2    0    0  0.23385528319E+02 -0.21036516757E+02 -0.29903269312E+02  0.47787268583E+02  0.19999988776E+02 0.  0.
        -12    1    1    2    0    0 -0.23385528319E+02  0.21036516757E+02  0.29903269312E+02  0.43400731417E+02  0.00000000000E+00 0.  1.
         11    1    3    3    0    0  0.36492566611E+01 -0.40121882394E+01 -0.58600868834E+01  0.79846945583E+01  0.51100000000E-03 0. -1.
        -11    1    3    3    0    0  0.22023368723E+02 -0.13333682365E+02 -0.24367762308E+02  0.35448606397E+02  0.51100000000E-03 0.  1.
        -12    1    3    3    0    0 -0.22870970652E+01 -0.36906461519E+01  0.32457987904E+00  0.43539676276E+01  0.00000000000E+00 0.  1.
</event>
<event>
 7    1  0.2598019E-009  0.4778729E+02  0.7816164E-02  0.1312668E+00
        -11   -1    0    0    0    0  0.00000000000E+00  0.00000000000E+00  0.45593999997E+02  0.45594000000E+02  0.51100000000E-03 0.  1.
         11   -1    0    0    0    0 -0.00000000000E+00 -0.00000000000E+00 -0.45593999997E+02  0.45594000000E+02  0.51100000000E-03 0. -1.
    9900012    2    1    2    0    0  0.30826991936E+01 -0.21689627900E+02 -0.37465703963E+02  0.47787286110E+02  0.20000068690E+02 0.  0.
        -12    1    1    2    0    0 -0.30826991936E+01  0.21689627900E+02  0.37465703963E+02  0.43400713890E+02  0.00000000000E+00 0.  1.
         11    1    3    3    0    0  0.64451995834E+01 -0.16063327346E+02 -0.25802674610E+02  0.31070067596E+02  0.51100000000E-03 0. -1.
        -11    1    3    3    0    0 -0.65131168214E+01 -0.53069088304E+01 -0.10239947253E+02  0.13245395127E+02  0.51100000000E-03 0.  1.
        -12    1    3    3    0    0  0.31506164316E+01 -0.31939172297E+00 -0.14230821002E+01  0.34718233877E+01  0.00000000000E+00 0.  1.
</event>
<event>
 7    1  0.2598019E-009  0.4778727E+02  0.7816164E-02  0.1312668E+00
        -11   -1    0    0    0    0  0.00000000000E+00  0.00000000000E+00  0.45593999997E+02  0.45594000000E+02  0.51100000000E-03 0.  1.
         11   -1    0    0    0    0 -0.00000000000E+00 -0.00000000000E+00 -0.45593999997E+02  0.45594000000E+02  0.51100000000E-03 0. -1.
    9900012    2    1    2    0    0 -0.35460105159E+02  0.16994247933E+02 -0.18368445597E+02  0.47787270578E+02  0.19999997872E+02 0.  0.
        -12    1    1    2    0    0  0.35460105159E+02 -0.16994247933E+02  0.18368445597E+02  0.43400729422E+02  0.00000000000E+00 0.  1.
         11    1    3    3    0    0 -0.73231558780E+01 -0.25078314630E+01  0.12679245940E+01  0.78438169087E+01  0.51100000000E-03 0. -1.
        -11    1    3    3    0    0 -0.19361636700E+01  0.25459816658E+01 -0.37340347221E+01  0.49166826180E+01  0.51100000000E-03 0.  1.
         12    1    3    3    0    0 -0.26200785611E+02  0.16956097730E+02 -0.15902335469E+02  0.35026771051E+02  0.00000000000E+00 0. -1.
</event>
<event>
 7    1  0.2598019E-009  0.4778727E+02  0.7816164E-02  0.1312668E+00
        -11   -1    0    0    0    0  0.00000000000E+00  0.00000000000E+00  0.45593999997E+02  0.45594000000E+02  0.51100000000E-03 0.  1.
         11   -1    0    0    0    0 -0.00000000000E+00 -0.00000000000E+00 -0.45593999997E+02  0.45594000000E+02  0.51100000000E-03 0. -1.
    9900012    2    1    2    0    0  0.11251198592E+02 -0.30843782385E+02 -0.28384770232E+02  0.47787267717E+02  0.19999984829E+02 0.  0.
        -12    1    1    2    0    0 -0.11251198592E+02  0.30843782385E+02  0.28384770232E+02  0.43400732283E+02  0.00000000000E+00 0.  1.
         11    1    3    3    0    0 -0.38098248060E+01 -0.98517903950E+00 -0.16395145476E+01  0.42630213470E+01  0.51100000000E-03 0. -1.
        -11    1    3    3    0    0  0.10078086410E+02 -0.14601764020E+02 -0.17879568193E+02  0.25188455634E+02  0.51100000000E-03 0.  1.
         12    1    3    3    0    0  0.49829369877E+01 -0.15256839325E+02 -0.88656874918E+01  0.18335790736E+02  0.00000000000E+00 0. -1.
</event>
<event>
 7    1  0.2598019E-009  0.4778728E+02  0.7816164E-02  0.1312668E+00
        -11   -1    0    0    0    0  0.00000000000E+00  0.00000000000E+00  0.45593999997E+02  0.45594000000E+02  0.51100000000E-03 0. -1.
         11   -1    0    0    0    0 -0.00000000000E+00 -0.00000000000E+00 -0.45593999997E+02  0.45594000000E+02  0.51100000000E-03 0.  1.
    9900012    2    1    2    0    0  0.15272744972E+02 -0.37131345457E+02  0.16481178242E+02  0.47787276611E+02  0.20000025382E+02 0.  0.
        -12    1    1    2    0    0 -0.15272744972E+02  0.37131345457E+02 -0.16481178242E+02  0.43400723389E+02  0.00000000000E+00 0.  1.
         11    1    3    3    0    0  0.11861199609E+02 -0.12701014606E+02  0.98218763108E+01  0.19961790569E+02  0.51100000000E-03 0. -1.
        -11    1    3    3    0    0 -0.17527526374E+00 -0.23067428744E+02  0.48020865535E+01  0.23562619247E+02  0.51100000000E-03 0.  1.
        -12    1    3    3    0    0  0.35868206258E+01 -0.13629021075E+01  0.18572153774E+01  0.42628667953E+01  0.00000000000E+00 0.  1.
</event>
<event>
 7    1  0.2598019E-009  0.4778727E+02  0.7816164E-02  0.1312668E+00
        -11   -1    0    0    0    0  0.00000000000E+00  0.00000000000E+00  0.45593999997E+02  0.45594000000E+02  0.51100000000E-03 0. -1.
         11   -1    0    0    0    0 -0.00000000000E+00 -0.00000000000E+00 -0.45593999997E+02  0.45594000000E+02  0.51100000000E-03 0.  1.
    9900012    2    1    2    0    0 -0.18414473856E+02 -0.18867503000E+02  0.34475325540E+02  0.47787267426E+02  0.19999983502E+02 0.  0.
        -12    1    1    2    0    0  0.18414473856E+02  0.18867503000E+02 -0.34475325540E+02  0.43400732574E+02  0.00000000000E+00 0.  1.
         11    1    3    3    0    0 -0.75092551304E+01 -0.16012427923E+02  0.15283841149E+02  0.23374827511E+02  0.51100000000E-03 0. -1.
        -11    1    3    3    0    0  0.98625442178E+00  0.15751022619E+01  0.52065165497E+01  0.55282420138E+01  0.51100000000E-03 0.  1.
        -12    1    3    3    0    0 -0.11891473148E+02 -0.44301773388E+01  0.13984967841E+02  0.18884197902E+02  0.00000000000E+00 0.  1.
</event>
<event>
 7    1  0.2598019E-009  0.4778727E+02  0.7816164E-02  0.1312668E+00
        -11   -1    0    0    0    0  0.00000000000E+00  0.00000000000E+00  0.45593999997E+02  0.45594000000E+02  0.51100000000E-03 0. -1.
         11   -1    0    0    0    0 -0.00000000000E+00 -0.00000000000E+00 -0.45593999997E+02  0.45594000000E+02  0.51100000000E-03 0.  1.
    9900012    2    1    2    0    0  0.12276178686E+02 -0.25372457836E+02  0.33002384939E+02  0.47787267386E+02  0.19999983319E+02 0.  0.
        -12    1    1    2    0    0 -0.12276178686E+02  0.25372457836E+02 -0.33002384939E+02  0.43400732614E+02  0.00000000000E+00 0.  1.
         11    1    3    3    0    0  0.80036193023E+01 -0.82435672491E+01  0.11466219435E+02  0.16232329202E+02  0.51100000000E-03 0. -1.
        -11    1    3    3    0    0  0.32557346926E+01 -0.89739968704E+00 -0.12146821243E+01  0.35889535398E+01  0.51100000000E-03 0.  1.
        -12    1    3    3    0    0  0.10168246906E+01 -0.16231490900E+02  0.22750847629E+02  0.27965984644E+02  0.00000000000E+00 0.  1.
</event>
<event>
 7    1  0.2598019E-009  0.4778727E+02  0.7816164E-02  0.1312668E+00
        -11   -1    0    0    0    0  0.00000000000E+00  0.00000000000E+00  0.45593999997E+02  0.45594000000E+02  0.51100000000E-03 0.  1.
         11   -1    0    0    0    0 -0.00000000000E+00 -0.00000000000E+00 -0.45593999997E+02  0.45594000000E+02  0.51100000000E-03 0. -1.
    9900012    2    1    2    0    0  0.21598666321E+02  0.59320359958E+01 -0.37174344273E+02  0.47787270628E+02  0.19999998101E+02 0.  0.
        -12    1    1    2    0    0 -0.21598666321E+02 -0.59320359958E+01  0.37174344273E+02  0.43400729372E+02  0.00000000000E+00 0.  1.
         11    1    3    3    0    0  0.76284551406E+01  0.98860354605E+01 -0.19795493785E+02  0.23404884093E+02  0.51100000000E-03 0. -1.
        -11    1    3    3    0    0  0.10350564631E+02 -0.11276356833E+01 -0.57824829294E+01  0.11909779994E+02  0.51100000000E-03 0.  1.
         12    1    3    3    0    0  0.36196465494E+01 -0.28263637814E+01 -0.11596367558E+02  0.12472606540E+02  0.00000000000E+00 0. -1.
</event>
<event>
 7    1  0.2598019E-009  0.4778727E+02  0.7816164E-02  0.1312668E+00
        -11   -1    0    0    0    0  0.00000000000E+00  0.00000000000E+00  0.45593999997E+02  0.45594000000E+02  0.51100000000E-03 0.  1.
         11   -1    0    0    0    0 -0.00000000000E+00 -0.00000000000E+00 -0.45593999997E+02  0.45594000000E+02  0.51100000000E-03 0. -1.
    9900012    2    1    2    0    0 -0.39533096636E+02  0.11000839175E+02 -0.14132906721E+02  0.47787271382E+02  0.20000001540E+02 0.  0.
        -12    1    1    2    0    0  0.39533096636E+02 -0.11000839175E+02  0.14132906721E+02  0.43400728618E+02  0.00000000000E+00 0.  1.
         11    1    3    3    0    0 -0.92831773572E+01  0.83164272956E+01 -0.94340142282E+01  0.15631409710E+02  0.51100000000E-03 0.  1.
        -11    1    3    3    0    0 -0.18056315920E+02 -0.27881114814E+01 -0.10455499126E+01  0.18300199046E+02  0.51100000000E-03 0. -1.
        -12    1    3    3    0    0 -0.12193603359E+02  0.54725233606E+01 -0.36533425800E+01  0.13855662626E+02  0.00000000000E+00 0.  1.
</event>
<event>
 7    1  0.2598019E-009  0.4778727E+02  0.7816164E-02  0.1312668E+00
        -11   -1    0    0    0    0  0.00000000000E+00  0.00000000000E+00  0.45593999997E+02  0.45594000000E+02  0.51100000000E-03 0. -1.
         11   -1    0    0    0    0 -0.00000000000E+00 -0.00000000000E+00 -0.45593999997E+02  0.45594000000E+02  0.51100000000E-03 0.  1.
    9900012    2    1    2    0    0  0.49014211905E+01  0.40570146943E+02 -0.14617201630E+02  0.47787270327E+02  0.19999996729E+02 0.  0.
        -12    1    1    2    0    0 -0.49014211905E+01 -0.40570146943E+02  0.14617201630E+02  0.43400729673E+02  0.00000000000E+00 0.  1.
         11    1    3    3    0    0 -0.11575001125E+01  0.15106952709E+02 -0.13983664334E+02  0.20618018701E+02  0.51100000000E-03 0. -1.
        -11    1    3    3    0    0  0.50291696770E+01  0.67416236944E+01 -0.79779855248E-01  0.84112069742E+01  0.51100000000E-03 0.  1.
         12    1    3    3    0    0  0.10297516259E+01  0.18721570539E+02 -0.55375744030E+00  0.18758044652E+02  0.00000000000E+00 0. -1.
</event>
<event>
 7    1  0.2598019E-009  0.4778727E+02  0.7816164E-02  0.1312668E+00
        -11   -1    0    0    0    0  0.00000000000E+00  0.00000000000E+00  0.45593999997E+02  0.45594000000E+02  0.51100000000E-03 0.  1.
         11   -1    0    0    0    0 -0.00000000000E+00 -0.00000000000E+00 -0.45593999997E+02  0.45594000000E+02  0.51100000000E-03 0. -1.
    9900012    2    1    2    0    0  0.33885792408E+02  0.17405131609E+02 -0.20795136974E+02  0.47787271259E+02  0.20000000980E+02 0.  0.
        -12    1    1    2    0    0 -0.33885792408E+02 -0.17405131609E+02  0.20795136974E+02  0.43400728741E+02  0.00000000000E+00 0.  1.
         11    1    3    3    0    0  0.77656984617E+01  0.48986143888E+01 -0.28161028902E+01  0.96037977528E+01  0.51100000000E-03 0. -1.
        -11    1    3    3    0    0  0.10701758063E+02  0.12908926028E+02 -0.14950831250E+02  0.22465425706E+02  0.51100000000E-03 0.  1.
        -12    1    3    3    0    0  0.15418335883E+02 -0.40240880773E+00 -0.30282028344E+01  0.15718047801E+02  0.00000000000E+00 0.  1.
</event>
<event>
 7    1  0.2598019E-009  0.4778727E+02  0.7816164E-02  0.1312668E+00
        -11   -1    0    0    0    0  0.00000000000E+00  0.00000000000E+00  0.45593999997E+02  0.45594000000E+02  0.51100000000E-03 0.  1.
         11   -1    0    0    0    0 -0.00000000000E+00 -0.00000000000E+00 -0.45593999997E+02  0.45594000000E+02  0.51100000000E-03 0. -1.
    9900012    2    1    2    0    0 -0.23374339210E+02 -0.71695752849E+01 -0.35858899278E+02  0.47787271887E+02  0.20000003842E+02 0.  0.
        -12    1    1    2    0    0  0.23374339210E+02  0.71695752849E+01  0.35858899278E+02  0.43400728113E+02  0.00000000000E+00 0.  1.
         11    1    3    3    0    0 -0.53885914449E+01 -0.22092393676E+00 -0.14096345176E+02  0.15092802017E+02  0.51100000000E-03 0. -1.
        -11    1    3    3    0    0 -0.14915552690E+02 -0.63879674731E+01 -0.71136090481E+01  0.17716751238E+02  0.51100000000E-03 0.  1.
        -12    1    3    3    0    0 -0.30701950753E+01 -0.56068387506E+00 -0.14648945055E+02  0.14977718632E+02  0.00000000000E+00 0.  1.
</event>
<event>
 7    1  0.2598019E-009  0.4778727E+02  0.7816164E-02  0.1312668E+00
        -11   -1    0    0    0    0  0.00000000000E+00  0.00000000000E+00  0.45593999997E+02  0.45594000000E+02  0.51100000000E-03 0. -1.
         11   -1    0    0    0    0 -0.00000000000E+00 -0.00000000000E+00 -0.45593999997E+02  0.45594000000E+02  0.51100000000E-03 0.  1.
    9900012    2    1    2    0    0 -0.24444104874E+02  0.27825460919E+02  0.22624162922E+02  0.47787270901E+02  0.19999999344E+02 0.  0.
        -12    1    1    2    0    0  0.24444104874E+02 -0.27825460919E+02 -0.22624162922E+02  0.43400729099E+02  0.00000000000E+00 0.  1.
         11    1    3    3    0    0 -0.47163801249E+01 -0.49558843735E+00  0.73588620163E+01  0.87545816472E+01  0.51100000000E-03 0.  1.
        -11    1    3    3    0    0 -0.18907813062E+02  0.24222722804E+02  0.16218240498E+02  0.34745892131E+02  0.51100000000E-03 0. -1.
         12    1    3    3    0    0 -0.81991168670E+00  0.40983265526E+01 -0.95293959220E+00  0.42867971228E+01  0.00000000000E+00 0. -1.
</event>
<event>
 7    1  0.2598019E-009  0.4778727E+02  0.7816164E-02  0.1312668E+00
        -11   -1    0    0    0    0  0.00000000000E+00  0.00000000000E+00  0.45593999997E+02  0.45594000000E+02  0.51100000000E-03 0. -1.
         11   -1    0    0    0    0 -0.00000000000E+00 -0.00000000000E+00 -0.45593999997E+02  0.45594000000E+02  0.51100000000E-03 0.  1.
    9900012    2    1    2    0    0 -0.26146347571E+02  0.25349512903E+02  0.23609192203E+02  0.47787271294E+02  0.20000001138E+02 0.  0.
        -12    1    1    2    0    0  0.26146347571E+02 -0.25349512903E+02 -0.23609192203E+02  0.43400728706E+02  0.00000000000E+00 0.  1.
         11    1    3    3    0    0  0.13765732574E+01  0.14767445989E+01  0.59019119114E+01  0.62376512418E+01  0.51100000000E-03 0. -1.
        -11    1    3    3    0    0 -0.46502031760E+01  0.94839459441E+01  0.52001653447E+01  0.11773331734E+02  0.51100000000E-03 0.  1.
         12    1    3    3    0    0 -0.22872717652E+02  0.14388822360E+02  0.12507114947E+02  0.29776288318E+02  0.00000000000E+00 0. -1.
</event>
<event>
 7    1  0.2598019E-009  0.4778727E+02  0.7816164E-02  0.1312668E+00
        -11   -1    0    0    0    0  0.00000000000E+00  0.00000000000E+00  0.45593999997E+02  0.45594000000E+02  0.51100000000E-03 0.  1.
         11   -1    0    0    0    0 -0.00000000000E+00 -0.00000000000E+00 -0.45593999997E+02  0.45594000000E+02  0.51100000000E-03 0. -1.
    9900012    2    1    2    0    0  0.21958540963E+02  0.37424282378E+02 -0.93230906395E+00  0.47787266908E+02  0.19999981138E+02 0.  0.
        -12    1    1    2    0    0 -0.21958540963E+02 -0.37424282378E+02  0.93230906395E+00  0.43400733092E+02  0.00000000000E+00 0.  1.
         11    1    3    3    0    0  0.16024980658E+02  0.36458125170E+02  0.17414971876E+01  0.39862610410E+02  0.51100000000E-03 0. -1.
        -11    1    3    3    0    0  0.45533754254E+01 -0.11466165948E+01 -0.75822756317E+00  0.47563501425E+01  0.51100000000E-03 0.  1.
         12    1    3    3    0    0  0.13801848802E+01  0.21127738028E+01 -0.19155786884E+01  0.31683063546E+01  0.00000000000E+00 0. -1.
</event>
<event>
 7    1  0.2598019E-009  0.4778727E+02  0.7816164E-02  0.1312668E+00
        -11   -1    0    0    0    0  0.00000000000E+00  0.00000000000E+00  0.45593999997E+02  0.45594000000E+02  0.51100000000E-03 0.  1.
         11   -1    0    0    0    0 -0.00000000000E+00 -0.00000000000E+00 -0.45593999997E+02  0.45594000000E+02  0.51100000000E-03 0. -1.
    9900012    2    1    2    0    0 -0.19555642876E+02 -0.20595646697E+02 -0.32817975132E+02  0.47787270479E+02  0.19999997424E+02 0.  0.
        -12    1    1    2    0    0  0.19555642876E+02  0.20595646697E+02  0.32817975132E+02  0.43400729521E+02  0.00000000000E+00 0.  1.
         11    1    3    3    0    0 -0.16479687572E+02 -0.95237190779E+01 -0.23586436455E+02  0.30308436325E+02  0.51100000000E-03 0. -1.
        -11    1    3    3    0    0  0.33996934572E+01 -0.39831111645E+01 -0.30627605106E+01  0.60665964394E+01  0.51100000000E-03 0.  1.
        -12    1    3    3    0    0 -0.64756487611E+01 -0.70888164545E+01 -0.61687781662E+01  0.11412237715E+02  0.00000000000E+00 0.  1.
</event>
<event>
 7    1  0.2598019E-009  0.4778727E+02  0.7816164E-02  0.1312668E+00
        -11   -1    0    0    0    0  0.00000000000E+00  0.00000000000E+00  0.45593999997E+02  0.45594000000E+02  0.51100000000E-03 0. -1.
         11   -1    0    0    0    0 -0.00000000000E+00 -0.00000000000E+00 -0.45593999997E+02  0.45594000000E+02  0.51100000000E-03 0.  1.
    9900012    2    1    2    0    0  0.10533980338E+02 -0.35067994553E+02 -0.23300095438E+02  0.47787269233E+02  0.19999991739E+02 0.  0.
        -12    1    1    2    0    0 -0.10533980338E+02  0.35067994553E+02  0.23300095438E+02  0.43400730767E+02  0.00000000000E+00 0.  1.
         11    1    3    3    0    0 -0.49191023969E+01 -0.14039254106E+02 -0.51275947339E+01  0.15735007222E+02  0.51100000000E-03 0. -1.
        -11    1    3    3    0    0  0.74863775976E+01 -0.80163597818E+01 -0.57930265188E+01  0.12404314983E+02  0.51100000000E-03 0.  1.
         12    1    3    3    0    0  0.79667051370E+01 -0.13012380665E+02 -0.12379474186E+02  0.19647947028E+02  0.00000000000E+00 0. -1.
</event>
<event>
 7    1  0.2598019E-009  0.4778727E+02  0.7816164E-02  0.1312668E+00
        -11   -1    0    0    0    0  0.00000000000E+00  0.00000000000E+00  0.45593999997E+02  0.45594000000E+02  0.51100000000E-03 0.  1.
         11   -1    0    0    0    0 -0.00000000000E+00 -0.00000000000E+00 -0.45593999997E+02  0.45594000000E+02  0.51100000000E-03 0. -1.
    9900012    2    1    2    0    0 -0.67356979799E+01  0.67292352018E+01 -0.42343487945E+02  0.47787271837E+02  0.20000003615E+02 0.  0.
        -12    1    1    2    0    0  0.67356979799E+01 -0.67292352018E+01  0.42343487945E+02  0.43400728163E+02  0.00000000000E+00 0.  1.
         11    1    3    3    0    0  0.32337325654E+01 -0.19110510852E+00 -0.20180762779E+02  0.20439098172E+02  0.51100000000E-03 0. -1.
        -11    1    3    3    0    0 -0.91054627285E+01  0.62259565817E+00 -0.94669777560E+01  0.13149933268E+02  0.51100000000E-03 0.  1.
         12    1    3    3    0    0 -0.86396781673E+00  0.62977446521E+01 -0.12695747410E+02  0.14198240398E+02  0.00000000000E+00 0. -1.
</event>
<event>
 7    1  0.2598019E-009  0.4778727E+02  0.7816164E-02  0.1312668E+00
        -11   -1    0    0    0    0  0.00000000000E+00  0.00000000000E+00  0.45593999997E+02  0.45594000000E+02  0.51100000000E-03 0.  1.
         11   -1    0    0    0    0 -0.00000000000E+00 -0.00000000000E+00 -0.45593999997E+02  0.45594000000E+02  0.51100000000E-03 0. -1.
    9900012    2    1    2    0    0  0.11756163952E+02 -0.98948470163E-01 -0.41778060647E+02  0.47787268058E+02  0.19999986386E+02 0.  0.
        -12    1    1    2    0    0 -0.11756163952E+02  0.98948470163E-01  0.41778060647E+02  0.43400731942E+02  0.00000000000E+00 0.  1.
         11    1    3    3    0    0  0.10125640635E+01  0.42266068472E+01 -0.14625840984E+01  0.45856999390E+01  0.51100000000E-03 0.  1.
        -11    1    3    3    0    0  0.45662984010E+01 -0.41868999116E+01 -0.33220437984E+02  0.33793175525E+02  0.51100000000E-03 0. -1.
         12    1    3    3    0    0  0.61773014870E+01 -0.13865540583E+00 -0.70950385646E+01  0.94083925947E+01  0.00000000000E+00 0. -1.
</event>
<event>
 7    1  0.2598019E-009  0.4778727E+02  0.7816164E-02  0.1312668E+00
        -11   -1    0    0    0    0  0.00000000000E+00  0.00000000000E+00  0.45593999997E+02  0.45594000000E+02  0.51100000000E-03 0. -1.
         11   -1    0    0    0    0 -0.00000000000E+00 -0.00000000000E+00 -0.45593999997E+02  0.45594000000E+02  0.51100000000E-03 0.  1.
    9900012    2    1    2    0    0 -0.29601228469E+02 -0.12237004224E+02  0.29285600885E+02  0.47787269379E+02  0.19999992406E+02 0.  0.
        -12    1    1    2    0    0  0.29601228469E+02  0.12237004224E+02 -0.29285600885E+02  0.43400730621E+02  0.00000000000E+00 0.  1.
         11    1    3    3    0    0 -0.22258132649E+01 -0.37991707106E+01  0.88536006334E+01  0.98880830910E+01  0.51100000000E-03 0. -1.
        -11    1    3    3    0    0 -0.77184656670E+01  0.25454946299E+01  0.10611831929E+01  0.81963629247E+01  0.51100000000E-03 0.  1.
        -12    1    3    3    0    0 -0.19656949537E+02 -0.10983328144E+02  0.19370817059E+02  0.29702823363E+02  0.00000000000E+00 0.  1.
</event>
<event>
 7    1  0.2598019E-009  0.4778727E+02  0.7816164E-02  0.1312668E+00
        -11   -1    0    0    0    0  0.00000000000E+00  0.00000000000E+00  0.45593999997E+02  0.45594000000E+02  0.51100000000E-03 0. -1.
         11   -1    0    0    0    0 -0.00000000000E+00 -0.00000000000E+00 -0.45593999997E+02  0.45594000000E+02  0.51100000000E-03 0.  1.
    9900012    2    1    2    0    0  0.30290290069E+02 -0.12080601579E+02  0.28638795756E+02  0.47787271558E+02  0.20000002342E+02 0.  0.
        -12    1    1    2    0    0 -0.30290290069E+02  0.12080601579E+02 -0.28638795756E+02  0.43400728442E+02  0.00000000000E+00 0.  1.
         11    1    3    3    0    0  0.18677842975E+02 -0.14883351618E+02  0.18448423950E+02  0.30178143086E+02  0.51100000000E-03 0. -1.
        -11    1    3    3    0    0  0.66237558836E+01  0.42925670348E+01  0.24198759298E+01  0.82556691752E+01  0.51100000000E-03 0.  1.
        -12    1    3    3    0    0  0.49886912100E+01 -0.14898169954E+01  0.77704958758E+01  0.93534592972E+01  0.00000000000E+00 0.  1.
</event>
<event>
 7    1  0.2598019E-009  0.4778727E+02  0.7816164E-02  0.1312668E+00
        -11   -1    0    0    0    0  0.00000000000E+00  0.00000000000E+00  0.45593999997E+02  0.45594000000E+02  0.51100000000E-03 0.  1.
         11   -1    0    0    0    0 -0.00000000000E+00 -0.00000000000E+00 -0.45593999997E+02  0.45594000000E+02  0.51100000000E-03 0. -1.
    9900012    2    1    2    0    0  0.28618103317E+02  0.22184314723E+02 -0.23926624162E+02  0.47787274189E+02  0.20000014336E+02 0.  0.
        -12    1    1    2    0    0 -0.28618103317E+02 -0.22184314723E+02  0.23926624162E+02  0.43400725811E+02  0.00000000000E+00 0.  1.
         11    1    3    3    0    0  0.17014203981E+02  0.72082468908E+01 -0.27623200089E+01  0.18683478596E+02  0.51100000000E-03 0. -1.
        -11    1    3    3    0    0  0.17507357706E+01  0.49014933998E+01 -0.94085721858E+01  0.10752252979E+02  0.51100000000E-03 0.  1.
         12    1    3    3    0    0  0.98531635648E+01  0.10074574432E+02 -0.11755731967E+02  0.18351542614E+02  0.00000000000E+00 0. -1.
</event>
<event>
 7    1  0.2598019E-009  0.4778727E+02  0.7816164E-02  0.1312668E+00
        -11   -1    0    0    0    0  0.00000000000E+00  0.00000000000E+00  0.45593999997E+02  0.45594000000E+02  0.51100000000E-03 0. -1.
         11   -1    0    0    0    0 -0.00000000000E+00 -0.00000000000E+00 -0.45593999997E+02  0.45594000000E+02  0.51100000000E-03 0.  1.
    9900012    2    1    2    0    0 -0.41509098874E+02  0.11555898198E+02 -0.52037581606E+01  0.47787272224E+02  0.20000005379E+02 0.  0.
        -12    1    1    2    0    0  0.41509098874E+02 -0.11555898198E+02  0.52037581606E+01  0.43400727776E+02  0.00000000000E+00 0.  1.
         11    1    3    3    0    0 -0.18609579417E+01  0.13384486883E+01  0.40830594667E+01  0.46825190039E+01  0.51100000000E-03 0. -1.
        -11    1    3    3    0    0 -0.12926165130E-01  0.92697641892E+00 -0.13359286524E+01  0.16260867112E+01  0.51100000000E-03 0.  1.
         12    1    3    3    0    0 -0.39635214767E+02  0.92904730903E+01 -0.79508889748E+01  0.41478666509E+02  0.00000000000E+00 0. -1.
</event>
<event>
 7    1  0.2598019E-009  0.4778727E+02  0.7816164E-02  0.1312668E+00
        -11   -1    0    0    0    0  0.00000000000E+00  0.00000000000E+00  0.45593999997E+02  0.45594000000E+02  0.51100000000E-03 0.  1.
         11   -1    0    0    0    0 -0.00000000000E+00 -0.00000000000E+00 -0.45593999997E+02  0.45594000000E+02  0.51100000000E-03 0. -1.
    9900012    2    1    2    0    0  0.26750912442E+02  0.53465661635E+01 -0.33755383764E+02  0.47787273977E+02  0.20000013372E+02 0.  0.
        -12    1    1    2    0    0 -0.26750912442E+02 -0.53465661635E+01  0.33755383764E+02  0.43400726023E+02  0.00000000000E+00 0.  1.
         11    1    3    3    0    0  0.14021679458E+01  0.52016276920E+01 -0.14230637336E+02  0.15216242796E+02  0.51100000000E-03 0. -1.
        -11    1    3    3    0    0  0.85857994461E+01 -0.21340944941E+01 -0.44101772238E+01  0.98853414126E+01  0.51100000000E-03 0.  1.
         12    1    3    3    0    0  0.16762945050E+02  0.22790329656E+01 -0.15114569205E+02  0.22685689768E+02  0.00000000000E+00 0. -1.
</event>
<event>
 7    1  0.2598019E-009  0.4778727E+02  0.7816164E-02  0.1312668E+00
        -11   -1    0    0    0    0  0.00000000000E+00  0.00000000000E+00  0.45593999997E+02  0.45594000000E+02  0.51100000000E-03 0.  1.
         11   -1    0    0    0    0 -0.00000000000E+00 -0.00000000000E+00 -0.45593999997E+02  0.45594000000E+02  0.51100000000E-03 0. -1.
    9900012    2    1    2    0    0 -0.24594338813E+02  0.21574707935E+02 -0.28517960272E+02  0.47787267492E+02  0.19999983804E+02 0.  0.
        -12    1    1    2    0    0  0.24594338813E+02 -0.21574707935E+02  0.28517960272E+02  0.43400732508E+02  0.00000000000E+00 0.  1.
         11    1    3    3    0    0 -0.17578307242E+02  0.20294117523E+02 -0.26534431881E+02  0.37748167731E+02  0.51100000000E-03 0. -1.
        -11    1    3    3    0    0 -0.66666394986E+01 -0.16451373757E+01 -0.17330868706E+01  0.70819594430E+01  0.51100000000E-03 0.  1.
         12    1    3    3    0    0 -0.34939207303E+00  0.29257277875E+01 -0.25044152021E+00  0.29571403183E+01  0.00000000000E+00 0. -1.
</event>
<event>
 7    1  0.2598019E-009  0.4778727E+02  0.7816164E-02  0.1312668E+00
        -11   -1    0    0    0    0  0.00000000000E+00  0.00000000000E+00  0.45593999997E+02  0.45594000000E+02  0.51100000000E-03 0. -1.
         11   -1    0    0    0    0 -0.00000000000E+00 -0.00000000000E+00 -0.45593999997E+02  0.45594000000E+02  0.51100000000E-03 0.  1.
    9900012    2    1    2    0    0 -0.39017284058E+02  0.19750571111E+01  0.18904337352E+02  0.47787271014E+02  0.19999999859E+02 0.  0.
        -12    1    1    2    0    0  0.39017284058E+02 -0.19750571111E+01 -0.18904337352E+02  0.43400728986E+02  0.00000000000E+00 0.  1.
         11    1    3    3    0    0 -0.13923359407E+02 -0.16977094546E+01  0.40087867805E+01  0.14588095361E+02  0.51100000000E-03 0. -1.
        -11    1    3    3    0    0 -0.46652899981E+01  0.18397970071E+01 -0.31146489103E+01  0.59034584685E+01  0.51100000000E-03 0.  1.
        -12    1    3    3    0    0 -0.20428634653E+02  0.18329695586E+01  0.18010199482E+02  0.27295717184E+02  0.00000000000E+00 0.  1.
</event>
<event>
 7    1  0.2598019E-009  0.4778727E+02  0.7816164E-02  0.1312668E+00
        -11   -1    0    0    0    0  0.00000000000E+00  0.00000000000E+00  0.45593999997E+02  0.45594000000E+02  0.51100000000E-03 0. -1.
         11   -1    0    0    0    0 -0.00000000000E+00 -0.00000000000E+00 -0.45593999997E+02  0.45594000000E+02  0.51100000000E-03 0.  1.
    9900012    2    1    2    0    0 -0.25286920277E+02  0.35108957728E+02 -0.33994008852E+01  0.47787272169E+02  0.20000005129E+02 0.  0.
        -12    1    1    2    0    0  0.25286920277E+02 -0.35108957728E+02  0.33994008852E+01  0.43400727831E+02  0.00000000000E+00 0.  1.
         11    1    3    3    0    0 -0.86271818341E+01  0.10890463003E+02  0.70522598822E+01  0.15580912057E+02  0.51100000000E-03 0. -1.
        -11    1    3    3    0    0 -0.13534266058E+02  0.14841553083E+02 -0.42283855392E+01  0.20526258796E+02  0.51100000000E-03 0.  1.
         12    1    3    3    0    0 -0.31254723853E+01  0.93769416416E+01 -0.62232752283E+01  0.11680101316E+02  0.00000000000E+00 0. -1.
</event>
<event>
 7    1  0.2598019E-009  0.4778728E+02  0.7816164E-02  0.1312668E+00
        -11   -1    0    0    0    0  0.00000000000E+00  0.00000000000E+00  0.45593999997E+02  0.45594000000E+02  0.51100000000E-03 0.  1.
         11   -1    0    0    0    0 -0.00000000000E+00 -0.00000000000E+00 -0.45593999997E+02  0.45594000000E+02  0.51100000000E-03 0. -1.
    9900012    2    1    2    0    0  0.29909875153E+02 -0.75330105834E+00 -0.31439693685E+02  0.47787280729E+02  0.20000044157E+02 0.  0.
        -12    1    1    2    0    0 -0.29909875153E+02  0.75330105834E+00  0.31439693685E+02  0.43400719271E+02  0.00000000000E+00 0.  1.
         11    1    3    3    0    0 -0.20404219536E+01  0.17143773998E+01 -0.32241340066E+01  0.41829955739E+01  0.51100000000E-03 0. -1.
        -11    1    3    3    0    0  0.92010055857E+01 -0.36806332316E+01 -0.50842311595E+01  0.11137996746E+02  0.51100000000E-03 0.  1.
         12    1    3    3    0    0  0.22749291521E+02  0.12129547735E+01 -0.23131328519E+02  0.32466288409E+02  0.00000000000E+00 0. -1.
</event>
<event>
 7    1  0.2598019E-009  0.4778727E+02  0.7816164E-02  0.1312668E+00
        -11   -1    0    0    0    0  0.00000000000E+00  0.00000000000E+00  0.45593999997E+02  0.45594000000E+02  0.51100000000E-03 0.  1.
         11   -1    0    0    0    0 -0.00000000000E+00 -0.00000000000E+00 -0.45593999997E+02  0.45594000000E+02  0.51100000000E-03 0. -1.
    9900012    2    1    2    0    0  0.21074090462E+02  0.11772945625E+01 -0.37922551982E+02  0.47787271203E+02  0.20000000725E+02 0.  0.
        -12    1    1    2    0    0 -0.21074090462E+02 -0.11772945625E+01  0.37922551982E+02  0.43400728797E+02  0.00000000000E+00 0.  1.
         11    1    3    3    0    0 -0.16871812555E+01 -0.78906736506E+00  0.66092534722E+00  0.19763680000E+01  0.51100000000E-03 0. -1.
        -11    1    3    3    0    0  0.10508219544E+02 -0.23664273172E+01 -0.11420061552E+02  0.15698422289E+02  0.51100000000E-03 0.  1.
         12    1    3    3    0    0  0.12253052174E+02  0.43327892448E+01 -0.27163415776E+02  0.30112480915E+02  0.00000000000E+00 0. -1.
</event>
<event>
 7    1  0.2598019E-009  0.4778728E+02  0.7816164E-02  0.1312668E+00
        -11   -1    0    0    0    0  0.00000000000E+00  0.00000000000E+00  0.45593999997E+02  0.45594000000E+02  0.51100000000E-03 0.  1.
         11   -1    0    0    0    0 -0.00000000000E+00 -0.00000000000E+00 -0.45593999997E+02  0.45594000000E+02  0.51100000000E-03 0. -1.
    9900012    2    1    2    0    0  0.21642531676E+02  0.79087770837E+01 -0.36778728743E+02  0.47787276270E+02  0.20000023828E+02 0.  0.
        -12    1    1    2    0    0 -0.21642531676E+02 -0.79087770837E+01  0.36778728743E+02  0.43400723730E+02  0.00000000000E+00 0.  1.
         11    1    3    3    0    0  0.35351950002E+01 -0.14403817750E+01 -0.11059576918E+02  0.11699852358E+02  0.51100000000E-03 0. -1.
        -11    1    3    3    0    0  0.41004234291E+01  0.97095431704E+01 -0.67936201001E+01  0.12539616230E+02  0.51100000000E-03 0.  1.
        -12    1    3    3    0    0  0.14006913246E+02 -0.36038431167E+00 -0.18925531725E+02  0.23547807682E+02  0.00000000000E+00 0.  1.
</event>
<event>
 7    1  0.2598019E-009  0.4778728E+02  0.7816164E-02  0.1312668E+00
        -11   -1    0    0    0    0  0.00000000000E+00  0.00000000000E+00  0.45593999997E+02  0.45594000000E+02  0.51100000000E-03 0.  1.
         11   -1    0    0    0    0 -0.00000000000E+00 -0.00000000000E+00 -0.45593999997E+02  0.45594000000E+02  0.51100000000E-03 0. -1.
    9900012    2    1    2    0    0  0.25892121350E+02  0.50118771335E+00 -0.34827709547E+02  0.47787280082E+02  0.20000041206E+02 0.  0.
        -12    1    1    2    0    0 -0.25892121350E+02 -0.50118771335E+00  0.34827709547E+02  0.43400719918E+02  0.00000000000E+00 0.  1.
         11    1    3    3    0    0 -0.70464305599E+00 -0.11865762033E+01  0.17255306286E+01  0.22095115148E+01  0.51100000000E-03 0.  1.
        -11    1    3    3    0    0  0.23943623660E+02  0.29403597110E+01 -0.30829746041E+02  0.39146086272E+02  0.51100000000E-03 0. -1.
        -12    1    3    3    0    0  0.26531407456E+01 -0.12525957943E+01 -0.57234941346E+01  0.64316822954E+01  0.00000000000E+00 0.  1.
</event>
<event>
 7    1  0.2598019E-009  0.4778727E+02  0.7816164E-02  0.1312668E+00
        -11   -1    0    0    0    0  0.00000000000E+00  0.00000000000E+00  0.45593999997E+02  0.45594000000E+02  0.51100000000E-03 0. -1.
         11   -1    0    0    0    0 -0.00000000000E+00 -0.00000000000E+00 -0.45593999997E+02  0.45594000000E+02  0.51100000000E-03 0.  1.
    9900012    2    1    2    0    0 -0.70731490923E+01  0.29960610188E+02  0.30593389075E+02  0.47787273554E+02  0.20000011443E+02 0.  0.
        -12    1    1    2    0    0  0.70731490923E+01 -0.29960610188E+02 -0.30593389075E+02  0.43400726446E+02  0.00000000000E+00 0.  1.
         11    1    3    3    0    0 -0.11709153828E+02  0.13947700040E+02  0.11570763027E+02  0.21576032468E+02  0.51100000000E-03 0. -1.
        -11    1    3    3    0    0  0.44560849091E+01  0.57451246619E+01  0.10972126671E+02  0.13162473705E+02  0.51100000000E-03 0.  1.
        -12    1    3    3    0    0  0.17991982665E+00  0.10267785486E+02  0.80504993770E+01  0.13048767381E+02  0.00000000000E+00 0.  1.
</event>
<event>
 7    1  0.2598019E-009  0.4778728E+02  0.7816164E-02  0.1312668E+00
        -11   -1    0    0    0    0  0.00000000000E+00  0.00000000000E+00  0.45593999997E+02  0.45594000000E+02  0.51100000000E-03 0.  1.
         11   -1    0    0    0    0 -0.00000000000E+00 -0.00000000000E+00 -0.45593999997E+02  0.45594000000E+02  0.51100000000E-03 0. -1.
    9900012    2    1    2    0    0 -0.26258767958E+02  0.36470418270E+01 -0.34362749884E+02  0.47787281246E+02  0.20000046512E+02 0.  0.
        -12    1    1    2    0    0  0.26258767958E+02 -0.36470418270E+01  0.34362749884E+02  0.43400718754E+02  0.00000000000E+00 0.  1.
         11    1    3    3    0    0 -0.19161071345E+02 -0.54078859755E+01 -0.22604563343E+02  0.30122386526E+02  0.51100000000E-03 0. -1.
        -11    1    3    3    0    0 -0.55878752495E+01  0.80285800136E+01 -0.56642529511E+01  0.11303371559E+02  0.51100000000E-03 0.  1.
         12    1    3    3    0    0 -0.15098213639E+01  0.10263477889E+01 -0.60939335900E+01  0.63615231615E+01  0.00000000000E+00 0. -1.
</event>
<event>
 7    1  0.2598019E-009  0.4778727E+02  0.7816164E-02  0.1312668E+00
        -11   -1    0    0    0    0  0.00000000000E+00  0.00000000000E+00  0.45593999997E+02  0.45594000000E+02  0.51100000000E-03 0.  1.
         11   -1    0    0    0    0 -0.00000000000E+00 -0.00000000000E+00 -0.45593999997E+02  0.45594000000E+02  0.51100000000E-03 0. -1.
    9900012    2    1    2    0    0 -0.30641206037E+02 -0.30667300448E+02 -0.20631928856E+01  0.47787267413E+02  0.19999983443E+02 0.  0.
        -12    1    1    2    0    0  0.30641206037E+02  0.30667300448E+02  0.20631928856E+01  0.43400732587E+02  0.00000000000E+00 0.  1.
         11    1    3    3    0    0 -0.48669548660E+01 -0.18210799121E+02 -0.24295820080E+01  0.19005876020E+02  0.51100000000E-03 0. -1.
        -11    1    3    3    0    0 -0.16646816547E+02 -0.69151459737E+01  0.12351997154E+01  0.18068244618E+02  0.51100000000E-03 0.  1.
        -12    1    3    3    0    0 -0.91274346244E+01 -0.55413553539E+01 -0.86881059303E+00  0.10713146775E+02  0.00000000000E+00 0.  1.
</event>
<event>
 7    1  0.2598019E-009  0.4778733E+02  0.7816164E-02  0.1312667E+00
        -11   -1    0    0    0    0  0.00000000000E+00  0.00000000000E+00  0.45593999997E+02  0.45594000000E+02  0.51100000000E-03 0. -1.
         11   -1    0    0    0    0 -0.00000000000E+00 -0.00000000000E+00 -0.45593999997E+02  0.45594000000E+02  0.51100000000E-03 0.  1.
    9900012    2    1    2    0    0  0.54738289668E+01 -0.42871858906E+02 -0.39571337657E+01  0.47787331834E+02  0.20000277161E+02 0.  0.
        -12    1    1    2    0    0 -0.54738289668E+01  0.42871858906E+02  0.39571337657E+01  0.43400668166E+02  0.00000000000E+00 0.  1.
         11    1    3    3    0    0  0.10318350088E+02 -0.19720215717E+02 -0.36109535364E+01  0.22547599477E+02  0.51100000000E-03 0. -1.
        -11    1    3    3    0    0 -0.31335360484E+01 -0.24415956108E+01 -0.18953697583E+01  0.44014615839E+01  0.51100000000E-03 0.  1.
         12    1    3    3    0    0 -0.17109850729E+01 -0.20710047578E+02  0.15491895290E+01  0.20838270773E+02  0.00000000000E+00 0. -1.
</event>
<event>
 7    1  0.2598019E-009  0.4778727E+02  0.7816164E-02  0.1312668E+00
        -11   -1    0    0    0    0  0.00000000000E+00  0.00000000000E+00  0.45593999997E+02  0.45594000000E+02  0.51100000000E-03 0.  1.
         11   -1    0    0    0    0 -0.00000000000E+00 -0.00000000000E+00 -0.45593999997E+02  0.45594000000E+02  0.51100000000E-03 0. -1.
    9900012    2    1    2    0    0 -0.75252891836E+01  0.36065680702E+01 -0.42590912001E+02  0.47787273098E+02  0.20000009363E+02 0.  0.
        -12    1    1    2    0    0  0.75252891836E+01 -0.36065680702E+01  0.42590912001E+02  0.43400726902E+02  0.00000000000E+00 0.  1.
         11    1    3    3    0    0  0.10367156668E+01 -0.46367401912E+01 -0.49432223470E+01  0.68563537254E+01  0.51100000000E-03 0. -1.
        -11    1    3    3    0    0 -0.10932899112E+02  0.50030558718E+01 -0.29161224526E+02  0.31542604001E+02  0.51100000000E-03 0.  1.
         12    1    3    3    0    0  0.23708942618E+01  0.32402523896E+01 -0.84864651283E+01  0.93883153719E+01  0.00000000000E+00 0. -1.
</event>
<event>
 7    1  0.2598019E-009  0.4778727E+02  0.7816164E-02  0.1312668E+00
        -11   -1    0    0    0    0  0.00000000000E+00  0.00000000000E+00  0.45593999997E+02  0.45594000000E+02  0.51100000000E-03 0. -1.
         11   -1    0    0    0    0 -0.00000000000E+00 -0.00000000000E+00 -0.45593999997E+02  0.45594000000E+02  0.51100000000E-03 0.  1.
    9900012    2    1    2    0    0  0.18683502007E+02 -0.39165325263E+02  0.79219267140E+00  0.47787268216E+02  0.19999987103E+02 0.  0.
        -12    1    1    2    0    0 -0.18683502007E+02  0.39165325263E+02 -0.79219267140E+00  0.43400731784E+02  0.00000000000E+00 0.  1.
         11    1    3    3    0    0  0.20866610756E+02 -0.26389191948E+02  0.26074598608E+01  0.33743202921E+02  0.51100000000E-03 0. -1.
        -11    1    3    3    0    0 -0.19586529403E+01 -0.11795861267E+01 -0.70338636654E+00  0.23921742020E+01  0.51100000000E-03 0.  1.
         12    1    3    3    0    0 -0.22445580931E+00 -0.11596547188E+02 -0.11118808229E+01  0.11651891093E+02  0.00000000000E+00 0. -1.
</event>
<event>
 7    1  0.2598019E-009  0.4778727E+02  0.7816164E-02  0.1312668E+00
        -11   -1    0    0    0    0  0.00000000000E+00  0.00000000000E+00  0.45593999997E+02  0.45594000000E+02  0.51100000000E-03 0.  1.
         11   -1    0    0    0    0 -0.00000000000E+00 -0.00000000000E+00 -0.45593999997E+02  0.45594000000E+02  0.51100000000E-03 0. -1.
    9900012    2    1    2    0    0  0.98512747118E+01 -0.39090761220E+01 -0.42086756250E+02  0.47787267965E+02  0.19999985959E+02 0.  0.
        -12    1    1    2    0    0 -0.98512747118E+01  0.39090761220E+01  0.42086756250E+02  0.43400732035E+02  0.00000000000E+00 0.  1.
         11    1    3    3    0    0 -0.30109191107E+01 -0.60847644096E+01 -0.96880057369E+01  0.11829938598E+02  0.51100000000E-03 0. -1.
        -11    1    3    3    0    0  0.37154481504E+01  0.37291776467E+01 -0.18592495746E+02  0.19323359418E+02  0.51100000000E-03 0.  1.
         12    1    3    3    0    0  0.91467456720E+01 -0.15534893590E+01 -0.13806254767E+02  0.16633969949E+02  0.00000000000E+00 0. -1.
</event>
<event>
 7    1  0.2598019E-009  0.4778728E+02  0.7816164E-02  0.1312668E+00
        -11   -1    0    0    0    0  0.00000000000E+00  0.00000000000E+00  0.45593999997E+02  0.45594000000E+02  0.51100000000E-03 0. -1.
         11   -1    0    0    0    0 -0.00000000000E+00 -0.00000000000E+00 -0.45593999997E+02  0.45594000000E+02  0.51100000000E-03 0.  1.
    9900012    2    1    2    0    0  0.32180969141E+02  0.24832356705E+02  0.15210582728E+02  0.47787279484E+02  0.20000038479E+02 0.  0.
        -12    1    1    2    0    0 -0.32180969141E+02 -0.24832356705E+02 -0.15210582728E+02  0.43400720516E+02  0.00000000000E+00 0.  1.
         11    1    3    3    0    0  0.59411309443E+01  0.62250500992E+01  0.33668821969E+00  0.86117155581E+01  0.51100000000E-03 0. -1.
        -11    1    3    3    0    0  0.12840602584E+01  0.87243494609E+01  0.76383388731E+00  0.88513573383E+01  0.51100000000E-03 0.  1.
        -12    1    3    3    0    0  0.24955777938E+02  0.98829571453E+01  0.14110060621E+02  0.30324206587E+02  0.00000000000E+00 0.  1.
</event>
<event>
 7    1  0.2598019E-009  0.4778728E+02  0.7816164E-02  0.1312668E+00
        -11   -1    0    0    0    0  0.00000000000E+00  0.00000000000E+00  0.45593999997E+02  0.45594000000E+02  0.51100000000E-03 0.  1.
         11   -1    0    0    0    0 -0.00000000000E+00 -0.00000000000E+00 -0.45593999997E+02  0.45594000000E+02  0.51100000000E-03 0. -1.
    9900012    2    1    2    0    0 -0.67902930472E+01 -0.16410043558E+02 -0.39600819302E+02  0.47787279976E+02  0.20000040721E+02 0.  0.
        -12    1    1    2    0    0  0.67902930472E+01  0.16410043558E+02  0.39600819302E+02  0.43400720024E+02  0.00000000000E+00 0.  1.
         11    1    3    3    0    0 -0.66876770399E+01 -0.50480390972E+01 -0.74226012410E+01  0.11193870303E+02  0.51100000000E-03 0. -1.
        -11    1    3    3    0    0  0.31291774321E+01 -0.28379681735E+01 -0.23928804420E+02  0.24298837338E+02  0.51100000000E-03 0.  1.
        -12    1    3    3    0    0 -0.32317934394E+01 -0.85240362876E+01 -0.82494136406E+01  0.12294572334E+02  0.00000000000E+00 0.  1.
</event>
<event>
 7    1  0.2598019E-009  0.4778728E+02  0.7816164E-02  0.1312668E+00
        -11   -1    0    0    0    0  0.00000000000E+00  0.00000000000E+00  0.45593999997E+02  0.45594000000E+02  0.51100000000E-03 0. -1.
         11   -1    0    0    0    0 -0.00000000000E+00 -0.00000000000E+00 -0.45593999997E+02  0.45594000000E+02  0.51100000000E-03 0.  1.
    9900012    2    1    2    0    0 -0.34686919756E+02  0.24134933239E+02  0.98967390384E+01  0.47787275948E+02  0.20000022357E+02 0.  0.
        -12    1    1    2    0    0  0.34686919756E+02 -0.24134933239E+02 -0.98967390384E+01  0.43400724052E+02  0.00000000000E+00 0.  1.
         11    1    3    3    0    0 -0.22555974466E+01  0.15062380612E+01  0.53592162049E+01  0.60064691400E+01  0.51100000000E-03 0. -1.
        -11    1    3    3    0    0 -0.31763008164E+02  0.19976108236E+02  0.13035560344E+01  0.37545077527E+02  0.51100000000E-03 0.  1.
        -12    1    3    3    0    0 -0.66831414524E+00  0.26525869427E+01  0.32339667991E+01  0.42357292811E+01  0.00000000000E+00 0.  1.
</event>
<event>
 7    1  0.2598019E-009  0.4778727E+02  0.7816164E-02  0.1312668E+00
        -11   -1    0    0    0    0  0.00000000000E+00  0.00000000000E+00  0.45593999997E+02  0.45594000000E+02  0.51100000000E-03 0.  1.
         11   -1    0    0    0    0 -0.00000000000E+00 -0.00000000000E+00 -0.45593999997E+02  0.45594000000E+02  0.51100000000E-03 0. -1.
    9900012    2    1    2    0    0  0.40419883474E+02 -0.10047501793E+02 -0.12202624597E+02  0.47787270520E+02  0.19999997608E+02 0.  0.
        -12    1    1    2    0    0 -0.40419883474E+02  0.10047501793E+02  0.12202624597E+02  0.43400729480E+02  0.00000000000E+00 0.  1.
         11    1    3    3    0    0  0.14599164283E+02 -0.71584567503E+01  0.22414273257E+00  0.16261283499E+02  0.51100000000E-03 0. -1.
        -11    1    3    3    0    0  0.83264983973E+01 -0.13503051776E+00 -0.10947178652E+02  0.13754618479E+02  0.51100000000E-03 0.  1.
        -12    1    3    3    0    0  0.17494220794E+02 -0.27540145244E+01 -0.14795886781E+01  0.17771368542E+02  0.00000000000E+00 0.  1.
</event>
<event>
 7    1  0.2598019E-009  0.4778727E+02  0.7816164E-02  0.1312668E+00
        -11   -1    0    0    0    0  0.00000000000E+00  0.00000000000E+00  0.45593999997E+02  0.45594000000E+02  0.51100000000E-03 0.  1.
         11   -1    0    0    0    0 -0.00000000000E+00 -0.00000000000E+00 -0.45593999997E+02  0.45594000000E+02  0.51100000000E-03 0. -1.
    9900012    2    1    2    0    0  0.30831464209E+01  0.41673135276E+02 -0.11724648412E+02  0.47787269868E+02  0.19999994638E+02 0.  0.
        -12    1    1    2    0    0 -0.30831464209E+01 -0.41673135276E+02  0.11724648412E+02  0.43400730132E+02  0.00000000000E+00 0.  1.
         11    1    3    3    0    0  0.22426348433E+01  0.24715140019E+02 -0.33953488461E+00  0.24819001620E+02  0.51100000000E-03 0. -1.
        -11    1    3    3    0    0  0.39020119272E+01  0.32176874347E+01 -0.61182189983E+01  0.79379980776E+01  0.51100000000E-03 0.  1.
         12    1    3    3    0    0 -0.30615003496E+01  0.13740307822E+02 -0.52668945292E+01  0.15030270171E+02  0.00000000000E+00 0. -1.
</event>
<event>
 7    1  0.2598019E-009  0.4778727E+02  0.7816164E-02  0.1312668E+00
        -11   -1    0    0    0    0  0.00000000000E+00  0.00000000000E+00  0.45593999997E+02  0.45594000000E+02  0.51100000000E-03 0.  1.
         11   -1    0    0    0    0 -0.00000000000E+00 -0.00000000000E+00 -0.45593999997E+02  0.45594000000E+02  0.51100000000E-03 0. -1.
    9900012    2    1    2    0    0  0.74246663738E+01  0.22034915560E+02 -0.36646419888E+02  0.47787271145E+02  0.20000000459E+02 0.  0.
        -12    1    1    2    0    0 -0.74246663738E+01 -0.22034915560E+02  0.36646419888E+02  0.43400728855E+02  0.00000000000E+00 0.  1.
         11    1    3    3    0    0 -0.35167629707E+01  0.15198603304E+02 -0.21537624108E+02  0.26593879308E+02  0.51100000000E-03 0. -1.
        -11    1    3    3    0    0  0.93910846736E+01  0.23288430144E+01 -0.12340048540E+02  0.15680968699E+02  0.51100000000E-03 0.  1.
        -12    1    3    3    0    0  0.15503446709E+01  0.45074692417E+01 -0.27687472406E+01  0.55124231374E+01  0.00000000000E+00 0.  1.
</event>
<event>
 7    1  0.2598019E-009  0.4778727E+02  0.7816164E-02  0.1312668E+00
        -11   -1    0    0    0    0  0.00000000000E+00  0.00000000000E+00  0.45593999997E+02  0.45594000000E+02  0.51100000000E-03 0.  1.
         11   -1    0    0    0    0 -0.00000000000E+00 -0.00000000000E+00 -0.45593999997E+02  0.45594000000E+02  0.51100000000E-03 0. -1.
    9900012    2    1    2    0    0  0.14692533491E+02  0.37134123496E+02  0.16994399983E+02  0.47787270755E+02  0.19999998683E+02 0.  0.
        -12    1    1    2    0    0 -0.14692533491E+02 -0.37134123496E+02 -0.16994399983E+02  0.43400729245E+02  0.00000000000E+00 0.  1.
         11    1    3    3    0    0  0.43108274071E+01  0.97323573290E+01  0.24315714446E+01  0.10918541664E+02  0.51100000000E-03 0.  1.
        -11    1    3    3    0    0  0.13870359116E+02  0.25508398747E+02  0.15317644291E+02  0.32828272808E+02  0.51100000000E-03 0. -1.
        -12    1    3    3    0    0 -0.34886530320E+01  0.18933674197E+01 -0.75481575257E+00  0.40404562841E+01  0.00000000000E+00 0.  1.
</event>
<event>
 7    1  0.2598019E-009  0.4778728E+02  0.7816164E-02  0.1312668E+00
        -11   -1    0    0    0    0  0.00000000000E+00  0.00000000000E+00  0.45593999997E+02  0.45594000000E+02  0.51100000000E-03 0. -1.
         11   -1    0    0    0    0 -0.00000000000E+00 -0.00000000000E+00 -0.45593999997E+02  0.45594000000E+02  0.51100000000E-03 0.  1.
    9900012    2    1    2    0    0  0.25320554233E+02 -0.22215053529E+02 -0.27367569078E+02  0.47787275269E+02  0.20000019260E+02 0.  0.
        -12    1    1    2    0    0 -0.25320554233E+02  0.22215053529E+02  0.27367569078E+02  0.43400724731E+02  0.00000000000E+00 0.  1.
         11    1    3    3    0    0  0.15472942830E+02 -0.56565967063E+01 -0.67828130984E+01  0.17816161200E+02  0.51100000000E-03 0. -1.
        -11    1    3    3    0    0  0.68724685792E+01 -0.14342368407E+02 -0.20882885200E+02  0.26249366667E+02  0.51100000000E-03 0.  1.
        -12    1    3    3    0    0  0.29751428238E+01 -0.22160884152E+01  0.29812922009E+00  0.37217474012E+01  0.00000000000E+00 0.  1.
</event>
<event>
 7    1  0.2598019E-009  0.4778727E+02  0.7816164E-02  0.1312668E+00
        -11   -1    0    0    0    0  0.00000000000E+00  0.00000000000E+00  0.45593999997E+02  0.45594000000E+02  0.51100000000E-03 0. -1.
         11   -1    0    0    0    0 -0.00000000000E+00 -0.00000000000E+00 -0.45593999997E+02  0.45594000000E+02  0.51100000000E-03 0.  1.
    9900012    2    1    2    0    0 -0.24143738867E+02  0.23689567423E+02  0.27193887971E+02  0.47787271042E+02  0.19999999989E+02 0.  0.
        -12    1    1    2    0    0  0.24143738867E+02 -0.23689567423E+02 -0.27193887971E+02  0.43400728958E+02  0.00000000000E+00 0.  1.
         11    1    3    3    0    0  0.22132913168E+01 -0.23443095502E+00  0.29627387323E+01  0.37055954154E+01  0.51100000000E-03 0. -1.
        -11    1    3    3    0    0 -0.17231653962E+02  0.21083696015E+02  0.17049016817E+02  0.32126641757E+02  0.51100000000E-03 0.  1.
         12    1    3    3    0    0 -0.91253762221E+01  0.28403023629E+01  0.71821324213E+01  0.11955033870E+02  0.00000000000E+00 0. -1.
</event>
<event>
 7    1  0.2598019E-009  0.4778727E+02  0.7816164E-02  0.1312668E+00
        -11   -1    0    0    0    0  0.00000000000E+00  0.00000000000E+00  0.45593999997E+02  0.45594000000E+02  0.51100000000E-03 0. -1.
         11   -1    0    0    0    0 -0.00000000000E+00 -0.00000000000E+00 -0.45593999997E+02  0.45594000000E+02  0.51100000000E-03 0.  1.
    9900012    2    1    2    0    0  0.34038534550E+02  0.30288177382E+01  0.26754959865E+02  0.47787269032E+02  0.19999990824E+02 0.  0.
        -12    1    1    2    0    0 -0.34038534550E+02 -0.30288177382E+01 -0.26754959865E+02  0.43400730968E+02  0.00000000000E+00 0.  1.
         11    1    3    3    0    0  0.30465203300E+02 -0.98501341778E+00  0.18682936938E+02  0.35751237691E+02  0.51100000000E-03 0. -1.
        -11    1    3    3    0    0 -0.31019420152E+00  0.49242534749E+01  0.46659579785E+01  0.67908509663E+01  0.51100000000E-03 0.  1.
        -12    1    3    3    0    0  0.38835254506E+01 -0.91042231896E+00  0.34060649490E+01  0.52451803745E+01  0.00000000000E+00 0.  1.
</event>
<event>
 7    1  0.2598019E-009  0.4778729E+02  0.7816164E-02  0.1312668E+00
        -11   -1    0    0    0    0  0.00000000000E+00  0.00000000000E+00  0.45593999997E+02  0.45594000000E+02  0.51100000000E-03 0.  1.
         11   -1    0    0    0    0 -0.00000000000E+00 -0.00000000000E+00 -0.45593999997E+02  0.45594000000E+02  0.51100000000E-03 0. -1.
    9900012    2    1    2    0    0  0.63023769443E+01 -0.14417246310E+02 -0.40448044438E+02  0.47787294416E+02  0.20000106559E+02 0.  0.
        -12    1    1    2    0    0 -0.63023769443E+01  0.14417246310E+02  0.40448044438E+02  0.43400705584E+02  0.00000000000E+00 0.  1.
         11    1    3    3    0    0  0.78176867059E+01 -0.13834737541E+02 -0.20262703311E+02  0.25750598711E+02  0.51100000000E-03 0. -1.
        -11    1    3    3    0    0 -0.47056121216E+01 -0.22394341932E+01 -0.10967236614E+02  0.12142410393E+02  0.51100000000E-03 0.  1.
         12    1    3    3    0    0  0.31903023600E+01  0.16569254239E+01 -0.92181045133E+01  0.98942853115E+01  0.00000000000E+00 0. -1.
</event>
<event>
 7    1  0.2598019E-009  0.4778727E+02  0.7816164E-02  0.1312668E+00
        -11   -1    0    0    0    0  0.00000000000E+00  0.00000000000E+00  0.45593999997E+02  0.45594000000E+02  0.51100000000E-03 0.  1.
         11   -1    0    0    0    0 -0.00000000000E+00 -0.00000000000E+00 -0.45593999997E+02  0.45594000000E+02  0.51100000000E-03 0. -1.
    9900012    2    1    2    0    0 -0.11697302298E+02 -0.12440423763E+02 -0.39900277948E+02  0.47787271840E+02  0.20000003628E+02 0.  0.
        -12    1    1    2    0    0  0.11697302298E+02  0.12440423763E+02  0.39900277948E+02  0.43400728160E+02  0.00000000000E+00 0.  1.
         11    1    3    3    0    0 -0.31532178744E+01 -0.43453571826E+01 -0.17931670517E+02  0.18718165503E+02  0.51100000000E-03 0. -1.
        -11    1    3    3    0    0 -0.10249925648E+02 -0.10449548130E+02 -0.12780026542E+02  0.19431497899E+02  0.51100000000E-03 0.  1.
        -12    1    3    3    0    0  0.17058412244E+01  0.23544815500E+01 -0.91885808895E+01  0.96376084385E+01  0.00000000000E+00 0.  1.
</event>
<event>
 7    1  0.2598019E-009  0.4778728E+02  0.7816164E-02  0.1312668E+00
        -11   -1    0    0    0    0  0.00000000000E+00  0.00000000000E+00  0.45593999997E+02  0.45594000000E+02  0.51100000000E-03 0.  1.
         11   -1    0    0    0    0 -0.00000000000E+00 -0.00000000000E+00 -0.45593999997E+02  0.45594000000E+02  0.51100000000E-03 0. -1.
    9900012    2    1    2    0    0  0.14570750674E+02  0.52700519687E-01 -0.40881697053E+02  0.47787277581E+02  0.20000029804E+02 0.  0.
        -12    1    1    2    0    0 -0.14570750674E+02 -0.52700519687E-01  0.40881697053E+02  0.43400722419E+02  0.00000000000E+00 0.  1.
         11    1    3    3    0    0  0.53330417307E+01  0.44174706568E+01 -0.29350181622E+02  0.30156069747E+02  0.51100000000E-03 0. -1.
        -11    1    3    3    0    0  0.90117401615E+00 -0.41783207898E+01 -0.13749168515E+01  0.44900863955E+01  0.51100000000E-03 0.  1.
        -12    1    3    3    0    0  0.83365349275E+01 -0.18644934732E+00 -0.10156598579E+02  0.13141121438E+02  0.00000000000E+00 0.  1.
</event>
<event>
 7    1  0.2598019E-009  0.4778727E+02  0.7816164E-02  0.1312668E+00
        -11   -1    0    0    0    0  0.00000000000E+00  0.00000000000E+00  0.45593999997E+02  0.45594000000E+02  0.51100000000E-03 0.  1.
         11   -1    0    0    0    0 -0.00000000000E+00 -0.00000000000E+00 -0.45593999997E+02  0.45594000000E+02  0.51100000000E-03 0. -1.
    9900012    2    1    2    0    0 -0.24767514659E+02  0.12870506081E+02 -0.33234676562E+02  0.47787269184E+02  0.19999991517E+02 0.  0.
        -12    1    1    2    0    0  0.24767514659E+02 -0.12870506081E+02  0.33234676562E+02  0.43400730816E+02  0.00000000000E+00 0.  1.
         11    1    3    3    0    0 -0.17038169778E+02  0.56018175789E+01 -0.86633969762E+01  0.19918183577E+02  0.51100000000E-03 0. -1.
        -11    1    3    3    0    0  0.78914354911E-01  0.26419955104E+01 -0.12443951010E+02  0.12721567700E+02  0.51100000000E-03 0.  1.
         12    1    3    3    0    0 -0.78082592357E+01  0.46266929915E+01 -0.12127328576E+02  0.15147517906E+02  0.00000000000E+00 0. -1.
</event>
<event>
 7    1  0.2598019E-009  0.4778727E+02  0.7816164E-02  0.1312668E+00
        -11   -1    0    0    0    0  0.00000000000E+00  0.00000000000E+00  0.45593999997E+02  0.45594000000E+02  0.51100000000E-03 0.  1.
         11   -1    0    0    0    0 -0.00000000000E+00 -0.00000000000E+00 -0.45593999997E+02  0.45594000000E+02  0.51100000000E-03 0. -1.
    9900012    2    1    2    0    0  0.42443781554E+02  0.52265481694E+01 -0.74048553109E+01  0.47787270968E+02  0.19999999652E+02 0.  0.
        -12    1    1    2    0    0 -0.42443781554E+02 -0.52265481694E+01  0.74048553109E+01  0.43400729032E+02  0.00000000000E+00 0.  1.
         11    1    3    3    0    0  0.35337841651E+01  0.50203736463E+01 -0.51344953900E+01  0.80034258443E+01  0.51100000000E-03 0. -1.
        -11    1    3    3    0    0  0.24081151474E+02  0.38092010073E+01 -0.26092731029E+01  0.24519791496E+02  0.51100000000E-03 0.  1.
         12    1    3    3    0    0  0.14828845914E+02 -0.36030264842E+01  0.33891318208E+00  0.15264053627E+02  0.00000000000E+00 0. -1.
</event>
<event>
 7    1  0.2598019E-009  0.4778727E+02  0.7816164E-02  0.1312668E+00
        -11   -1    0    0    0    0  0.00000000000E+00  0.00000000000E+00  0.45593999997E+02  0.45594000000E+02  0.51100000000E-03 0.  1.
         11   -1    0    0    0    0 -0.00000000000E+00 -0.00000000000E+00 -0.45593999997E+02  0.45594000000E+02  0.51100000000E-03 0. -1.
    9900012    2    1    2    0    0 -0.20870463054E+02 -0.12065966966E+02 -0.36089605976E+02  0.47787269056E+02  0.19999990936E+02 0.  0.
        -12    1    1    2    0    0  0.20870463054E+02  0.12065966966E+02  0.36089605976E+02  0.43400730944E+02  0.00000000000E+00 0.  1.
         11    1    3    3    0    0 -0.98903660262E+01 -0.80839316282E+01 -0.73510738051E+01  0.14737963803E+02  0.51100000000E-03 0.  1.
        -11    1    3    3    0    0 -0.10574066331E+02 -0.40763809347E+01 -0.29814375406E+02  0.31895528549E+02  0.51100000000E-03 0. -1.
        -12    1    3    3    0    0 -0.40603069631E+00  0.94345596565E-01  0.10758432350E+01  0.11537767047E+01  0.00000000000E+00 0.  1.
</event>
<event>
 7    1  0.2598019E-009  0.4778726E+02  0.7816164E-02  0.1312668E+00
        -11   -1    0    0    0    0  0.00000000000E+00  0.00000000000E+00  0.45593999997E+02  0.45594000000E+02  0.51100000000E-03 0.  1.
         11   -1    0    0    0    0 -0.00000000000E+00 -0.00000000000E+00 -0.45593999997E+02  0.45594000000E+02  0.51100000000E-03 0. -1.
    9900012    2    1    2    0    0  0.85431256646E+01  0.36946279461E+02 -0.21109512358E+02  0.47787261825E+02  0.19999957964E+02 0.  0.
        -12    1    1    2    0    0 -0.85431256646E+01 -0.36946279461E+02  0.21109512358E+02  0.43400738175E+02  0.00000000000E+00 0.  1.
         11    1    3    3    0    0  0.47623661001E+01  0.19875029394E+02 -0.20194837196E+02  0.28732009570E+02  0.51100000000E-03 0. -1.
        -11    1    3    3    0    0  0.33652782187E+01  0.62961267055E+01  0.27734043766E+01  0.76588563818E+01  0.51100000000E-03 0.  1.
        -12    1    3    3    0    0  0.41548134591E+00  0.10775123362E+02 -0.36880795385E+01  0.11396395873E+02  0.00000000000E+00 0.  1.
</event>
<event>
 7    1  0.2598019E-009  0.4778727E+02  0.7816164E-02  0.1312668E+00
        -11   -1    0    0    0    0  0.00000000000E+00  0.00000000000E+00  0.45593999997E+02  0.45594000000E+02  0.51100000000E-03 0. -1.
         11   -1    0    0    0    0 -0.00000000000E+00 -0.00000000000E+00 -0.45593999997E+02  0.45594000000E+02  0.51100000000E-03 0.  1.
    9900012    2    1    2    0    0  0.42735143287E+02  0.10001434818E+01 -0.75053738711E+01  0.47787269641E+02  0.19999993602E+02 0.  0.
        -12    1    1    2    0    0 -0.42735143287E+02 -0.10001434818E+01  0.75053738711E+01  0.43400730359E+02  0.00000000000E+00 0.  1.
         11    1    3    3    0    0  0.13672127891E+02 -0.39662845303E+01 -0.71014007812E+01  0.15908751911E+02  0.51100000000E-03 0. -1.
        -11    1    3    3    0    0  0.22744307999E+02  0.88622372764E+01 -0.10089985627E+01  0.24430736261E+02  0.51100000000E-03 0.  1.
        -12    1    3    3    0    0  0.63187073967E+01 -0.38958092643E+01  0.60502547280E+00  0.74477814691E+01  0.00000000000E+00 0.  1.
</event>
<event>
 7    1  0.2598019E-009  0.4778726E+02  0.7816164E-02  0.1312668E+00
        -11   -1    0    0    0    0  0.00000000000E+00  0.00000000000E+00  0.45593999997E+02  0.45594000000E+02  0.51100000000E-03 0. -1.
         11   -1    0    0    0    0 -0.00000000000E+00 -0.00000000000E+00 -0.45593999997E+02  0.45594000000E+02  0.51100000000E-03 0.  1.
    9900012    2    1    2    0    0  0.24316711816E+02  0.27381594893E+02  0.23293123191E+02  0.47787264978E+02  0.19999972341E+02 0.  0.
        -12    1    1    2    0    0 -0.24316711816E+02 -0.27381594893E+02 -0.23293123191E+02  0.43400735022E+02  0.00000000000E+00 0.  1.
         11    1    3    3    0    0  0.27173286919E+01  0.47540472972E+01 -0.29262858252E+01  0.62087027563E+01  0.51100000000E-03 0.  1.
        -11    1    3    3    0    0  0.11150803927E+02  0.14700434425E+02  0.19486670072E+02  0.26836048726E+02  0.51100000000E-03 0. -1.
        -12    1    3    3    0    0  0.10448579197E+02  0.79271131713E+01  0.67327389450E+01  0.14742513496E+02  0.00000000000E+00 0.  1.
</event>
<event>
 7    1  0.2598019E-009  0.4778726E+02  0.7816164E-02  0.1312668E+00
        -11   -1    0    0    0    0  0.00000000000E+00  0.00000000000E+00  0.45593999997E+02  0.45594000000E+02  0.51100000000E-03 0. -1.
         11   -1    0    0    0    0 -0.00000000000E+00 -0.00000000000E+00 -0.45593999997E+02  0.45594000000E+02  0.51100000000E-03 0.  1.
    9900012    2    1    2    0    0  0.42661258193E+02  0.78116496841E+01  0.16185290660E+01  0.47787257406E+02  0.19999937817E+02 0.  0.
        -12    1    1    2    0    0 -0.42661258193E+02 -0.78116496841E+01 -0.16185290660E+01  0.43400742594E+02  0.00000000000E+00 0.  1.
         11    1    3    3    0    0  0.30481431743E+02  0.26228944843E+00 -0.34550608195E+01  0.30677743111E+02  0.51100000000E-03 0. -1.
        -11    1    3    3    0    0  0.11517304374E+02  0.76077774555E+01  0.19790270993E+01  0.13944286513E+02  0.51100000000E-03 0.  1.
         12    1    3    3    0    0  0.66252207606E+00 -0.58417219849E-01  0.30945627862E+01  0.31652277818E+01  0.00000000000E+00 0. -1.
</event>
<event>
 7    1  0.2598019E-009  0.4778727E+02  0.7816164E-02  0.1312668E+00
        -11   -1    0    0    0    0  0.00000000000E+00  0.00000000000E+00  0.45593999997E+02  0.45594000000E+02  0.51100000000E-03 0.  1.
         11   -1    0    0    0    0 -0.00000000000E+00 -0.00000000000E+00 -0.45593999997E+02  0.45594000000E+02  0.51100000000E-03 0. -1.
    9900012    2    1    2    0    0  0.21966616270E+02 -0.14660159647E+02 -0.34440833135E+02  0.47787268459E+02  0.19999988214E+02 0.  0.
        -12    1    1    2    0    0 -0.21966616270E+02  0.14660159647E+02  0.34440833135E+02  0.43400731541E+02  0.00000000000E+00 0.  1.
         11    1    3    3    0    0  0.48832105045E+01 -0.10343493583E+02 -0.92650607379E+01  0.14719882984E+02  0.51100000000E-03 0. -1.
        -11    1    3    3    0    0  0.17198475772E+02 -0.45712418098E+00 -0.22690215282E+02  0.28475294576E+02  0.51100000000E-03 0.  1.
        -12    1    3    3    0    0 -0.11507000612E+00 -0.38595418829E+01 -0.24855571143E+01  0.45920908986E+01  0.00000000000E+00 0.  1.
</event>
<event>
 7    1  0.2598019E-009  0.4778727E+02  0.7816164E-02  0.1312668E+00
        -11   -1    0    0    0    0  0.00000000000E+00  0.00000000000E+00  0.45593999997E+02  0.45594000000E+02  0.51100000000E-03 0.  1.
         11   -1    0    0    0    0 -0.00000000000E+00 -0.00000000000E+00 -0.45593999997E+02  0.45594000000E+02  0.51100000000E-03 0. -1.
    9900012    2    1    2    0    0 -0.21499488328E+02  0.36231367324E+02 -0.10425125096E+02  0.47787271783E+02  0.20000003366E+02 0.  0.
        -12    1    1    2    0    0  0.21499488328E+02 -0.36231367324E+02  0.10425125096E+02  0.43400728217E+02  0.00000000000E+00 0.  1.
         11    1    3    3    0    0 -0.19630605899E+02  0.29261796326E+02 -0.11665722284E+02  0.37117414900E+02  0.51100000000E-03 0. -1.
        -11    1    3    3    0    0 -0.51858911962E+00  0.36229752188E+01 -0.32598909128E+01  0.49012011931E+01  0.51100000000E-03 0.  1.
         12    1    3    3    0    0 -0.13502933095E+01  0.33465957785E+01  0.45004881000E+01  0.57686556895E+01  0.00000000000E+00 0. -1.
</event>
<event>
 7    1  0.2598019E-009  0.4778727E+02  0.7816164E-02  0.1312668E+00
        -11   -1    0    0    0    0  0.00000000000E+00  0.00000000000E+00  0.45593999997E+02  0.45594000000E+02  0.51100000000E-03 0.  1.
         11   -1    0    0    0    0 -0.00000000000E+00 -0.00000000000E+00 -0.45593999997E+02  0.45594000000E+02  0.51100000000E-03 0. -1.
    9900012    2    1    2    0    0  0.18568535055E+02  0.20086925817E+02 -0.33694927797E+02  0.47787271410E+02  0.20000001669E+02 0.  0.
        -12    1    1    2    0    0 -0.18568535055E+02 -0.20086925817E+02  0.33694927797E+02  0.43400728590E+02  0.00000000000E+00 0.  1.
         11    1    3    3    0    0  0.14444585583E+02  0.95479611983E+01 -0.15386028794E+02  0.23163322258E+02  0.51100000000E-03 0. -1.
        -11    1    3    3    0    0  0.19816881011E+01  0.83950751849E+01 -0.19534943147E+02  0.21354586840E+02  0.51100000000E-03 0.  1.
        -12    1    3    3    0    0  0.21422613706E+01  0.21438894338E+01  0.12260441443E+01  0.32693623121E+01  0.00000000000E+00 0.  1.
</event>
<event>
 7    1  0.2598019E-009  0.4778727E+02  0.7816164E-02  0.1312668E+00
        -11   -1    0    0    0    0  0.00000000000E+00  0.00000000000E+00  0.45593999997E+02  0.45594000000E+02  0.51100000000E-03 0. -1.
         11   -1    0    0    0    0 -0.00000000000E+00 -0.00000000000E+00 -0.45593999997E+02  0.45594000000E+02  0.51100000000E-03 0.  1.
    9900012    2    1    2    0    0  0.59136379196E+01 -0.16867633621E+02  0.39549147699E+02  0.47787271191E+02  0.20000000670E+02 0.  0.
        -12    1    1    2    0    0 -0.59136379196E+01  0.16867633621E+02 -0.39549147699E+02  0.43400728809E+02  0.00000000000E+00 0.  1.
         11    1    3    3    0    0  0.28360309488E+01 -0.24904912846E+01  0.14404424907E+02  0.14890704333E+02  0.51100000000E-03 0. -1.
        -11    1    3    3    0    0 -0.24543945291E-02  0.32018026227E+01  0.24867607524E+01  0.40540751546E+01  0.51100000000E-03 0.  1.
        -12    1    3    3    0    0  0.30800613653E+01 -0.17578944959E+02  0.22657962040E+02  0.28842491704E+02  0.00000000000E+00 0.  1.
</event>
<event>
 7    1  0.2598019E-009  0.4778727E+02  0.7816164E-02  0.1312668E+00
        -11   -1    0    0    0    0  0.00000000000E+00  0.00000000000E+00  0.45593999997E+02  0.45594000000E+02  0.51100000000E-03 0.  1.
         11   -1    0    0    0    0 -0.00000000000E+00 -0.00000000000E+00 -0.45593999997E+02  0.45594000000E+02  0.51100000000E-03 0. -1.
    9900012    2    1    2    0    0 -0.12492491826E+02  0.38767027658E+02 -0.14989277004E+02  0.47787271774E+02  0.20000003324E+02 0.  0.
        -12    1    1    2    0    0  0.12492491826E+02 -0.38767027658E+02  0.14989277004E+02  0.43400728226E+02  0.00000000000E+00 0.  1.
         11    1    3    3    0    0 -0.12657193664E+00  0.20324542817E+02 -0.18571477915E+00  0.20325785383E+02  0.51100000000E-03 0. -1.
        -11    1    3    3    0    0 -0.87438310551E+01  0.11906262635E+02 -0.60786349543E+01  0.15973837192E+02  0.51100000000E-03 0.  1.
         12    1    3    3    0    0 -0.36220888345E+01  0.65362222059E+01 -0.87249272703E+01  0.11487649199E+02  0.00000000000E+00 0. -1.
</event>
<event>
 7    1  0.2598019E-009  0.4778727E+02  0.7816164E-02  0.1312668E+00
        -11   -1    0    0    0    0  0.00000000000E+00  0.00000000000E+00  0.45593999997E+02  0.45594000000E+02  0.51100000000E-03 0. -1.
         11   -1    0    0    0    0 -0.00000000000E+00 -0.00000000000E+00 -0.45593999997E+02  0.45594000000E+02  0.51100000000E-03 0.  1.
    9900012    2    1    2    0    0 -0.56873633008E+01  0.42229899353E+02  0.82409331661E+01  0.47787268668E+02  0.19999989165E+02 0.  0.
        -12    1    1    2    0    0  0.56873633008E+01 -0.42229899353E+02 -0.82409331661E+01  0.43400731332E+02  0.00000000000E+00 0.  1.
         11    1    3    3    0    0 -0.63938853982E+01  0.26554572911E+02  0.13446332411E+02  0.30443898707E+02  0.51100000000E-03 0. -1.
        -11    1    3    3    0    0  0.17975939086E+01  0.23115674225E+01 -0.20334764176E+01  0.35650686405E+01  0.51100000000E-03 0.  1.
         12    1    3    3    0    0 -0.10910718112E+01  0.13363759020E+02 -0.31719228268E+01  0.13778301320E+02  0.00000000000E+00 0. -1.
</event>
<event>
 7    1  0.2598019E-009  0.4778727E+02  0.7816164E-02  0.1312668E+00
        -11   -1    0    0    0    0  0.00000000000E+00  0.00000000000E+00  0.45593999997E+02  0.45594000000E+02  0.51100000000E-03 0.  1.
         11   -1    0    0    0    0 -0.00000000000E+00 -0.00000000000E+00 -0.45593999997E+02  0.45594000000E+02  0.51100000000E-03 0. -1.
    9900012    2    1    2    0    0 -0.13831328519E+02  0.27732331199E+02 -0.30384789661E+02  0.47787270916E+02  0.19999999414E+02 0.  0.
        -12    1    1    2    0    0  0.13831328519E+02 -0.27732331199E+02  0.30384789661E+02  0.43400729084E+02  0.00000000000E+00 0.  1.
         11    1    3    3    0    0  0.32401538917E-01  0.15418055378E-03  0.20684098836E+01  0.20686637212E+01  0.51100000000E-03 0. -1.
        -11    1    3    3    0    0  0.80649381110E+00  0.27134042612E+01 -0.11797531180E+01  0.30667266968E+01  0.51100000000E-03 0.  1.
         12    1    3    3    0    0 -0.14670223869E+02  0.25018772757E+02 -0.31273446426E+02  0.42651880498E+02  0.00000000000E+00 0. -1.
</event>
<event>
 7    1  0.2598019E-009  0.4778727E+02  0.7816164E-02  0.1312668E+00
        -11   -1    0    0    0    0  0.00000000000E+00  0.00000000000E+00  0.45593999997E+02  0.45594000000E+02  0.51100000000E-03 0.  1.
         11   -1    0    0    0    0 -0.00000000000E+00 -0.00000000000E+00 -0.45593999997E+02  0.45594000000E+02  0.51100000000E-03 0. -1.
    9900012    2    1    2    0    0 -0.91415211553E+01 -0.76400467337E+01 -0.41733504491E+02  0.47787272815E+02  0.20000008071E+02 0.  0.
        -12    1    1    2    0    0  0.91415211553E+01  0.76400467337E+01  0.41733504491E+02  0.43400727185E+02  0.00000000000E+00 0.  1.
         11    1    3    3    0    0 -0.88444170285E+01 -0.34773932609E+01 -0.17958806772E+02  0.20318334514E+02  0.51100000000E-03 0. -1.
        -11    1    3    3    0    0  0.17340324790E+01  0.44152237164E+01 -0.61906022748E+01  0.77990144178E+01  0.51100000000E-03 0.  1.
        -12    1    3    3    0    0 -0.20311366058E+01 -0.85778771892E+01 -0.17584095444E+02  0.19669923883E+02  0.00000000000E+00 0.  1.
</event>
<event>
 7    1  0.2598019E-009  0.4778727E+02  0.7816164E-02  0.1312668E+00
        -11   -1    0    0    0    0  0.00000000000E+00  0.00000000000E+00  0.45593999997E+02  0.45594000000E+02  0.51100000000E-03 0.  1.
         11   -1    0    0    0    0 -0.00000000000E+00 -0.00000000000E+00 -0.45593999997E+02  0.45594000000E+02  0.51100000000E-03 0. -1.
    9900012    2    1    2    0    0 -0.12842959277E+02 -0.37648820552E+02  0.17356494650E+02  0.47787271913E+02  0.20000003961E+02 0.  0.
        -12    1    1    2    0    0  0.12842959277E+02  0.37648820552E+02 -0.17356494650E+02  0.43400728087E+02  0.00000000000E+00 0.  1.
         11    1    3    3    0    0 -0.12771066634E+02 -0.35164278716E+02  0.21212968627E+02  0.43007170087E+02  0.51100000000E-03 0. -1.
        -11    1    3    3    0    0  0.60734283282E+00 -0.15528642107E+01 -0.21545930323E+01  0.27244309442E+01  0.51100000000E-03 0.  1.
         12    1    3    3    0    0 -0.67923547611E+00 -0.93167762436E+00 -0.17018809445E+01  0.20556708824E+01  0.00000000000E+00 0. -1.
</event>
<event>
 7    1  0.2598019E-009  0.4778732E+02  0.7816164E-02  0.1312668E+00
        -11   -1    0    0    0    0  0.00000000000E+00  0.00000000000E+00  0.45593999997E+02  0.45594000000E+02  0.51100000000E-03 0. -1.
         11   -1    0    0    0    0 -0.00000000000E+00 -0.00000000000E+00 -0.45593999997E+02  0.45594000000E+02  0.51100000000E-03 0.  1.
    9900012    2    1    2    0    0 -0.36364938675E+02 -0.22405109909E+02 -0.76955307342E+01  0.47787321340E+02  0.20000229317E+02 0.  0.
        -12    1    1    2    0    0  0.36364938675E+02  0.22405109909E+02  0.76955307342E+01  0.43400678660E+02  0.00000000000E+00 0.  1.
         11    1    3    3    0    0 -0.79902928306E+01 -0.19929543723E+00 -0.62632602305E+01  0.10154453563E+02  0.51100000000E-03 0. -1.
        -11    1    3    3    0    0 -0.97044471523E+01 -0.14325390284E+02  0.17710760298E+00  0.17303885941E+02  0.51100000000E-03 0.  1.
         12    1    3    3    0    0 -0.18670198692E+02 -0.78804241887E+01 -0.16093781067E+01  0.20328981836E+02  0.00000000000E+00 0. -1.
</event>
<event>
 7    1  0.2598019E-009  0.4778725E+02  0.7816164E-02  0.1312668E+00
        -11   -1    0    0    0    0  0.00000000000E+00  0.00000000000E+00  0.45593999997E+02  0.45594000000E+02  0.51100000000E-03 0.  1.
         11   -1    0    0    0    0 -0.00000000000E+00 -0.00000000000E+00 -0.45593999997E+02  0.45594000000E+02  0.51100000000E-03 0. -1.
    9900012    2    1    2    0    0  0.39047131946E+01 -0.88563893391E+01 -0.42307709809E+02  0.47787254309E+02  0.19999923698E+02 0.  0.
        -12    1    1    2    0    0 -0.39047131946E+01  0.88563893391E+01  0.42307709809E+02  0.43400745691E+02  0.00000000000E+00 0.  1.
         11    1    3    3    0    0 -0.68929855277E+01 -0.14379346173E+01 -0.11929417094E+02  0.13852505113E+02  0.51100000000E-03 0. -1.
        -11    1    3    3    0    0  0.94141688186E+01 -0.89833973326E+01 -0.25507456665E+02  0.28634914841E+02  0.51100000000E-03 0.  1.
         12    1    3    3    0    0  0.13835299037E+01  0.15649426108E+01 -0.48708360500E+01  0.52998343555E+01  0.00000000000E+00 0. -1.
</event>
<event>
 7    1  0.2598019E-009  0.4778727E+02  0.7816164E-02  0.1312668E+00
        -11   -1    0    0    0    0  0.00000000000E+00  0.00000000000E+00  0.45593999997E+02  0.45594000000E+02  0.51100000000E-03 0.  1.
         11   -1    0    0    0    0 -0.00000000000E+00 -0.00000000000E+00 -0.45593999997E+02  0.45594000000E+02  0.51100000000E-03 0. -1.
    9900012    2    1    2    0    0  0.18529196933E+02 -0.36463343405E+02 -0.14516089385E+02  0.47787269565E+02  0.19999993255E+02 0.  0.
        -12    1    1    2    0    0 -0.18529196933E+02  0.36463343405E+02  0.14516089385E+02  0.43400730435E+02  0.00000000000E+00 0.  1.
         11    1    3    3    0    0  0.17655631935E+01 -0.13009224859E+02 -0.10076279654E+02  0.16549578748E+02  0.51100000000E-03 0. -1.
        -11    1    3    3    0    0  0.60328586402E+01 -0.10831889381E+02  0.34759238898E+01  0.12876616717E+02  0.51100000000E-03 0.  1.
        -12    1    3    3    0    0  0.10730775099E+02 -0.12622229166E+02 -0.79157336205E+01  0.18361074100E+02  0.00000000000E+00 0.  1.
</event>
<event>
 7    1  0.2598019E-009  0.4778727E+02  0.7816164E-02  0.1312668E+00
        -11   -1    0    0    0    0  0.00000000000E+00  0.00000000000E+00  0.45593999997E+02  0.45594000000E+02  0.51100000000E-03 0. -1.
         11   -1    0    0    0    0 -0.00000000000E+00 -0.00000000000E+00 -0.45593999997E+02  0.45594000000E+02  0.51100000000E-03 0.  1.
    9900012    2    1    2    0    0 -0.11191937856E+02 -0.41932846844E+02 -0.11522321306E-01  0.47787271318E+02  0.20000001246E+02 0.  0.
        -12    1    1    2    0    0  0.11191937856E+02  0.41932846844E+02  0.11522321306E-01  0.43400728682E+02  0.00000000000E+00 0.  1.
         11    1    3    3    0    0 -0.24910254693E+01 -0.35888899184E+02 -0.16454443229E+01  0.36012855757E+02  0.51100000000E-03 0. -1.
        -11    1    3    3    0    0 -0.37187432020E+01 -0.62290124686E+00 -0.10884449197E+01  0.39245088318E+01  0.51100000000E-03 0.  1.
        -12    1    3    3    0    0 -0.49821691844E+01 -0.54210464128E+01  0.27223669214E+01  0.78499067285E+01  0.00000000000E+00 0.  1.
</event>
<event>
 7    1  0.2598019E-009  0.4778727E+02  0.7816164E-02  0.1312668E+00
        -11   -1    0    0    0    0  0.00000000000E+00  0.00000000000E+00  0.45593999997E+02  0.45594000000E+02  0.51100000000E-03 0. -1.
         11   -1    0    0    0    0 -0.00000000000E+00 -0.00000000000E+00 -0.45593999997E+02  0.45594000000E+02  0.51100000000E-03 0.  1.
    9900012    2    1    2    0    0 -0.30281427378E+02  0.40424154927E+00  0.31088502476E+02  0.47787271418E+02  0.20000001701E+02 0.  0.
        -12    1    1    2    0    0  0.30281427378E+02 -0.40424154927E+00 -0.31088502476E+02  0.43400728582E+02  0.00000000000E+00 0.  1.
         11    1    3    3    0    0  0.10442516952E+01  0.16840633725E+01 -0.57282525463E+00  0.20626827384E+01  0.51100000000E-03 0. -1.
        -11    1    3    3    0    0 -0.71269239979E+01 -0.41981010114E+01  0.53106997249E+01  0.98295793197E+01  0.51100000000E-03 0.  1.
         12    1    3    3    0    0 -0.24198755075E+02  0.29182791882E+01  0.26350628006E+02  0.35895009359E+02  0.00000000000E+00 0. -1.
</event>
<event>
 7    1  0.2598019E-009  0.4778727E+02  0.7816164E-02  0.1312668E+00
        -11   -1    0    0    0    0  0.00000000000E+00  0.00000000000E+00  0.45593999997E+02  0.45594000000E+02  0.51100000000E-03 0. -1.
         11   -1    0    0    0    0 -0.00000000000E+00 -0.00000000000E+00 -0.45593999997E+02  0.45594000000E+02  0.51100000000E-03 0.  1.
    9900012    2    1    2    0    0 -0.88955140154E+01 -0.21258926356E+02  0.36777049291E+02  0.47787268739E+02  0.19999989490E+02 0.  0.
        -12    1    1    2    0    0  0.88955140154E+01  0.21258926356E+02 -0.36777049291E+02  0.43400731261E+02  0.00000000000E+00 0.  1.
         11    1    3    3    0    0  0.12093490603E+01  0.13072437509E+01  0.27824882578E+01  0.33035817744E+01  0.51100000000E-03 0. -1.
        -11    1    3    3    0    0 -0.58311251951E+01 -0.19586406810E+01  0.14686150571E+02  0.15922352628E+02  0.51100000000E-03 0.  1.
        -12    1    3    3    0    0 -0.42737378806E+01 -0.20607529426E+02  0.19308410462E+02  0.28561334337E+02  0.00000000000E+00 0.  1.
</event>
<event>
 7    1  0.2598019E-009  0.4778727E+02  0.7816164E-02  0.1312668E+00
        -11   -1    0    0    0    0  0.00000000000E+00  0.00000000000E+00  0.45593999997E+02  0.45594000000E+02  0.51100000000E-03 0. -1.
         11   -1    0    0    0    0 -0.00000000000E+00 -0.00000000000E+00 -0.45593999997E+02  0.45594000000E+02  0.51100000000E-03 0.  1.
    9900012    2    1    2    0    0  0.17722228832E+01 -0.25404040028E+02  0.35144234579E+02  0.47787271345E+02  0.20000001369E+02 0.  0.
        -12    1    1    2    0    0 -0.17722228832E+01  0.25404040028E+02 -0.35144234579E+02  0.43400728655E+02  0.00000000000E+00 0.  1.
         11    1    3    3    0    0 -0.32739219058E+01 -0.20997094457E+02  0.19260294506E+02  0.28680228120E+02  0.51100000000E-03 0. -1.
        -11    1    3    3    0    0  0.65914089501E+01 -0.56003232493E+01  0.13373743517E+02  0.15926936565E+02  0.51100000000E-03 0.  1.
        -12    1    3    3    0    0 -0.15452641612E+01  0.11933776791E+01  0.25101965567E+01  0.31801066596E+01  0.00000000000E+00 0.  1.
</event>
<event>
 7    1  0.2598019E-009  0.4778727E+02  0.7816164E-02  0.1312668E+00
        -11   -1    0    0    0    0  0.00000000000E+00  0.00000000000E+00  0.45593999997E+02  0.45594000000E+02  0.51100000000E-03 0. -1.
         11   -1    0    0    0    0 -0.00000000000E+00 -0.00000000000E+00 -0.45593999997E+02  0.45594000000E+02  0.51100000000E-03 0.  1.
    9900012    2    1    2    0    0 -0.55405872522E+01 -0.39824909616E+02  0.16337134576E+02  0.47787268449E+02  0.19999988167E+02 0.  0.
        -12    1    1    2    0    0  0.55405872522E+01  0.39824909616E+02 -0.16337134576E+02  0.43400731551E+02  0.00000000000E+00 0.  1.
         11    1    3    3    0    0 -0.93226066421E+01 -0.20717413470E+02  0.16439374133E+02  0.28042382881E+02  0.51100000000E-03 0. -1.
        -11    1    3    3    0    0  0.26326417735E+01 -0.11245737458E+02 -0.15985632948E+01  0.11659880726E+02  0.51100000000E-03 0.  1.
         12    1    3    3    0    0  0.11493776164E+01 -0.78617586880E+01  0.14963237381E+01  0.80850048425E+01  0.00000000000E+00 0. -1.
</event>
<event>
 7    1  0.2598019E-009  0.4778727E+02  0.7816164E-02  0.1312668E+00
        -11   -1    0    0    0    0  0.00000000000E+00  0.00000000000E+00  0.45593999997E+02  0.45594000000E+02  0.51100000000E-03 0.  1.
         11   -1    0    0    0    0 -0.00000000000E+00 -0.00000000000E+00 -0.45593999997E+02  0.45594000000E+02  0.51100000000E-03 0. -1.
    9900012    2    1    2    0    0 -0.14020250504E+02 -0.86718606602E+01 -0.40147915656E+02  0.47787265870E+02  0.19999976407E+02 0.  0.
        -12    1    1    2    0    0  0.14020250504E+02  0.86718606602E+01  0.40147915656E+02  0.43400734130E+02  0.00000000000E+00 0.  1.
         11    1    3    3    0    0 -0.12853820106E+02 -0.33471789037E+01 -0.26501971900E+02  0.29644203696E+02  0.51100000000E-03 0. -1.
        -11    1    3    3    0    0  0.29588283456E+01 -0.17180366694E+01 -0.11915133149E+02  0.12396641214E+02  0.51100000000E-03 0.  1.
        -12    1    3    3    0    0 -0.41252587437E+01 -0.36066450871E+01 -0.17308106074E+01  0.57464209597E+01  0.00000000000E+00 0.  1.
</event>
<event>
 7    1  0.2598019E-009  0.4778727E+02  0.7816164E-02  0.1312668E+00
        -11   -1    0    0    0    0  0.00000000000E+00  0.00000000000E+00  0.45593999997E+02  0.45594000000E+02  0.51100000000E-03 0.  1.
         11   -1    0    0    0    0 -0.00000000000E+00 -0.00000000000E+00 -0.45593999997E+02  0.45594000000E+02  0.51100000000E-03 0. -1.
    9900012    2    1    2    0    0  0.10353958162E+02 -0.17104215001E+02 -0.38520967842E+02  0.47787267473E+02  0.19999983717E+02 0.  0.
        -12    1    1    2    0    0 -0.10353958162E+02  0.17104215001E+02  0.38520967842E+02  0.43400732527E+02  0.00000000000E+00 0.  1.
         11    1    3    3    0    0  0.37608321694E+01 -0.11336057279E+02 -0.30932426906E+02  0.33158182819E+02  0.51100000000E-03 0. -1.
        -11    1    3    3    0    0  0.51840334083E+01  0.12519370527E+01 -0.29009458645E+01  0.60709995826E+01  0.51100000000E-03 0.  1.
        -12    1    3    3    0    0  0.14090925840E+01 -0.70200947745E+01 -0.46875950706E+01  0.85580850720E+01  0.00000000000E+00 0.  1.
</event>
<event>
 7    1  0.2598019E-009  0.4778727E+02  0.7816164E-02  0.1312668E+00
        -11   -1    0    0    0    0  0.00000000000E+00  0.00000000000E+00  0.45593999997E+02  0.45594000000E+02  0.51100000000E-03 0.  1.
         11   -1    0    0    0    0 -0.00000000000E+00 -0.00000000000E+00 -0.45593999997E+02  0.45594000000E+02  0.51100000000E-03 0. -1.
    9900012    2    1    2    0    0 -0.17664065196E+02  0.75849655617E+01 -0.38911084124E+02  0.47787269942E+02  0.19999994975E+02 0.  0.
        -12    1    1    2    0    0  0.17664065196E+02 -0.75849655617E+01  0.38911084124E+02  0.43400730058E+02  0.00000000000E+00 0.  1.
         11    1    3    3    0    0 -0.64657289849E+01  0.46090276575E+00 -0.17925418330E+01  0.67254211132E+01  0.51100000000E-03 0. -1.
        -11    1    3    3    0    0 -0.74157758266E+01  0.72605160509E+01 -0.12934622077E+02  0.16583524142E+02  0.51100000000E-03 0.  1.
         12    1    3    3    0    0 -0.37825603844E+01 -0.13645325492E+00 -0.24183920214E+02  0.24478324687E+02  0.00000000000E+00 0. -1.
</event>
<event>
 7    1  0.2598019E-009  0.4778727E+02  0.7816164E-02  0.1312668E+00
        -11   -1    0    0    0    0  0.00000000000E+00  0.00000000000E+00  0.45593999997E+02  0.45594000000E+02  0.51100000000E-03 0.  1.
         11   -1    0    0    0    0 -0.00000000000E+00 -0.00000000000E+00 -0.45593999997E+02  0.45594000000E+02  0.51100000000E-03 0. -1.
    9900012    2    1    2    0    0 -0.27559240464E+02  0.16671938490E+01 -0.33486295555E+02  0.47787271201E+02  0.20000000715E+02 0.  0.
        -12    1    1    2    0    0  0.27559240464E+02 -0.16671938490E+01  0.33486295555E+02  0.43400728799E+02  0.00000000000E+00 0.  1.
         11    1    3    3    0    0 -0.20044393852E+02 -0.43085481946E+01 -0.29398611459E+02  0.35841591321E+02  0.51100000000E-03 0. -1.
        -11    1    3    3    0    0 -0.13448697263E+01  0.33614614884E+01  0.72902473732E+00  0.36931795580E+01  0.51100000000E-03 0.  1.
        -12    1    3    3    0    0 -0.61699768852E+01  0.26142805552E+01 -0.48167088334E+01  0.82525003224E+01  0.00000000000E+00 0.  1.
</event>
<event>
 7    1  0.2598019E-009  0.4778732E+02  0.7816164E-02  0.1312668E+00
        -11   -1    0    0    0    0  0.00000000000E+00  0.00000000000E+00  0.45593999997E+02  0.45594000000E+02  0.51100000000E-03 0.  1.
         11   -1    0    0    0    0 -0.00000000000E+00 -0.00000000000E+00 -0.45593999997E+02  0.45594000000E+02  0.51100000000E-03 0. -1.
    9900012    2    1    2    0    0  0.14368823847E+02  0.34746195168E+02 -0.21676201298E+02  0.47787321664E+02  0.20000230791E+02 0.  0.
        -12    1    1    2    0    0 -0.14368823847E+02 -0.34746195168E+02  0.21676201298E+02  0.43400678336E+02  0.00000000000E+00 0.  1.
         11    1    3    3    0    0  0.34005137934E+01  0.14772791827E+02 -0.17683823153E+02  0.23291983041E+02  0.51100000000E-03 0. -1.
        -11    1    3    3    0    0 -0.10541836787E+01  0.40469378095E+01 -0.11653041598E+01  0.43413065900E+01  0.51100000000E-03 0.  1.
         12    1    3    3    0    0  0.12022493732E+02  0.15926465531E+02 -0.28270739854E+01  0.20154032033E+02  0.00000000000E+00 0. -1.
</event>
<event>
 7    1  0.2598019E-009  0.4778727E+02  0.7816164E-02  0.1312668E+00
        -11   -1    0    0    0    0  0.00000000000E+00  0.00000000000E+00  0.45593999997E+02  0.45594000000E+02  0.51100000000E-03 0.  1.
         11   -1    0    0    0    0 -0.00000000000E+00 -0.00000000000E+00 -0.45593999997E+02  0.45594000000E+02  0.51100000000E-03 0. -1.
    9900012    2    1    2    0    0  0.44498973349E+01  0.25381670465E+02 -0.34922666709E+02  0.47787269224E+02  0.19999991699E+02 0.  0.
        -12    1    1    2    0    0 -0.44498973349E+01 -0.25381670465E+02  0.34922666709E+02  0.43400730776E+02  0.00000000000E+00 0.  1.
         11    1    3    3    0    0 -0.13937953286E+01 -0.11592284273E-01 -0.12724643354E+02  0.12800755780E+02  0.51100000000E-03 0. -1.
        -11    1    3    3    0    0  0.70987066828E+01  0.15251722802E+02 -0.13668689351E+02  0.21675787271E+02  0.51100000000E-03 0.  1.
         12    1    3    3    0    0 -0.12550140193E+01  0.10141539947E+02 -0.85293340039E+01  0.13310726172E+02  0.00000000000E+00 0. -1.
</event>
<event>
 7    1  0.2598019E-009  0.4778727E+02  0.7816164E-02  0.1312668E+00
        -11   -1    0    0    0    0  0.00000000000E+00  0.00000000000E+00  0.45593999997E+02  0.45594000000E+02  0.51100000000E-03 0. -1.
         11   -1    0    0    0    0 -0.00000000000E+00 -0.00000000000E+00 -0.45593999997E+02  0.45594000000E+02  0.51100000000E-03 0.  1.
    9900012    2    1    2    0    0  0.54332989514E+01  0.58572066068E+01  0.42659063399E+02  0.47787270781E+02  0.19999998797E+02 0.  0.
        -12    1    1    2    0    0 -0.54332989514E+01 -0.58572066068E+01 -0.42659063399E+02  0.43400729219E+02  0.00000000000E+00 0.  1.
         11    1    3    3    0    0 -0.35687016657E+01  0.24800106170E+01  0.29362999521E+02  0.29682854063E+02  0.51100000000E-03 0. -1.
        -11    1    3    3    0    0  0.48529492615E+01 -0.10090560166E-01  0.13885145237E+01  0.50476916703E+01  0.51100000000E-03 0.  1.
        -12    1    3    3    0    0  0.41490513557E+01  0.33872865500E+01  0.11907549354E+02  0.13056725047E+02  0.00000000000E+00 0.  1.
</event>
<event>
 7    1  0.2598019E-009  0.4778727E+02  0.7816164E-02  0.1312668E+00
        -11   -1    0    0    0    0  0.00000000000E+00  0.00000000000E+00  0.45593999997E+02  0.45594000000E+02  0.51100000000E-03 0. -1.
         11   -1    0    0    0    0 -0.00000000000E+00 -0.00000000000E+00 -0.45593999997E+02  0.45594000000E+02  0.51100000000E-03 0.  1.
    9900012    2    1    2    0    0 -0.28417017928E+02  0.13818429887E+02  0.29751420899E+02  0.47787274684E+02  0.20000016594E+02 0.  0.
        -12    1    1    2    0    0  0.28417017928E+02 -0.13818429887E+02 -0.29751420899E+02  0.43400725316E+02  0.00000000000E+00 0.  1.
         11    1    3    3    0    0  0.98345904296E-01  0.49765367113E+01  0.95494564773E+01  0.10768830430E+02  0.51100000000E-03 0. -1.
        -11    1    3    3    0    0 -0.34484098134E+01  0.23390441569E+01 -0.11565954488E-01  0.41668683494E+01  0.51100000000E-03 0.  1.
         12    1    3    3    0    0 -0.25066954019E+02  0.65028490188E+01  0.20213530377E+02  0.32851575905E+02  0.00000000000E+00 0. -1.
</event>
<event>
 7    1  0.2598019E-009  0.4778727E+02  0.7816164E-02  0.1312668E+00
        -11   -1    0    0    0    0  0.00000000000E+00  0.00000000000E+00  0.45593999997E+02  0.45594000000E+02  0.51100000000E-03 0. -1.
         11   -1    0    0    0    0 -0.00000000000E+00 -0.00000000000E+00 -0.45593999997E+02  0.45594000000E+02  0.51100000000E-03 0.  1.
    9900012    2    1    2    0    0 -0.13629078144E+02  0.22291565470E+02  0.34654836009E+02  0.47787270502E+02  0.19999997526E+02 0.  0.
        -12    1    1    2    0    0  0.13629078144E+02 -0.22291565470E+02 -0.34654836009E+02  0.43400729498E+02  0.00000000000E+00 0.  1.
         11    1    3    3    0    0 -0.80028190356E+01  0.57721985617E+01  0.26583175429E+02  0.28355398162E+02  0.51100000000E-03 0. -1.
        -11    1    3    3    0    0 -0.11840242540E+01  0.75326542949E+01  0.40137508983E+01  0.86170175058E+01  0.51100000000E-03 0.  1.
         12    1    3    3    0    0 -0.44422348542E+01  0.89867126138E+01  0.40579096813E+01  0.10814854834E+02  0.00000000000E+00 0. -1.
</event>
<event>
 7    1  0.2598019E-009  0.4778727E+02  0.7816164E-02  0.1312668E+00
        -11   -1    0    0    0    0  0.00000000000E+00  0.00000000000E+00  0.45593999997E+02  0.45594000000E+02  0.51100000000E-03 0.  1.
         11   -1    0    0    0    0 -0.00000000000E+00 -0.00000000000E+00 -0.45593999997E+02  0.45594000000E+02  0.51100000000E-03 0. -1.
    9900012    2    1    2    0    0 -0.86009308010E+00 -0.38839056627E+02 -0.19349710438E+02  0.47787269893E+02  0.19999994752E+02 0.  0.
        -12    1    1    2    0    0  0.86009308010E+00  0.38839056627E+02  0.19349710438E+02  0.43400730107E+02  0.00000000000E+00 0.  1.
         11    1    3    3    0    0 -0.60708802765E+00  0.19247540371E+01 -0.11662006798E+01  0.23309350621E+01  0.51100000000E-03 0.  1.
        -11    1    3    3    0    0 -0.34528196566E+01 -0.18278323834E+02 -0.52875493875E+01  0.19338491786E+02  0.51100000000E-03 0. -1.
         12    1    3    3    0    0  0.31998146041E+01 -0.22485486830E+02 -0.12895960370E+02  0.26117843046E+02  0.00000000000E+00 0. -1.
</event>
<event>
 7    1  0.2598019E-009  0.4778727E+02  0.7816164E-02  0.1312668E+00
        -11   -1    0    0    0    0  0.00000000000E+00  0.00000000000E+00  0.45593999997E+02  0.45594000000E+02  0.51100000000E-03 0. -1.
         11   -1    0    0    0    0 -0.00000000000E+00 -0.00000000000E+00 -0.45593999997E+02  0.45594000000E+02  0.51100000000E-03 0.  1.
    9900012    2    1    2    0    0 -0.25048368507E+02  0.28953053349E+02  0.20443164262E+02  0.47787273876E+02  0.20000012909E+02 0.  0.
        -12    1    1    2    0    0  0.25048368507E+02 -0.28953053349E+02 -0.20443164262E+02  0.43400726124E+02  0.00000000000E+00 0.  1.
         11    1    3    3    0    0 -0.39397692559E+01  0.20089509145E+01  0.94390622086E+00  0.45220155662E+01  0.51100000000E-03 0. -1.
        -11    1    3    3    0    0 -0.21047071456E+02  0.26829552079E+02  0.12582473861E+02  0.36347252033E+02  0.51100000000E-03 0.  1.
        -12    1    3    3    0    0 -0.61527795406E-01  0.11455035517E+00  0.69167841796E+01  0.69180062764E+01  0.00000000000E+00 0.  1.
</event>
<event>
 7    1  0.2598019E-009  0.4778727E+02  0.7816164E-02  0.1312668E+00
        -11   -1    0    0    0    0  0.00000000000E+00  0.00000000000E+00  0.45593999997E+02  0.45594000000E+02  0.51100000000E-03 0.  1.
         11   -1    0    0    0    0 -0.00000000000E+00 -0.00000000000E+00 -0.45593999997E+02  0.45594000000E+02  0.51100000000E-03 0. -1.
    9900012    2    1    2    0    0 -0.44994948425E+01  0.10222111982E+02 -0.41939082126E+02  0.47787266863E+02  0.19999980936E+02 0.  0.
        -12    1    1    2    0    0  0.44994948425E+01 -0.10222111982E+02  0.41939082126E+02  0.43400733137E+02  0.00000000000E+00 0.  1.
         11    1    3    3    0    0  0.16987365340E+01 -0.31419907725E+01 -0.68359310687E+01  0.77128312353E+01  0.51100000000E-03 0. -1.
        -11    1    3    3    0    0 -0.54942656043E+01  0.13279470287E+02 -0.36097566171E+02  0.38853128180E+02  0.51100000000E-03 0.  1.
        -12    1    3    3    0    0 -0.70396577216E+00  0.84632467850E-01  0.99441511392E+00  0.12213074477E+01  0.00000000000E+00 0.  1.
</event>
<event>
 7    1  0.2598019E-009  0.4778725E+02  0.7816164E-02  0.1312668E+00
        -11   -1    0    0    0    0  0.00000000000E+00  0.00000000000E+00  0.45593999997E+02  0.45594000000E+02  0.51100000000E-03 0. -1.
         11   -1    0    0    0    0 -0.00000000000E+00 -0.00000000000E+00 -0.45593999997E+02  0.45594000000E+02  0.51100000000E-03 0.  1.
    9900012    2    1    2    0    0 -0.42690768793E+02 -0.13894940276E+00  0.78169237249E+01  0.47787247200E+02  0.19999891285E+02 0.  0.
        -12    1    1    2    0    0  0.42690768793E+02  0.13894940276E+00 -0.78169237249E+01  0.43400752800E+02  0.00000000000E+00 0.  1.
         11    1    3    3    0    0 -0.34194220257E+01  0.20673379410E+01  0.60954809398E+01  0.72884306473E+01  0.51100000000E-03 0.  1.
        -11    1    3    3    0    0 -0.39714318166E+02 -0.26639959317E+01  0.15270381181E+01  0.39832848095E+02  0.51100000000E-03 0. -1.
         12    1    3    3    0    0  0.44297139895E+00  0.45770858797E+00  0.19440466698E+00  0.66596845746E+00  0.00000000000E+00 0. -1.
</event>
<event>
 7    1  0.2598019E-009  0.4778727E+02  0.7816164E-02  0.1312668E+00
        -11   -1    0    0    0    0  0.00000000000E+00  0.00000000000E+00  0.45593999997E+02  0.45594000000E+02  0.51100000000E-03 0.  1.
         11   -1    0    0    0    0 -0.00000000000E+00 -0.00000000000E+00 -0.45593999997E+02  0.45594000000E+02  0.51100000000E-03 0. -1.
    9900012    2    1    2    0    0  0.11664397044E+02  0.18955230786E+02 -0.37259418208E+02  0.47787272152E+02  0.20000005050E+02 0.  0.
        -12    1    1    2    0    0 -0.11664397044E+02 -0.18955230786E+02  0.37259418208E+02  0.43400727848E+02  0.00000000000E+00 0.  1.
         11    1    3    3    0    0  0.10174993508E+01 -0.25750017984E+01 -0.83048916802E+01  0.87542655472E+01  0.51100000000E-03 0. -1.
        -11    1    3    3    0    0  0.63848603254E+01  0.18400847744E+02 -0.16588249388E+02  0.25583738138E+02  0.51100000000E-03 0.  1.
         12    1    3    3    0    0  0.42620373679E+01  0.31293848395E+01 -0.12366277140E+02  0.13449268467E+02  0.00000000000E+00 0. -1.
</event>
<event>
 7    1  0.2598019E-009  0.4778727E+02  0.7816164E-02  0.1312668E+00
        -11   -1    0    0    0    0  0.00000000000E+00  0.00000000000E+00  0.45593999997E+02  0.45594000000E+02  0.51100000000E-03 0.  1.
         11   -1    0    0    0    0 -0.00000000000E+00 -0.00000000000E+00 -0.45593999997E+02  0.45594000000E+02  0.51100000000E-03 0. -1.
    9900012    2    1    2    0    0  0.33420436515E+02 -0.26612009334E+02 -0.76484400499E+01  0.47787271287E+02  0.20000001106E+02 0.  0.
        -12    1    1    2    0    0 -0.33420436515E+02  0.26612009334E+02  0.76484400499E+01  0.43400728713E+02  0.00000000000E+00 0.  1.
         11    1    3    3    0    0  0.15192332905E+02 -0.20866522749E+02 -0.54682519190E+01  0.26384096158E+02  0.51100000000E-03 0. -1.
        -11    1    3    3    0    0  0.39247911962E+01  0.25664634614E+01  0.17836895212E+00  0.46928175307E+01  0.51100000000E-03 0.  1.
         12    1    3    3    0    0  0.14303312413E+02 -0.83119500460E+01 -0.23585570831E+01  0.16710357598E+02  0.00000000000E+00 0. -1.
</event>
<event>
 7    1  0.2598019E-009  0.4778727E+02  0.7816164E-02  0.1312668E+00
        -11   -1    0    0    0    0  0.00000000000E+00  0.00000000000E+00  0.45593999997E+02  0.45594000000E+02  0.51100000000E-03 0.  1.
         11   -1    0    0    0    0 -0.00000000000E+00 -0.00000000000E+00 -0.45593999997E+02  0.45594000000E+02  0.51100000000E-03 0. -1.
    9900012    2    1    2    0    0  0.72248801650E+01 -0.40551300578E+02 -0.13675407099E+02  0.47787266927E+02  0.19999981229E+02 0.  0.
        -12    1    1    2    0    0 -0.72248801650E+01  0.40551300578E+02  0.13675407099E+02  0.43400733073E+02  0.00000000000E+00 0.  1.
         11    1    3    3    0    0 -0.34528766086E+01 -0.12240004596E+02 -0.75790640338E+01  0.14804806019E+02  0.51100000000E-03 0. -1.
        -11    1    3    3    0    0  0.12433672151E+02 -0.27684811879E+02 -0.65855336385E+01  0.31055019972E+02  0.51100000000E-03 0.  1.
        -12    1    3    3    0    0 -0.17559153773E+01 -0.62648410286E+00  0.48919057369E+00  0.19274409357E+01  0.00000000000E+00 0.  1.
</event>
<event>
 7    1  0.2598019E-009  0.4778728E+02  0.7816164E-02  0.1312668E+00
        -11   -1    0    0    0    0  0.00000000000E+00  0.00000000000E+00  0.45593999997E+02  0.45594000000E+02  0.51100000000E-03 0.  1.
         11   -1    0    0    0    0 -0.00000000000E+00 -0.00000000000E+00 -0.45593999997E+02  0.45594000000E+02  0.51100000000E-03 0. -1.
    9900012    2    1    2    0    0  0.34985292747E+02 -0.12575245153E+02 -0.22394532939E+02  0.47787278752E+02  0.20000035144E+02 0.  0.
        -12    1    1    2    0    0 -0.34985292747E+02  0.12575245153E+02  0.22394532939E+02  0.43400721248E+02  0.00000000000E+00 0.  1.
         11    1    3    3    0    0  0.27119186057E+02 -0.53078530502E+01 -0.23498739988E+02  0.36274155230E+02  0.51100000000E-03 0. -1.
        -11    1    3    3    0    0  0.13141556872E+01 -0.37926994664E+01 -0.77068739411E-02  0.40139300031E+01  0.51100000000E-03 0.  1.
         12    1    3    3    0    0  0.65519510032E+01 -0.34746926362E+01  0.11119139230E+01  0.74991935191E+01  0.00000000000E+00 0. -1.
</event>
<event>
 7    1  0.2598019E-009  0.4778727E+02  0.7816164E-02  0.1312668E+00
        -11   -1    0    0    0    0  0.00000000000E+00  0.00000000000E+00  0.45593999997E+02  0.45594000000E+02  0.51100000000E-03 0.  1.
         11   -1    0    0    0    0 -0.00000000000E+00 -0.00000000000E+00 -0.45593999997E+02  0.45594000000E+02  0.51100000000E-03 0. -1.
    9900012    2    1    2    0    0 -0.86669406228E+01  0.18557398765E+02 -0.38263956752E+02  0.47787270801E+02  0.19999998889E+02 0.  0.
        -12    1    1    2    0    0  0.86669406228E+01 -0.18557398765E+02  0.38263956752E+02  0.43400729199E+02  0.00000000000E+00 0.  1.
         11    1    3    3    0    0 -0.66385508147E+01 -0.13324720095E+00 -0.35227322389E+01  0.75164988142E+01  0.51100000000E-03 0. -1.
        -11    1    3    3    0    0  0.17752617788E+01  0.48347570493E+01 -0.47103499420E+01  0.69795291350E+01  0.51100000000E-03 0.  1.
         12    1    3    3    0    0 -0.38036515870E+01  0.13855888917E+02 -0.30030874571E+02  0.33291242851E+02  0.00000000000E+00 0. -1.
</event>
<event>
 7    1  0.2598019E-009  0.4778727E+02  0.7816164E-02  0.1312668E+00
        -11   -1    0    0    0    0  0.00000000000E+00  0.00000000000E+00  0.45593999997E+02  0.45594000000E+02  0.51100000000E-03 0. -1.
         11   -1    0    0    0    0 -0.00000000000E+00 -0.00000000000E+00 -0.45593999997E+02  0.45594000000E+02  0.51100000000E-03 0.  1.
    9900012    2    1    2    0    0  0.26207985217E+02 -0.78731242228E+01  0.33686476719E+02  0.47787270883E+02  0.19999999265E+02 0.  0.
        -12    1    1    2    0    0 -0.26207985217E+02  0.78731242228E+01 -0.33686476719E+02  0.43400729117E+02  0.00000000000E+00 0.  1.
         11    1    3    3    0    0  0.21353297227E+02 -0.14191064743E+02  0.26106412877E+02  0.36590906173E+02  0.51100000000E-03 0. -1.
        -11    1    3    3    0    0  0.42536484426E+01  0.39765945674E+01  0.53533858586E+01  0.79098400641E+01  0.51100000000E-03 0.  1.
         12    1    3    3    0    0  0.60103954690E+00  0.23413459528E+01  0.22266779829E+01  0.32865246457E+01  0.00000000000E+00 0. -1.
</event>
<event>
 7    1  0.2598019E-009  0.4778727E+02  0.7816164E-02  0.1312668E+00
        -11   -1    0    0    0    0  0.00000000000E+00  0.00000000000E+00  0.45593999997E+02  0.45594000000E+02  0.51100000000E-03 0. -1.
         11   -1    0    0    0    0 -0.00000000000E+00 -0.00000000000E+00 -0.45593999997E+02  0.45594000000E+02  0.51100000000E-03 0.  1.
    9900012    2    1    2    0    0 -0.26323227251E+02  0.20941251198E+02  0.27425807334E+02  0.47787271866E+02  0.20000003745E+02 0.  0.
        -12    1    1    2    0    0  0.26323227251E+02 -0.20941251198E+02 -0.27425807334E+02  0.43400728134E+02  0.00000000000E+00 0.  1.
         11    1    3    3    0    0 -0.21123381475E+02  0.12939031710E+02  0.21393608866E+02  0.32730754454E+02  0.51100000000E-03 0. -1.
        -11    1    3    3    0    0 -0.26130328274E+01  0.54789916423E+01 -0.18829160005E+01  0.63555222365E+01  0.51100000000E-03 0.  1.
        -12    1    3    3    0    0 -0.25868129488E+01  0.25232278455E+01  0.79151144688E+01  0.87009951756E+01  0.00000000000E+00 0.  1.
</event>
<event>
 7    1  0.2598019E-009  0.4778722E+02  0.7816164E-02  0.1312668E+00
        -11   -1    0    0    0    0  0.00000000000E+00  0.00000000000E+00  0.45593999997E+02  0.45594000000E+02  0.51100000000E-03 0.  1.
         11   -1    0    0    0    0 -0.00000000000E+00 -0.00000000000E+00 -0.45593999997E+02  0.45594000000E+02  0.51100000000E-03 0. -1.
    9900012    2    1    2    0    0  0.15713737342E+02 -0.91400310656E+01 -0.39410231964E+02  0.47787215530E+02  0.19999746888E+02 0.  0.
        -12    1    1    2    0    0 -0.15713737342E+02  0.91400310656E+01  0.39410231964E+02  0.43400784470E+02  0.00000000000E+00 0.  1.
         11    1    3    3    0    0  0.32594525058E+01  0.84806075427E+00 -0.20018679914E+02  0.20300019297E+02  0.51100000000E-03 0. -1.
        -11    1    3    3    0    0  0.11194582726E+02 -0.25570674430E+01 -0.87020916195E+01  0.14407764404E+02  0.51100000000E-03 0.  1.
         12    1    3    3    0    0  0.12597021107E+01 -0.74310243768E+01 -0.10689460430E+02  0.13079431829E+02  0.00000000000E+00 0. -1.
</event>
<event>
 7    1  0.2598019E-009  0.4778727E+02  0.7816164E-02  0.1312668E+00
        -11   -1    0    0    0    0  0.00000000000E+00  0.00000000000E+00  0.45593999997E+02  0.45594000000E+02  0.51100000000E-03 0.  1.
         11   -1    0    0    0    0 -0.00000000000E+00 -0.00000000000E+00 -0.45593999997E+02  0.45594000000E+02  0.51100000000E-03 0. -1.
    9900012    2    1    2    0    0  0.29991718659E+02 -0.30816236464E+02 -0.58719666187E+01  0.47787267173E+02  0.19999982347E+02 0.  0.
        -12    1    1    2    0    0 -0.29991718659E+02  0.30816236464E+02  0.58719666187E+01  0.43400732827E+02  0.00000000000E+00 0.  1.
         11    1    3    3    0    0  0.28670081118E+02 -0.22063685479E+02  0.37864055277E+00  0.36179042790E+02  0.51100000000E-03 0. -1.
        -11    1    3    3    0    0 -0.11396668736E+01 -0.36666796429E+01 -0.11813236112E+01  0.40173257177E+01  0.51100000000E-03 0.  1.
         12    1    3    3    0    0  0.24613044146E+01 -0.50858713424E+01 -0.50692835603E+01  0.75908986653E+01  0.00000000000E+00 0. -1.
</event>
<event>
 7    1  0.2598019E-009  0.4778727E+02  0.7816164E-02  0.1312668E+00
        -11   -1    0    0    0    0  0.00000000000E+00  0.00000000000E+00  0.45593999997E+02  0.45594000000E+02  0.51100000000E-03 0.  1.
         11   -1    0    0    0    0 -0.00000000000E+00 -0.00000000000E+00 -0.45593999997E+02  0.45594000000E+02  0.51100000000E-03 0. -1.
    9900012    2    1    2    0    0 -0.18399482252E+02  0.30599246014E+02 -0.24673231109E+02  0.47787272620E+02  0.20000007185E+02 0.  0.
        -12    1    1    2    0    0  0.18399482252E+02 -0.30599246014E+02  0.24673231109E+02  0.43400727380E+02  0.00000000000E+00 0.  1.
         11    1    3    3    0    0 -0.93145285160E+01  0.68809943454E+01 -0.20402381139E+01  0.11758873096E+02  0.51100000000E-03 0. -1.
        -11    1    3    3    0    0  0.10323751192E+01  0.12897482662E+02 -0.80354905447E+01  0.15230888548E+02  0.51100000000E-03 0.  1.
        -12    1    3    3    0    0 -0.10117328855E+02  0.10820769006E+02 -0.14597502450E+02  0.20797510977E+02  0.00000000000E+00 0.  1.
</event>
<event>
 7    1  0.2598019E-009  0.4778727E+02  0.7816164E-02  0.1312668E+00
        -11   -1    0    0    0    0  0.00000000000E+00  0.00000000000E+00  0.45593999997E+02  0.45594000000E+02  0.51100000000E-03 0. -1.
         11   -1    0    0    0    0 -0.00000000000E+00 -0.00000000000E+00 -0.45593999997E+02  0.45594000000E+02  0.51100000000E-03 0.  1.
    9900012    2    1    2    0    0  0.38356145839E+02  0.17037692678E+02  0.11051990437E+02  0.47787269729E+02  0.19999994002E+02 0.  0.
        -12    1    1    2    0    0 -0.38356145839E+02 -0.17037692678E+02 -0.11051990437E+02  0.43400730271E+02  0.00000000000E+00 0.  1.
         11    1    3    3    0    0  0.75640232564E+01 -0.32925830370E+01  0.47480615681E+01  0.95183843059E+01  0.51100000000E-03 0. -1.
        -11    1    3    3    0    0 -0.49712797625E+00  0.22769428497E+00 -0.65699793152E-02  0.54683117863E+00  0.51100000000E-03 0.  1.
         12    1    3    3    0    0  0.31289250559E+02  0.20102581430E+02  0.63104988480E+01  0.37722054244E+02  0.00000000000E+00 0. -1.
</event>
<event>
 7    1  0.2598019E-009  0.4778727E+02  0.7816164E-02  0.1312668E+00
        -11   -1    0    0    0    0  0.00000000000E+00  0.00000000000E+00  0.45593999997E+02  0.45594000000E+02  0.51100000000E-03 0.  1.
         11   -1    0    0    0    0 -0.00000000000E+00 -0.00000000000E+00 -0.45593999997E+02  0.45594000000E+02  0.51100000000E-03 0. -1.
    9900012    2    1    2    0    0 -0.17780460145E+02  0.14771262587E+02 -0.36732656297E+02  0.47787274199E+02  0.20000014383E+02 0.  0.
        -12    1    1    2    0    0  0.17780460145E+02 -0.14771262587E+02  0.36732656297E+02  0.43400725801E+02  0.00000000000E+00 0.  1.
         11    1    3    3    0    0 -0.43558430713E+01 -0.18903582119E+01 -0.10393526658E+02  0.11426820192E+02  0.51100000000E-03 0. -1.
        -11    1    3    3    0    0 -0.10749685671E+02  0.16083319129E+02 -0.14411859240E+02  0.24123237413E+02  0.51100000000E-03 0.  1.
        -12    1    3    3    0    0 -0.26749314018E+01  0.57830167034E+00 -0.11927270399E+02  0.12237216595E+02  0.00000000000E+00 0.  1.
</event>
<event>
 7    1  0.2598019E-009  0.4778727E+02  0.7816164E-02  0.1312668E+00
        -11   -1    0    0    0    0  0.00000000000E+00  0.00000000000E+00  0.45593999997E+02  0.45594000000E+02  0.51100000000E-03 0. -1.
         11   -1    0    0    0    0 -0.00000000000E+00 -0.00000000000E+00 -0.45593999997E+02  0.45594000000E+02  0.51100000000E-03 0.  1.
    9900012    2    1    2    0    0  0.24844486000E+01  0.31055925482E+01  0.43218121169E+02  0.47787272042E+02  0.20000004547E+02 0.  0.
        -12    1    1    2    0    0 -0.24844486000E+01 -0.31055925482E+01 -0.43218121169E+02  0.43400727958E+02  0.00000000000E+00 0.  1.
         11    1    3    3    0    0  0.28936344996E+01  0.68586074787E+01  0.29841573173E+02  0.30756025537E+02  0.51100000000E-03 0. -1.
        -11    1    3    3    0    0 -0.50848584854E+01 -0.26662611990E+01  0.73194010499E+01  0.93025999908E+01  0.51100000000E-03 0.  1.
        -12    1    3    3    0    0  0.46756725858E+01 -0.10867537315E+01  0.60571469462E+01  0.77286465135E+01  0.00000000000E+00 0.  1.
</event>
<event>
 7    1  0.2598019E-009  0.4778727E+02  0.7816164E-02  0.1312668E+00
        -11   -1    0    0    0    0  0.00000000000E+00  0.00000000000E+00  0.45593999997E+02  0.45594000000E+02  0.51100000000E-03 0.  1.
         11   -1    0    0    0    0 -0.00000000000E+00 -0.00000000000E+00 -0.45593999997E+02  0.45594000000E+02  0.51100000000E-03 0. -1.
    9900012    2    1    2    0    0  0.14469372845E+02 -0.15894326434E+02 -0.37704524118E+02  0.47787268413E+02  0.19999988003E+02 0.  0.
        -12    1    1    2    0    0 -0.14469372845E+02  0.15894326434E+02  0.37704524118E+02  0.43400731587E+02  0.00000000000E+00 0.  1.
         11    1    3    3    0    0  0.71426971835E+01 -0.12419201843E+02 -0.24276899730E+02  0.28189050326E+02  0.51100000000E-03 0. -1.
        -11    1    3    3    0    0 -0.19720277478E+01  0.30986429446E+00  0.82888592174E+00  0.21614720566E+01  0.51100000000E-03 0.  1.
         12    1    3    3    0    0  0.92987034091E+01 -0.37849888848E+01 -0.14256510309E+02  0.17436746031E+02  0.00000000000E+00 0. -1.
</event>
<event>
 7    1  0.2598019E-009  0.4778728E+02  0.7816164E-02  0.1312668E+00
        -11   -1    0    0    0    0  0.00000000000E+00  0.00000000000E+00  0.45593999997E+02  0.45594000000E+02  0.51100000000E-03 0. -1.
         11   -1    0    0    0    0 -0.00000000000E+00 -0.00000000000E+00 -0.45593999997E+02  0.45594000000E+02  0.51100000000E-03 0.  1.
    9900012    2    1    2    0    0  0.16259476750E+02 -0.37790075181E+01  0.40062094621E+02  0.47787275266E+02  0.20000019249E+02 0.  0.
        -12    1    1    2    0    0 -0.16259476750E+02  0.37790075181E+01 -0.40062094621E+02  0.43400724734E+02  0.00000000000E+00 0.  1.
         11    1    3    3    0    0  0.15337762101E+02 -0.37356068103E+01  0.17322491195E+02  0.23436518640E+02  0.51100000000E-03 0. -1.
        -11    1    3    3    0    0  0.30897132826E-01  0.30537702764E+01  0.19651241339E+02  0.19887125331E+02  0.51100000000E-03 0.  1.
        -12    1    3    3    0    0  0.89081751597E+00 -0.30971709842E+01  0.30883620877E+01  0.44636312949E+01  0.00000000000E+00 0.  1.
</event>
<event>
 7    1  0.2598019E-009  0.4778727E+02  0.7816164E-02  0.1312668E+00
        -11   -1    0    0    0    0  0.00000000000E+00  0.00000000000E+00  0.45593999997E+02  0.45594000000E+02  0.51100000000E-03 0.  1.
         11   -1    0    0    0    0 -0.00000000000E+00 -0.00000000000E+00 -0.45593999997E+02  0.45594000000E+02  0.51100000000E-03 0. -1.
    9900012    2    1    2    0    0 -0.34009862903E+02 -0.26957782112E+02 -0.48029814598E+00  0.47787268700E+02  0.19999989312E+02 0.  0.
        -12    1    1    2    0    0  0.34009862903E+02  0.26957782112E+02  0.48029814598E+00  0.43400731300E+02  0.00000000000E+00 0.  1.
         11    1    3    3    0    0 -0.16385274617E+02 -0.13844964800E+02 -0.26329971493E+01  0.21612333258E+02  0.51100000000E-03 0. -1.
        -11    1    3    3    0    0 -0.10271406957E+02 -0.49758618610E+01  0.78148917558E+01  0.13832336590E+02  0.51100000000E-03 0.  1.
        -12    1    3    3    0    0 -0.73531813289E+01 -0.81369554504E+01 -0.56621927526E+01  0.12342598852E+02  0.00000000000E+00 0.  1.
</event>
<event>
 7    1  0.2598019E-009  0.4778727E+02  0.7816164E-02  0.1312668E+00
        -11   -1    0    0    0    0  0.00000000000E+00  0.00000000000E+00  0.45593999997E+02  0.45594000000E+02  0.51100000000E-03 0. -1.
         11   -1    0    0    0    0 -0.00000000000E+00 -0.00000000000E+00 -0.45593999997E+02  0.45594000000E+02  0.51100000000E-03 0.  1.
    9900012    2    1    2    0    0  0.31829186349E+02  0.29453476985E+02  0.17375311026E+01  0.47787269309E+02  0.19999992088E+02 0.  0.
        -12    1    1    2    0    0 -0.31829186349E+02 -0.29453476985E+02 -0.17375311026E+01  0.43400730691E+02  0.00000000000E+00 0.  1.
         11    1    3    3    0    0  0.74590615500E+00  0.29823428068E+01 -0.90124463898E+00  0.32035896694E+01  0.51100000000E-03 0. -1.
        -11    1    3    3    0    0  0.68105939940E+01 -0.18479589074E+00 -0.40371382170E+01  0.79193955146E+01  0.51100000000E-03 0.  1.
        -12    1    3    3    0    0  0.24272686200E+02  0.26655930069E+02  0.66759139585E+01  0.36664284125E+02  0.00000000000E+00 0.  1.
</event>
<event>
 7    1  0.2598019E-009  0.4778727E+02  0.7816164E-02  0.1312668E+00
        -11   -1    0    0    0    0  0.00000000000E+00  0.00000000000E+00  0.45593999997E+02  0.45594000000E+02  0.51100000000E-03 0.  1.
         11   -1    0    0    0    0 -0.00000000000E+00 -0.00000000000E+00 -0.45593999997E+02  0.45594000000E+02  0.51100000000E-03 0. -1.
    9900012    2    1    2    0    0  0.54033081640E+01 -0.11151627765E+02 -0.41594098170E+02  0.47787267938E+02  0.19999985836E+02 0.  0.
        -12    1    1    2    0    0 -0.54033081640E+01  0.11151627765E+02  0.41594098170E+02  0.43400732062E+02  0.00000000000E+00 0.  1.
         11    1    3    3    0    0  0.86308157281E+01  0.66963688598E+00 -0.16576277641E+02  0.18700598236E+02  0.51100000000E-03 0. -1.
        -11    1    3    3    0    0  0.22900214252E+01 -0.19273135424E+01 -0.25814453160E+01  0.39525429534E+01  0.51100000000E-03 0.  1.
         12    1    3    3    0    0 -0.55175289893E+01 -0.98939511085E+01 -0.22436375214E+02  0.25134126749E+02  0.00000000000E+00 0. -1.
</event>
<event>
 7    1  0.2598019E-009  0.4778727E+02  0.7816164E-02  0.1312668E+00
        -11   -1    0    0    0    0  0.00000000000E+00  0.00000000000E+00  0.45593999997E+02  0.45594000000E+02  0.51100000000E-03 0. -1.
         11   -1    0    0    0    0 -0.00000000000E+00 -0.00000000000E+00 -0.45593999997E+02  0.45594000000E+02  0.51100000000E-03 0.  1.
    9900012    2    1    2    0    0 -0.45244641290E+00  0.43267850245E+02  0.33632865245E+01  0.47787271103E+02  0.20000000265E+02 0.  0.
        -12    1    1    2    0    0  0.45244641290E+00 -0.43267850245E+02 -0.33632865245E+01  0.43400728897E+02  0.00000000000E+00 0.  1.
         11    1    3    3    0    0 -0.15141053272E+01  0.10873424662E+01 -0.85227027590E+00  0.20496813081E+01  0.51100000000E-03 0.  1.
        -11    1    3    3    0    0 -0.44388755642E+01  0.33831469086E+02  0.80008483918E+01  0.35046904172E+02  0.51100000000E-03 0. -1.
        -12    1    3    3    0    0  0.55005344786E+01  0.83490386931E+01 -0.37852915914E+01  0.10690685623E+02  0.00000000000E+00 0.  1.
</event>
<event>
 7    1  0.2598019E-009  0.4778728E+02  0.7816164E-02  0.1312668E+00
        -11   -1    0    0    0    0  0.00000000000E+00  0.00000000000E+00  0.45593999997E+02  0.45594000000E+02  0.51100000000E-03 0. -1.
         11   -1    0    0    0    0 -0.00000000000E+00 -0.00000000000E+00 -0.45593999997E+02  0.45594000000E+02  0.51100000000E-03 0.  1.
    9900012    2    1    2    0    0  0.25136512072E-01  0.37087679891E+02  0.22541656576E+02  0.47787275205E+02  0.20000018970E+02 0.  0.
        -12    1    1    2    0    0 -0.25136512072E-01 -0.37087679891E+02 -0.22541656576E+02  0.43400724795E+02  0.00000000000E+00 0.  1.
         11    1    3    3    0    0 -0.30785477355E+01  0.10573843774E+02 -0.11779789275E+01  0.11075705979E+02  0.51100000000E-03 0. -1.
        -11    1    3    3    0    0 -0.19411595026E+01  0.14846835346E+01  0.26824414042E+01  0.36287570269E+01  0.51100000000E-03 0.  1.
         12    1    3    3    0    0  0.50448437502E+01  0.25029152582E+02  0.21037194099E+02  0.33082812199E+02  0.00000000000E+00 0. -1.
</event>
<event>
 7    1  0.2598019E-009  0.4778727E+02  0.7816164E-02  0.1312668E+00
        -11   -1    0    0    0    0  0.00000000000E+00  0.00000000000E+00  0.45593999997E+02  0.45594000000E+02  0.51100000000E-03 0.  1.
         11   -1    0    0    0    0 -0.00000000000E+00 -0.00000000000E+00 -0.45593999997E+02  0.45594000000E+02  0.51100000000E-03 0. -1.
    9900012    2    1    2    0    0 -0.15919850080E+02  0.49422652948E+01 -0.40071885192E+02  0.47787267337E+02  0.19999983097E+02 0.  0.
        -12    1    1    2    0    0  0.15919850080E+02 -0.49422652948E+01  0.40071885192E+02  0.43400732663E+02  0.00000000000E+00 0.  1.
         11    1    3    3    0    0 -0.10806204562E+02  0.54494577202E+01 -0.39978275467E+02  0.41770003065E+02  0.51100000000E-03 0. -1.
        -11    1    3    3    0    0 -0.67918723630E+00  0.89919442145E+00  0.65783196602E+00  0.13048329648E+01  0.51100000000E-03 0.  1.
         12    1    3    3    0    0 -0.44344582811E+01 -0.14063868469E+01 -0.75144169147E+00  0.47124313072E+01  0.00000000000E+00 0. -1.
</event>
<event>
 7    1  0.2598019E-009  0.4778725E+02  0.7816164E-02  0.1312668E+00
        -11   -1    0    0    0    0  0.00000000000E+00  0.00000000000E+00  0.45593999997E+02  0.45594000000E+02  0.51100000000E-03 0.  1.
         11   -1    0    0    0    0 -0.00000000000E+00 -0.00000000000E+00 -0.45593999997E+02  0.45594000000E+02  0.51100000000E-03 0. -1.
    9900012    2    1    2    0    0  0.32463941833E+02  0.28599383699E+02 -0.34340569506E+01  0.47787250992E+02  0.19999908571E+02 0.  0.
        -12    1    1    2    0    0 -0.32463941833E+02 -0.28599383699E+02  0.34340569506E+01  0.43400749008E+02  0.00000000000E+00 0.  1.
         11    1    3    3    0    0  0.21041899919E+02  0.12116648384E+02  0.51481515420E+01  0.24820922321E+02  0.51100000000E-03 0. -1.
        -11    1    3    3    0    0  0.92901301628E+01  0.16361514131E+02 -0.63020649771E+01  0.19842421383E+02  0.51100000000E-03 0.  1.
        -12    1    3    3    0    0  0.21319117512E+01  0.12122118390E+00 -0.22801435155E+01  0.31239072877E+01  0.00000000000E+00 0.  1.
</event>
<event>
 7    1  0.2598019E-009  0.4778727E+02  0.7816164E-02  0.1312668E+00
        -11   -1    0    0    0    0  0.00000000000E+00  0.00000000000E+00  0.45593999997E+02  0.45594000000E+02  0.51100000000E-03 0. -1.
         11   -1    0    0    0    0 -0.00000000000E+00 -0.00000000000E+00 -0.45593999997E+02  0.45594000000E+02  0.51100000000E-03 0.  1.
    9900012    2    1    2    0    0 -0.20568453599E+02  0.14507521952E+02  0.35356662658E+02  0.47787273382E+02  0.20000010658E+02 0.  0.
        -12    1    1    2    0    0  0.20568453599E+02 -0.14507521952E+02 -0.35356662658E+02  0.43400726618E+02  0.00000000000E+00 0.  1.
         11    1    3    3    0    0 -0.94279950563E+01  0.60915904973E+01  0.35659377317E+01  0.11777541243E+02  0.51100000000E-03 0. -1.
        -11    1    3    3    0    0 -0.57922084762E+01  0.97994925053E+01  0.21827221594E+02  0.24617216235E+02  0.51100000000E-03 0.  1.
        -12    1    3    3    0    0 -0.53482500668E+01 -0.13835610509E+01  0.99635033326E+01  0.11392515904E+02  0.00000000000E+00 0.  1.
</event>
<event>
 7    1  0.2598019E-009  0.4778727E+02  0.7816164E-02  0.1312668E+00
        -11   -1    0    0    0    0  0.00000000000E+00  0.00000000000E+00  0.45593999997E+02  0.45594000000E+02  0.51100000000E-03 0. -1.
         11   -1    0    0    0    0 -0.00000000000E+00 -0.00000000000E+00 -0.45593999997E+02  0.45594000000E+02  0.51100000000E-03 0.  1.
    9900012    2    1    2    0    0  0.20677697934E+02  0.35417247733E+02  0.14201221292E+02  0.47787270570E+02  0.19999997838E+02 0.  0.
        -12    1    1    2    0    0 -0.20677697934E+02 -0.35417247733E+02 -0.14201221292E+02  0.43400729430E+02  0.00000000000E+00 0.  1.
         11    1    3    3    0    0  0.11502305334E+02  0.57521771851E+01  0.11275302973E+01  0.12909759687E+02  0.51100000000E-03 0. -1.
        -11    1    3    3    0    0  0.11495298473E+01  0.93142763220E+01 -0.14514622131E-01  0.93849546194E+01  0.51100000000E-03 0.  1.
         12    1    3    3    0    0  0.80258627528E+01  0.20350794226E+02  0.13088205617E+02  0.25492556263E+02  0.00000000000E+00 0. -1.
</event>
<event>
 7    1  0.2598019E-009  0.4778727E+02  0.7816164E-02  0.1312668E+00
        -11   -1    0    0    0    0  0.00000000000E+00  0.00000000000E+00  0.45593999997E+02  0.45594000000E+02  0.51100000000E-03 0.  1.
         11   -1    0    0    0    0 -0.00000000000E+00 -0.00000000000E+00 -0.45593999997E+02  0.45594000000E+02  0.51100000000E-03 0. -1.
    9900012    2    1    2    0    0  0.17441597972E+02 -0.81029531138E+01 -0.38907019401E+02  0.47787270194E+02  0.19999996124E+02 0.  0.
        -12    1    1    2    0    0 -0.17441597972E+02  0.81029531138E+01  0.38907019401E+02  0.43400729806E+02  0.00000000000E+00 0.  1.
         11    1    3    3    0    0  0.81461392524E+01 -0.49169724259E+01 -0.11995355558E+02  0.15310935888E+02  0.51100000000E-03 0. -1.
        -11    1    3    3    0    0  0.94462083778E+01  0.22055664682E+01 -0.73103088435E+01  0.12146439471E+02  0.51100000000E-03 0.  1.
        -12    1    3    3    0    0 -0.15074965836E+00 -0.53915471561E+01 -0.19601355000E+02  0.20329894836E+02  0.00000000000E+00 0.  1.
</event>
<event>
 7    1  0.2598019E-009  0.4778728E+02  0.7816164E-02  0.1312668E+00
        -11   -1    0    0    0    0  0.00000000000E+00  0.00000000000E+00  0.45593999997E+02  0.45594000000E+02  0.51100000000E-03 0.  1.
         11   -1    0    0    0    0 -0.00000000000E+00 -0.00000000000E+00 -0.45593999997E+02  0.45594000000E+02  0.51100000000E-03 0. -1.
    9900012    2    1    2    0    0  0.29399302773E+02  0.24425996231E+02 -0.20559051266E+02  0.47787275532E+02  0.20000020459E+02 0.  0.
        -12    1    1    2    0    0 -0.29399302773E+02 -0.24425996231E+02  0.20559051266E+02  0.43400724468E+02  0.00000000000E+00 0.  1.
         11    1    3    3    0    0  0.67186472767E+01  0.13214212133E+02 -0.11673145086E+02  0.18868437667E+02  0.51100000000E-03 0. -1.
        -11    1    3    3    0    0  0.99539315629E+01  0.58709595107E+01  0.14896215986E+01  0.11651947987E+02  0.51100000000E-03 0.  1.
        -12    1    3    3    0    0  0.12726723934E+02  0.53408245871E+01 -0.10375527778E+02  0.17266889877E+02  0.00000000000E+00 0.  1.
</event>
<event>
 7    1  0.2598019E-009  0.4778727E+02  0.7816164E-02  0.1312668E+00
        -11   -1    0    0    0    0  0.00000000000E+00  0.00000000000E+00  0.45593999997E+02  0.45594000000E+02  0.51100000000E-03 0.  1.
         11   -1    0    0    0    0 -0.00000000000E+00 -0.00000000000E+00 -0.45593999997E+02  0.45594000000E+02  0.51100000000E-03 0. -1.
    9900012    2    1    2    0    0 -0.19657924208E+02 -0.16130333891E+02 -0.35171034309E+02  0.47787270628E+02  0.19999998102E+02 0.  0.
        -12    1    1    2    0    0  0.19657924208E+02  0.16130333891E+02  0.35171034309E+02  0.43400729372E+02  0.00000000000E+00 0.  1.
         11    1    3    3    0    0 -0.13494883572E+02 -0.51273794140E+01 -0.11641793516E+02  0.18545437682E+02  0.51100000000E-03 0. -1.
        -11    1    3    3    0    0 -0.94436777105E+00 -0.16101678776E+01 -0.16030403652E+02  0.16138720909E+02  0.51100000000E-03 0.  1.
        -12    1    3    3    0    0 -0.52186728649E+01 -0.93927865997E+01 -0.74988371413E+01  0.13103112037E+02  0.00000000000E+00 0.  1.
</event>
<event>
 7    1  0.2598019E-009  0.4778727E+02  0.7816164E-02  0.1312668E+00
        -11   -1    0    0    0    0  0.00000000000E+00  0.00000000000E+00  0.45593999997E+02  0.45594000000E+02  0.51100000000E-03 0.  1.
         11   -1    0    0    0    0 -0.00000000000E+00 -0.00000000000E+00 -0.45593999997E+02  0.45594000000E+02  0.51100000000E-03 0. -1.
    9900012    2    1    2    0    0 -0.13283197677E+02  0.26751122779E+02 -0.31489004303E+02  0.47787270715E+02  0.19999998500E+02 0.  0.
        -12    1    1    2    0    0  0.13283197677E+02 -0.26751122779E+02  0.31489004303E+02  0.43400729285E+02  0.00000000000E+00 0.  1.
         11    1    3    3    0    0 -0.17273919545E+01  0.58879882839E+01 -0.74480567273E+01  0.96501729658E+01  0.51100000000E-03 0. -1.
        -11    1    3    3    0    0 -0.14935581197E+01  0.18250202778E+02 -0.19628143225E+02  0.26843334815E+02  0.51100000000E-03 0.  1.
        -12    1    3    3    0    0 -0.10062247603E+02  0.26129317168E+01 -0.44128043509E+01  0.11293762934E+02  0.00000000000E+00 0.  1.
</event>
<event>
 7    1  0.2598019E-009  0.4778727E+02  0.7816164E-02  0.1312668E+00
        -11   -1    0    0    0    0  0.00000000000E+00  0.00000000000E+00  0.45593999997E+02  0.45594000000E+02  0.51100000000E-03 0. -1.
         11   -1    0    0    0    0 -0.00000000000E+00 -0.00000000000E+00 -0.45593999997E+02  0.45594000000E+02  0.51100000000E-03 0.  1.
    9900012    2    1    2    0    0 -0.21311751611E+02  0.30405996497E+02  0.22470156247E+02  0.47787270727E+02  0.19999998552E+02 0.  0.
        -12    1    1    2    0    0  0.21311751611E+02 -0.30405996497E+02 -0.22470156247E+02  0.43400729273E+02  0.00000000000E+00 0.  1.
         11    1    3    3    0    0 -0.10122021470E+02  0.20615998917E+02  0.75297329191E+01  0.24169642283E+02  0.51100000000E-03 0. -1.
        -11    1    3    3    0    0  0.21042136272E+01  0.18610800358E+01  0.24600732384E+01  0.37340721054E+01  0.51100000000E-03 0.  1.
         12    1    3    3    0    0 -0.13293943768E+02  0.79289175443E+01  0.12480350089E+02  0.19883556339E+02  0.00000000000E+00 0. -1.
</event>
<event>
 7    1  0.2598019E-009  0.4778727E+02  0.7816164E-02  0.1312668E+00
        -11   -1    0    0    0    0  0.00000000000E+00  0.00000000000E+00  0.45593999997E+02  0.45594000000E+02  0.51100000000E-03 0. -1.
         11   -1    0    0    0    0 -0.00000000000E+00 -0.00000000000E+00 -0.45593999997E+02  0.45594000000E+02  0.51100000000E-03 0.  1.
    9900012    2    1    2    0    0 -0.39800482080E+02  0.57591807011E+01  0.16321050782E+02  0.47787271495E+02  0.20000002055E+02 0.  0.
        -12    1    1    2    0    0  0.39800482080E+02 -0.57591807011E+01 -0.16321050782E+02  0.43400728505E+02  0.00000000000E+00 0.  1.
         11    1    3    3    0    0 -0.51770699829E+01 -0.33021701117E+01  0.22731568497E+01  0.65477953068E+01  0.51100000000E-03 0. -1.
        -11    1    3    3    0    0 -0.11821340062E+02  0.10134359694E+02  0.85323445837E+01  0.17755287427E+02  0.51100000000E-03 0.  1.
        -12    1    3    3    0    0 -0.22802072035E+02 -0.10730088815E+01  0.55155493490E+01  0.23484188761E+02  0.00000000000E+00 0.  1.
</event>
<event>
 7    1  0.2598019E-009  0.4778727E+02  0.7816164E-02  0.1312668E+00
        -11   -1    0    0    0    0  0.00000000000E+00  0.00000000000E+00  0.45593999997E+02  0.45594000000E+02  0.51100000000E-03 0. -1.
         11   -1    0    0    0    0 -0.00000000000E+00 -0.00000000000E+00 -0.45593999997E+02  0.45594000000E+02  0.51100000000E-03 0.  1.
    9900012    2    1    2    0    0  0.34716936098E+01 -0.41186402228E+02  0.13238249327E+02  0.47787266938E+02  0.19999981278E+02 0.  0.
        -12    1    1    2    0    0 -0.34716936098E+01  0.41186402228E+02 -0.13238249327E+02  0.43400733062E+02  0.00000000000E+00 0.  1.
         11    1    3    3    0    0 -0.33285400551E+01 -0.37077796171E+02  0.86826840358E+01  0.38226053290E+02  0.51100000000E-03 0. -1.
        -11    1    3    3    0    0  0.33365384145E+01 -0.23385027734E+01  0.79589921474E+00  0.41514503049E+01  0.51100000000E-03 0.  1.
         12    1    3    3    0    0  0.34636952504E+01 -0.17701032841E+01  0.37596660767E+01  0.54097633435E+01  0.00000000000E+00 0. -1.
</event>
<event>
 7    1  0.2598019E-009  0.4778726E+02  0.7816164E-02  0.1312668E+00
        -11   -1    0    0    0    0  0.00000000000E+00  0.00000000000E+00  0.45593999997E+02  0.45594000000E+02  0.51100000000E-03 0.  1.
         11   -1    0    0    0    0 -0.00000000000E+00 -0.00000000000E+00 -0.45593999997E+02  0.45594000000E+02  0.51100000000E-03 0. -1.
    9900012    2    1    2    0    0 -0.36988566335E+02  0.20601135044E+02  0.95427130572E+01  0.47787260638E+02  0.19999952554E+02 0.  0.
        -12    1    1    2    0    0  0.36988566335E+02 -0.20601135044E+02 -0.95427130572E+01  0.43400739362E+02  0.00000000000E+00 0.  1.
         11    1    3    3    0    0 -0.72313876566E+01  0.56415715247E+01  0.47876614712E+00  0.91841991482E+01  0.51100000000E-03 0. -1.
        -11    1    3    3    0    0 -0.29404226060E+02  0.16383382781E+02  0.11658741197E+02  0.35622324294E+02  0.51100000000E-03 0.  1.
        -12    1    3    3    0    0 -0.35295261822E+00 -0.14238192617E+01 -0.25947942866E+01  0.29807371958E+01  0.00000000000E+00 0.  1.
</event>
<event>
 7    1  0.2598019E-009  0.4778727E+02  0.7816164E-02  0.1312668E+00
        -11   -1    0    0    0    0  0.00000000000E+00  0.00000000000E+00  0.45593999997E+02  0.45594000000E+02  0.51100000000E-03 0.  1.
         11   -1    0    0    0    0 -0.00000000000E+00 -0.00000000000E+00 -0.45593999997E+02  0.45594000000E+02  0.51100000000E-03 0. -1.
    9900012    2    1    2    0    0  0.33252793135E+02  0.88978536487E+01 -0.26432994385E+02  0.47787271400E+02  0.20000001620E+02 0.  0.
        -12    1    1    2    0    0 -0.33252793135E+02 -0.88978536487E+01  0.26432994385E+02  0.43400728600E+02  0.00000000000E+00 0.  1.
         11    1    3    3    0    0  0.23533744903E+01 -0.65407189944E+00 -0.11620758984E+02  0.11874688255E+02  0.51100000000E-03 0. -1.
        -11    1    3    3    0    0  0.17765548544E+02  0.52497697077E+01 -0.57937520615E+01  0.19409852144E+02  0.51100000000E-03 0.  1.
         12    1    3    3    0    0  0.13133870101E+02  0.43021558404E+01 -0.90184833400E+01  0.16502731000E+02  0.00000000000E+00 0. -1.
</event>
<event>
 7    1  0.2598019E-009  0.4778726E+02  0.7816164E-02  0.1312668E+00
        -11   -1    0    0    0    0  0.00000000000E+00  0.00000000000E+00  0.45593999997E+02  0.45594000000E+02  0.51100000000E-03 0.  1.
         11   -1    0    0    0    0 -0.00000000000E+00 -0.00000000000E+00 -0.45593999997E+02  0.45594000000E+02  0.51100000000E-03 0. -1.
    9900012    2    1    2    0    0 -0.60591482220E+01 -0.17930089606E+02 -0.39056659537E+02  0.47787262165E+02  0.19999959515E+02 0.  0.
        -12    1    1    2    0    0  0.60591482220E+01  0.17930089606E+02  0.39056659537E+02  0.43400737835E+02  0.00000000000E+00 0.  1.
         11    1    3    3    0    0 -0.95155085498E+01 -0.16772915535E+02 -0.20715543549E+02  0.28302108460E+02  0.51100000000E-03 0. -1.
        -11    1    3    3    0    0  0.46840737425E+01 -0.19653670645E+01 -0.14942289893E+02  0.15782117793E+02  0.51100000000E-03 0.  1.
        -12    1    3    3    0    0 -0.12277134147E+01  0.80819299323E+00 -0.33988260948E+01  0.37030359120E+01  0.00000000000E+00 0.  1.
</event>
<event>
 7    1  0.2598019E-009  0.4778727E+02  0.7816164E-02  0.1312668E+00
        -11   -1    0    0    0    0  0.00000000000E+00  0.00000000000E+00  0.45593999997E+02  0.45594000000E+02  0.51100000000E-03 0.  1.
         11   -1    0    0    0    0 -0.00000000000E+00 -0.00000000000E+00 -0.45593999997E+02  0.45594000000E+02  0.51100000000E-03 0. -1.
    9900012    2    1    2    0    0 -0.15421326243E+02  0.94182319885E+01 -0.39460143012E+02  0.47787270934E+02  0.19999999497E+02 0.  0.
        -12    1    1    2    0    0  0.15421326243E+02 -0.94182319885E+01  0.39460143012E+02  0.43400729066E+02  0.00000000000E+00 0.  1.
         11    1    3    3    0    0 -0.93470237981E+01  0.34096475517E+01 -0.32982324588E+02  0.34450345220E+02  0.51100000000E-03 0. -1.
        -11    1    3    3    0    0 -0.53558701473E+01  0.24397358522E+01  0.23876660935E-01  0.58854249141E+01  0.51100000000E-03 0.  1.
         12    1    3    3    0    0 -0.71843229784E+00  0.35688485847E+01 -0.65016950854E+01  0.74515007999E+01  0.00000000000E+00 0. -1.
</event>
<event>
 7    1  0.2598019E-009  0.4778728E+02  0.7816164E-02  0.1312668E+00
        -11   -1    0    0    0    0  0.00000000000E+00  0.00000000000E+00  0.45593999997E+02  0.45594000000E+02  0.51100000000E-03 0.  1.
         11   -1    0    0    0    0 -0.00000000000E+00 -0.00000000000E+00 -0.45593999997E+02  0.45594000000E+02  0.51100000000E-03 0. -1.
    9900012    2    1    2    0    0  0.29793807473E+02  0.22444938492E+02 -0.22185053071E+02  0.47787276419E+02  0.20000024503E+02 0.  0.
        -12    1    1    2    0    0 -0.29793807473E+02 -0.22444938492E+02  0.22185053071E+02  0.43400723581E+02  0.00000000000E+00 0.  1.
         11    1    3    3    0    0  0.59488216193E+01 -0.89366254028E-01 -0.69572299917E+01  0.91542074700E+01  0.51100000000E-03 0. -1.
        -11    1    3    3    0    0  0.16340562233E+02  0.90556490419E+01 -0.29432064488E+01  0.18912461980E+02  0.51100000000E-03 0.  1.
        -12    1    3    3    0    0  0.75044236200E+01  0.13478655704E+02 -0.12284616631E+02  0.19720606969E+02  0.00000000000E+00 0.  1.
</event>
<event>
 7    1  0.2598019E-009  0.4778727E+02  0.7816164E-02  0.1312668E+00
        -11   -1    0    0    0    0  0.00000000000E+00  0.00000000000E+00  0.45593999997E+02  0.45594000000E+02  0.51100000000E-03 0.  1.
         11   -1    0    0    0    0 -0.00000000000E+00 -0.00000000000E+00 -0.45593999997E+02  0.45594000000E+02  0.51100000000E-03 0. -1.
    9900012    2    1    2    0    0  0.99427024944E+01 -0.11042435180E+02 -0.40777818199E+02  0.47787272303E+02  0.20000005737E+02 0.  0.
        -12    1    1    2    0    0 -0.99427024944E+01  0.11042435180E+02  0.40777818199E+02  0.43400727697E+02  0.00000000000E+00 0.  1.
         11    1    3    3    0    0  0.62060083650E+01 -0.12762970451E+02 -0.40434587784E+02  0.42852816058E+02  0.51100000000E-03 0. -1.
        -11    1    3    3    0    0  0.30408034562E+01  0.22267042325E+01 -0.94356683543E+00  0.38852304992E+01  0.51100000000E-03 0.  1.
         12    1    3    3    0    0  0.69589067314E+00 -0.50616896147E+00  0.60033642090E+00  0.10492257454E+01  0.00000000000E+00 0. -1.
</event>
<event>
 7    1  0.2598019E-009  0.4778726E+02  0.7816164E-02  0.1312668E+00
        -11   -1    0    0    0    0  0.00000000000E+00  0.00000000000E+00  0.45593999997E+02  0.45594000000E+02  0.51100000000E-03 0. -1.
         11   -1    0    0    0    0 -0.00000000000E+00 -0.00000000000E+00 -0.45593999997E+02  0.45594000000E+02  0.51100000000E-03 0.  1.
    9900012    2    1    2    0    0  0.25682262842E+02  0.12392344133E+02  0.32718118757E+02  0.47787261380E+02  0.19999955935E+02 0.  0.
        -12    1    1    2    0    0 -0.25682262842E+02 -0.12392344133E+02 -0.32718118757E+02  0.43400738620E+02  0.00000000000E+00 0.  1.
         11    1    3    3    0    0  0.12128263268E+02  0.13191188234E+02  0.18582141912E+02  0.25814689911E+02  0.51100000000E-03 0. -1.
        -11    1    3    3    0    0  0.29877849619E+01 -0.38184166657E+01  0.80856655488E+01  0.94278922586E+01  0.51100000000E-03 0.  1.
        -12    1    3    3    0    0  0.10566214612E+02  0.30195725649E+01  0.60503112962E+01  0.12544679210E+02  0.00000000000E+00 0.  1.
</event>
<event>
 7    1 -0.2598019E-009  0.4778727E+02  0.7816164E-02  0.1312668E+00
        -11   -1    0    0    0    0  0.00000000000E+00  0.00000000000E+00  0.45593999997E+02  0.45594000000E+02  0.51100000000E-03 0.  1.
         11   -1    0    0    0    0 -0.00000000000E+00 -0.00000000000E+00 -0.45593999997E+02  0.45594000000E+02  0.51100000000E-03 0. -1.
    9900012    2    1    2    0    0  0.10701112666E+01 -0.27388678083E+02 -0.33650234177E+02  0.47787273215E+02  0.20000009898E+02 0.  0.
        -12    1    1    2    0    0 -0.10701112666E+01  0.27388678083E+02  0.33650234177E+02  0.43400726785E+02  0.00000000000E+00 0.  1.
         11    1    3    3    0    0  0.34773579589E+01 -0.90087354465E+01 -0.46531928928E+01  0.10719213454E+02  0.51100000000E-03 0. -1.
        -11    1    3    3    0    0 -0.71456014350E+01 -0.60645248199E+01 -0.82817470796E+01  0.12507014676E+02  0.51100000000E-03 0.  1.
        -12    1    3    3    0    0  0.47383547427E+01 -0.12315417816E+02 -0.20715294205E+02  0.24561045085E+02  0.00000000000E+00 0.  1.
</event>
<event>
 7    1  0.2598019E-009  0.4778727E+02  0.7816164E-02  0.1312668E+00
        -11   -1    0    0    0    0  0.00000000000E+00  0.00000000000E+00  0.45593999997E+02  0.45594000000E+02  0.51100000000E-03 0.  1.
         11   -1    0    0    0    0 -0.00000000000E+00 -0.00000000000E+00 -0.45593999997E+02  0.45594000000E+02  0.51100000000E-03 0. -1.
    9900012    2    1    2    0    0  0.22426968954E+02  0.12484089561E+02 -0.34997171595E+02  0.47787269035E+02  0.19999990839E+02 0.  0.
        -12    1    1    2    0    0 -0.22426968954E+02 -0.12484089561E+02  0.34997171595E+02  0.43400730965E+02  0.00000000000E+00 0.  1.
         11    1    3    3    0    0 -0.64732929973E+00  0.80964614965E+00 -0.77568252912E+01  0.78257843677E+01  0.51100000000E-03 0. -1.
        -11    1    3    3    0    0  0.14095052410E+02  0.53913323658E+01 -0.63530556321E+01  0.16373707071E+02  0.51100000000E-03 0.  1.
        -12    1    3    3    0    0  0.89792458434E+01  0.62831110455E+01 -0.20887290672E+02  0.23587777596E+02  0.00000000000E+00 0.  1.
</event>
<event>
 7    1  0.2598019E-009  0.4778727E+02  0.7816164E-02  0.1312668E+00
        -11   -1    0    0    0    0  0.00000000000E+00  0.00000000000E+00  0.45593999997E+02  0.45594000000E+02  0.51100000000E-03 0.  1.
         11   -1    0    0    0    0 -0.00000000000E+00 -0.00000000000E+00 -0.45593999997E+02  0.45594000000E+02  0.51100000000E-03 0. -1.
    9900012    2    1    2    0    0  0.41018699034E+02 -0.10959414972E+02  0.89989409670E+01  0.47787269758E+02  0.19999994136E+02 0.  0.
        -12    1    1    2    0    0 -0.41018699034E+02  0.10959414972E+02 -0.89989409670E+01  0.43400730242E+02  0.00000000000E+00 0.  1.
         11    1    3    3    0    0  0.20680932175E+02 -0.13212040208E+02  0.91979994151E+01  0.26208055166E+02  0.51100000000E-03 0. -1.
        -11    1    3    3    0    0  0.11756653556E+02  0.32110847753E+01  0.26779626557E+01  0.12478038809E+02  0.51100000000E-03 0.  1.
         12    1    3    3    0    0  0.85811133029E+01 -0.95845953919E+00 -0.28770211038E+01  0.91011757833E+01  0.00000000000E+00 0. -1.
</event>
<event>
 7    1  0.2598019E-009  0.4778729E+02  0.7816164E-02  0.1312668E+00
        -11   -1    0    0    0    0  0.00000000000E+00  0.00000000000E+00  0.45593999997E+02  0.45594000000E+02  0.51100000000E-03 0.  1.
         11   -1    0    0    0    0 -0.00000000000E+00 -0.00000000000E+00 -0.45593999997E+02  0.45594000000E+02  0.51100000000E-03 0. -1.
    9900012    2    1    2    0    0  0.16618469660E+02  0.30272054693E+02 -0.26287850372E+02  0.47787286799E+02  0.20000071831E+02 0.  0.
        -12    1    1    2    0    0 -0.16618469660E+02 -0.30272054693E+02  0.26287850372E+02  0.43400713201E+02  0.00000000000E+00 0.  1.
         11    1    3    3    0    0  0.13672761802E+02  0.12405078879E+02 -0.36915601819E+01  0.18827055375E+02  0.51100000000E-03 0. -1.
        -11    1    3    3    0    0  0.24044545086E+01  0.14194000973E+02 -0.18227845106E+02  0.23227255597E+02  0.51100000000E-03 0.  1.
         12    1    3    3    0    0  0.54125334989E+00  0.36729748408E+01 -0.43684450844E+01  0.57329758263E+01  0.00000000000E+00 0. -1.
</event>
<event>
 7    1  0.2598019E-009  0.4778727E+02  0.7816164E-02  0.1312668E+00
        -11   -1    0    0    0    0  0.00000000000E+00  0.00000000000E+00  0.45593999997E+02  0.45594000000E+02  0.51100000000E-03 0. -1.
         11   -1    0    0    0    0 -0.00000000000E+00 -0.00000000000E+00 -0.45593999997E+02  0.45594000000E+02  0.51100000000E-03 0.  1.
    9900012    2    1    2    0    0 -0.11113475206E+02 -0.31978432717E+02  0.27156836834E+02  0.47787271008E+02  0.19999999836E+02 0.  0.
        -12    1    1    2    0    0  0.11113475206E+02  0.31978432717E+02 -0.27156836834E+02  0.43400728992E+02  0.00000000000E+00 0.  1.
         11    1    3    3    0    0 -0.89218990978E+01 -0.26753327655E+02  0.23861020902E+02  0.36941699242E+02  0.51100000000E-03 0. -1.
        -11    1    3    3    0    0  0.21841820708E+01 -0.52774048860E+01  0.69166636525E+00  0.57532648358E+01  0.51100000000E-03 0.  1.
         12    1    3    3    0    0 -0.43757581792E+01  0.52299823804E-01  0.26041495663E+01  0.50923069308E+01  0.00000000000E+00 0. -1.
</event>
<event>
 7    1  0.2598019E-009  0.4778727E+02  0.7816164E-02  0.1312668E+00
        -11   -1    0    0    0    0  0.00000000000E+00  0.00000000000E+00  0.45593999997E+02  0.45594000000E+02  0.51100000000E-03 0.  1.
         11   -1    0    0    0    0 -0.00000000000E+00 -0.00000000000E+00 -0.45593999997E+02  0.45594000000E+02  0.51100000000E-03 0. -1.
    9900012    2    1    2    0    0  0.22517287562E+02 -0.30264142885E+02 -0.21463373054E+02  0.47787274585E+02  0.20000016142E+02 0.  0.
        -12    1    1    2    0    0 -0.22517287562E+02  0.30264142885E+02  0.21463373054E+02  0.43400725415E+02  0.00000000000E+00 0.  1.
         11    1    3    3    0    0  0.81319366078E+01 -0.23464346841E+02 -0.85272412405E+01  0.26256766920E+02  0.51100000000E-03 0. -1.
        -11    1    3    3    0    0  0.28304594633E+01 -0.23640244387E+01 -0.85686977567E-01  0.36888283830E+01  0.51100000000E-03 0.  1.
         12    1    3    3    0    0  0.11554891491E+02 -0.44357716054E+01 -0.12850444836E+02  0.17841679282E+02  0.00000000000E+00 0. -1.
</event>
<event>
 7    1  0.2598019E-009  0.4778728E+02  0.7816164E-02  0.1312668E+00
        -11   -1    0    0    0    0  0.00000000000E+00  0.00000000000E+00  0.45593999997E+02  0.45594000000E+02  0.51100000000E-03 0.  1.
         11   -1    0    0    0    0 -0.00000000000E+00 -0.00000000000E+00 -0.45593999997E+02  0.45594000000E+02  0.51100000000E-03 0. -1.
    9900012    2    1    2    0    0  0.17616843148E+02  0.28138772663E+02 -0.27954947415E+02  0.47787276798E+02  0.20000026232E+02 0.  0.
        -12    1    1    2    0    0 -0.17616843148E+02 -0.28138772663E+02  0.27954947415E+02  0.43400723202E+02  0.00000000000E+00 0.  1.
         11    1    3    3    0    0  0.18417236138E+02  0.22474439962E+02 -0.22810852893E+02  0.36940899401E+02  0.51100000000E-03 0. -1.
        -11    1    3    3    0    0  0.19031251524E+01  0.27999006590E+01  0.10160577178E+01  0.35346432059E+01  0.51100000000E-03 0.  1.
         12    1    3    3    0    0 -0.27035181422E+01  0.28644320424E+01 -0.61601522395E+01  0.73117341914E+01  0.00000000000E+00 0. -1.
</event>
<event>
 7    1  0.2598019E-009  0.4778728E+02  0.7816164E-02  0.1312668E+00
        -11   -1    0    0    0    0  0.00000000000E+00  0.00000000000E+00  0.45593999997E+02  0.45594000000E+02  0.51100000000E-03 0.  1.
         11   -1    0    0    0    0 -0.00000000000E+00 -0.00000000000E+00 -0.45593999997E+02  0.45594000000E+02  0.51100000000E-03 0. -1.
    9900012    2    1    2    0    0 -0.58357790601E+01  0.25420262389E+02 -0.34689720952E+02  0.47787276539E+02  0.20000025054E+02 0.  0.
        -12    1    1    2    0    0  0.58357790601E+01 -0.25420262389E+02  0.34689720952E+02  0.43400723461E+02  0.00000000000E+00 0.  1.
         11    1    3    3    0    0 -0.79175512569E+00  0.92556783707E+01 -0.70557022048E+01  0.11665221479E+02  0.51100000000E-03 0. -1.
        -11    1    3    3    0    0 -0.91176796979E+01  0.15522108735E+02 -0.26133180841E+02  0.31733437945E+02  0.51100000000E-03 0.  1.
        -12    1    3    3    0    0  0.40736557635E+01  0.64247528300E+00 -0.15008379058E+01  0.43886171157E+01  0.00000000000E+00 0.  1.
</event>
<event>
 7    1  0.2598019E-009  0.4778728E+02  0.7816164E-02  0.1312668E+00
        -11   -1    0    0    0    0  0.00000000000E+00  0.00000000000E+00  0.45593999997E+02  0.45594000000E+02  0.51100000000E-03 0.  1.
         11   -1    0    0    0    0 -0.00000000000E+00 -0.00000000000E+00 -0.45593999997E+02  0.45594000000E+02  0.51100000000E-03 0. -1.
    9900012    2    1    2    0    0 -0.36535752748E+02  0.19517675323E+02 -0.12954609821E+02  0.47787276568E+02  0.20000025182E+02 0.  0.
        -12    1    1    2    0    0  0.36535752748E+02 -0.19517675323E+02  0.12954609821E+02  0.43400723432E+02  0.00000000000E+00 0.  1.
         11    1    3    3    0    0 -0.64630563438E+01  0.46183480708E+01  0.23428126592E+01  0.82818480802E+01  0.51100000000E-03 0. -1.
        -11    1    3    3    0    0 -0.14825242129E+02  0.20877518273E+01 -0.12278531422E+02  0.19362563002E+02  0.51100000000E-03 0.  1.
        -12    1    3    3    0    0 -0.15247454275E+02  0.12811575425E+02 -0.30188910582E+01  0.20142865485E+02  0.00000000000E+00 0.  1.
</event>
<event>
 7    1  0.2598019E-009  0.4778727E+02  0.7816164E-02  0.1312668E+00
        -11   -1    0    0    0    0  0.00000000000E+00  0.00000000000E+00  0.45593999997E+02  0.45594000000E+02  0.51100000000E-03 0. -1.
         11   -1    0    0    0    0 -0.00000000000E+00 -0.00000000000E+00 -0.45593999997E+02  0.45594000000E+02  0.51100000000E-03 0.  1.
    9900012    2    1    2    0    0  0.35177371158E+01  0.97459344618E+01  0.42145762289E+02  0.47787274293E+02  0.20000014814E+02 0.  0.
        -12    1    1    2    0    0 -0.35177371158E+01 -0.97459344618E+01 -0.42145762289E+02  0.43400725707E+02  0.00000000000E+00 0.  1.
         11    1    3    3    0    0  0.94665427913E+01  0.76256195579E+01  0.37272273346E+02  0.39204436824E+02  0.51100000000E-03 0. -1.
        -11    1    3    3    0    0 -0.40659843983E+01  0.27973591044E+01  0.26883337874E+01  0.56200165391E+01  0.51100000000E-03 0.  1.
         12    1    3    3    0    0 -0.18828212772E+01 -0.67704420046E+00  0.21851551554E+01  0.29628209302E+01  0.00000000000E+00 0. -1.
</event>
<event>
 7    1  0.2598019E-009  0.4778729E+02  0.7816164E-02  0.1312668E+00
        -11   -1    0    0    0    0  0.00000000000E+00  0.00000000000E+00  0.45593999997E+02  0.45594000000E+02  0.51100000000E-03 0. -1.
         11   -1    0    0    0    0 -0.00000000000E+00 -0.00000000000E+00 -0.45593999997E+02  0.45594000000E+02  0.51100000000E-03 0.  1.
    9900012    2    1    2    0    0  0.18372486664E+02 -0.62967867455E+01  0.38812670968E+02  0.47787294738E+02  0.20000108029E+02 0.  0.
        -12    1    1    2    0    0 -0.18372486664E+02  0.62967867455E+01 -0.38812670968E+02  0.43400705262E+02  0.00000000000E+00 0.  1.
         11    1    3    3    0    0  0.43496374041E+01 -0.90475478889E+00  0.20430487693E+02  0.20907959116E+02  0.51100000000E-03 0. -1.
        -11    1    3    3    0    0  0.69937158635E+01  0.12719322177E+01  0.12770960436E+01  0.72222467219E+01  0.51100000000E-03 0.  1.
         12    1    3    3    0    0  0.70291333959E+01 -0.66639641743E+01  0.17105087232E+02  0.19657088900E+02  0.00000000000E+00 0. -1.
</event>
<event>
 7    1  0.2598019E-009  0.4778728E+02  0.7816164E-02  0.1312668E+00
        -11   -1    0    0    0    0  0.00000000000E+00  0.00000000000E+00  0.45593999997E+02  0.45594000000E+02  0.51100000000E-03 0.  1.
         11   -1    0    0    0    0 -0.00000000000E+00 -0.00000000000E+00 -0.45593999997E+02  0.45594000000E+02  0.51100000000E-03 0. -1.
    9900012    2    1    2    0    0 -0.13266732452E+02 -0.10282317257E+02 -0.40023619169E+02  0.47787281924E+02  0.20000049603E+02 0.  0.
        -12    1    1    2    0    0  0.13266732452E+02  0.10282317257E+02  0.40023619169E+02  0.43400718076E+02  0.00000000000E+00 0.  1.
         11    1    3    3    0    0 -0.66360935293E+01 -0.86378432624E+01 -0.27017540584E+02  0.29130698121E+02  0.51100000000E-03 0. -1.
        -11    1    3    3    0    0  0.13104711839E+01  0.20105998770E+01  0.60954385767E+00  0.24761644866E+01  0.51100000000E-03 0.  1.
        -12    1    3    3    0    0 -0.79411101068E+01 -0.36550738712E+01 -0.13615622443E+02  0.16180419316E+02  0.00000000000E+00 0.  1.
</event>
<event>
 7    1  0.2598019E-009  0.4778726E+02  0.7816164E-02  0.1312668E+00
        -11   -1    0    0    0    0  0.00000000000E+00  0.00000000000E+00  0.45593999997E+02  0.45594000000E+02  0.51100000000E-03 0.  1.
         11   -1    0    0    0    0 -0.00000000000E+00 -0.00000000000E+00 -0.45593999997E+02  0.45594000000E+02  0.51100000000E-03 0. -1.
    9900012    2    1    2    0    0 -0.26925786036E+02 -0.28109640151E+02 -0.19195689283E+02  0.47787259106E+02  0.19999945570E+02 0.  0.
        -12    1    1    2    0    0  0.26925786036E+02  0.28109640151E+02  0.19195689283E+02  0.43400740894E+02  0.00000000000E+00 0.  1.
         11    1    3    3    0    0 -0.23693866563E+02 -0.27202389504E+02 -0.17860602570E+02  0.40253825059E+02  0.51100000000E-03 0. -1.
        -11    1    3    3    0    0 -0.32495555642E+01 -0.33202379332E+01  0.23967829909E+00  0.46519928253E+01  0.51100000000E-03 0.  1.
         12    1    3    3    0    0  0.17636091612E-01  0.24129872862E+01 -0.15747650123E+01  0.28814412226E+01  0.00000000000E+00 0. -1.
</event>
<event>
 7    1  0.2598019E-009  0.4778727E+02  0.7816164E-02  0.1312668E+00
        -11   -1    0    0    0    0  0.00000000000E+00  0.00000000000E+00  0.45593999997E+02  0.45594000000E+02  0.51100000000E-03 0.  1.
         11   -1    0    0    0    0 -0.00000000000E+00 -0.00000000000E+00 -0.45593999997E+02  0.45594000000E+02  0.51100000000E-03 0. -1.
    9900012    2    1    2    0    0 -0.28240825516E+02  0.30963366758E+02  0.11284901914E+02  0.47787270536E+02  0.19999997681E+02 0.  0.
        -12    1    1    2    0    0  0.28240825516E+02 -0.30963366758E+02 -0.11284901914E+02  0.43400729464E+02  0.00000000000E+00 0.  1.
         11    1    3    3    0    0 -0.53314236344E+01  0.33212708498E+01  0.95066112971E+01  0.11394322123E+02  0.51100000000E-03 0. -1.
        -11    1    3    3    0    0 -0.17777806953E+02  0.22597219660E+02 -0.76033477985E+00  0.28762177693E+02  0.51100000000E-03 0.  1.
        -12    1    3    3    0    0 -0.51315949288E+01  0.50448762483E+01  0.25386253968E+01  0.76307707199E+01  0.00000000000E+00 0.  1.
</event>
<event>
 7    1  0.2598019E-009  0.4778727E+02  0.7816164E-02  0.1312668E+00
        -11   -1    0    0    0    0  0.00000000000E+00  0.00000000000E+00  0.45593999997E+02  0.45594000000E+02  0.51100000000E-03 0.  1.
         11   -1    0    0    0    0 -0.00000000000E+00 -0.00000000000E+00 -0.45593999997E+02  0.45594000000E+02  0.51100000000E-03 0. -1.
    9900012    2    1    2    0    0  0.21151389804E+02 -0.37825413965E+02  0.23409196494E+01  0.47787272621E+02  0.20000007188E+02 0.  0.
        -12    1    1    2    0    0 -0.21151389804E+02  0.37825413965E+02 -0.23409196494E+01  0.43400727379E+02  0.00000000000E+00 0.  1.
         11    1    3    3    0    0  0.70047578801E+00 -0.34146231653E+01  0.17150643744E+01  0.38848119337E+01  0.51100000000E-03 0. -1.
        -11    1    3    3    0    0  0.12066566986E+02 -0.15989568195E+02  0.90482535417E+01  0.21980428165E+02  0.51100000000E-03 0.  1.
        -12    1    3    3    0    0  0.83843470302E+01 -0.18421222604E+02 -0.84223982667E+01  0.21922032522E+02  0.00000000000E+00 0.  1.
</event>
<event>
 7    1  0.2598019E-009  0.4778727E+02  0.7816164E-02  0.1312668E+00
        -11   -1    0    0    0    0  0.00000000000E+00  0.00000000000E+00  0.45593999997E+02  0.45594000000E+02  0.51100000000E-03 0.  1.
         11   -1    0    0    0    0 -0.00000000000E+00 -0.00000000000E+00 -0.45593999997E+02  0.45594000000E+02  0.51100000000E-03 0. -1.
    9900012    2    1    2    0    0 -0.11876273362E+02 -0.29869812059E+02 -0.29161133957E+02  0.47787271030E+02  0.19999999936E+02 0.  0.
        -12    1    1    2    0    0  0.11876273362E+02  0.29869812059E+02  0.29161133957E+02  0.43400728970E+02  0.00000000000E+00 0.  1.
         11    1    3    3    0    0 -0.85487586866E+01 -0.14988944108E+02 -0.15546851270E+02  0.23226155627E+02  0.51100000000E-03 0. -1.
        -11    1    3    3    0    0  0.31616843803E+01  0.33990467532E+00 -0.74055682707E-01  0.31807652875E+01  0.51100000000E-03 0.  1.
        -12    1    3    3    0    0 -0.64891990562E+01 -0.15220772627E+02 -0.13540227004E+02  0.21380350116E+02  0.00000000000E+00 0.  1.
</event>
<event>
 7    1  0.2598019E-009  0.4778727E+02  0.7816164E-02  0.1312668E+00
        -11   -1    0    0    0    0  0.00000000000E+00  0.00000000000E+00  0.45593999997E+02  0.45594000000E+02  0.51100000000E-03 0.  1.
         11   -1    0    0    0    0 -0.00000000000E+00 -0.00000000000E+00 -0.45593999997E+02  0.45594000000E+02  0.51100000000E-03 0. -1.
    9900012    2    1    2    0    0 -0.31074530715E+02  0.24314109734E+02 -0.18078197911E+02  0.47787266930E+02  0.19999981239E+02 0.  0.
        -12    1    1    2    0    0  0.31074530715E+02 -0.24314109734E+02  0.18078197911E+02  0.43400733070E+02  0.00000000000E+00 0.  1.
         11    1    3    3    0    0 -0.70167740702E+01  0.14385685920E+02 -0.63689450344E+01  0.17226332716E+02  0.51100000000E-03 0. -1.
        -11    1    3    3    0    0 -0.23002064214E+01  0.19502170851E+01  0.20157569151E+01  0.36273368278E+01  0.51100000000E-03 0.  1.
         12    1    3    3    0    0 -0.21757550224E+02  0.79782067287E+01 -0.13725009792E+02  0.26933597385E+02  0.00000000000E+00 0. -1.
</event>
<event>
 7    1  0.2598019E-009  0.4778729E+02  0.7816164E-02  0.1312668E+00
        -11   -1    0    0    0    0  0.00000000000E+00  0.00000000000E+00  0.45593999997E+02  0.45594000000E+02  0.51100000000E-03 0.  1.
         11   -1    0    0    0    0 -0.00000000000E+00 -0.00000000000E+00 -0.45593999997E+02  0.45594000000E+02  0.51100000000E-03 0. -1.
    9900012    2    1    2    0    0  0.12172386880E+02 -0.37492086167E+02 -0.18160349154E+02  0.47787287921E+02  0.20000076948E+02 0.  0.
        -12    1    1    2    0    0 -0.12172386880E+02  0.37492086167E+02  0.18160349154E+02  0.43400712079E+02  0.00000000000E+00 0.  1.
         11    1    3    3    0    0  0.43591585237E+01 -0.23133852897E+02 -0.13033114751E+02  0.26907981962E+02  0.51100000000E-03 0. -1.
        -11    1    3    3    0    0  0.18867940306E+01  0.13169036248E+01 -0.32985410571E+01  0.40217658109E+01  0.51100000000E-03 0.  1.
         12    1    3    3    0    0  0.59264343256E+01 -0.15675136895E+02 -0.18286933462E+01  0.16857540148E+02  0.00000000000E+00 0. -1.
</event>
<event>
 7    1  0.2598019E-009  0.4778727E+02  0.7816164E-02  0.1312668E+00
        -11   -1    0    0    0    0  0.00000000000E+00  0.00000000000E+00  0.45593999997E+02  0.45594000000E+02  0.51100000000E-03 0.  1.
         11   -1    0    0    0    0 -0.00000000000E+00 -0.00000000000E+00 -0.45593999997E+02  0.45594000000E+02  0.51100000000E-03 0. -1.
    9900012    2    1    2    0    0 -0.14045431229E+02  0.31941330955E+02 -0.25808920560E+02  0.47787272563E+02  0.20000006924E+02 0.  0.
        -12    1    1    2    0    0  0.14045431229E+02 -0.31941330955E+02  0.25808920560E+02  0.43400727437E+02  0.00000000000E+00 0.  1.
         11    1    3    3    0    0 -0.15730754910E+01  0.17020870790E+02 -0.32322227528E+01  0.17396317804E+02  0.51100000000E-03 0. -1.
        -11    1    3    3    0    0 -0.11563611517E+02  0.11102948297E+02 -0.15499348046E+02  0.22298483408E+02  0.51100000000E-03 0.  1.
         12    1    3    3    0    0 -0.90874422086E+00  0.38175118688E+01 -0.70773497612E+01  0.80924713512E+01  0.00000000000E+00 0. -1.
</event>
<event>
 7    1  0.2598019E-009  0.4778727E+02  0.7816164E-02  0.1312668E+00
        -11   -1    0    0    0    0  0.00000000000E+00  0.00000000000E+00  0.45593999997E+02  0.45594000000E+02  0.51100000000E-03 0.  1.
         11   -1    0    0    0    0 -0.00000000000E+00 -0.00000000000E+00 -0.45593999997E+02  0.45594000000E+02  0.51100000000E-03 0. -1.
    9900012    2    1    2    0    0  0.27148127828E+02  0.18345649349E+02 -0.28461194186E+02  0.47787271100E+02  0.20000000254E+02 0.  0.
        -12    1    1    2    0    0 -0.27148127828E+02 -0.18345649349E+02  0.28461194186E+02  0.43400728900E+02  0.00000000000E+00 0.  1.
         11    1    3    3    0    0  0.17621756075E+02  0.95321583053E+01 -0.73746772276E+01  0.21348868672E+02  0.51100000000E-03 0. -1.
        -11    1    3    3    0    0  0.76668058790E+01  0.97912071190E+01 -0.20912024844E+02  0.24330237002E+02  0.51100000000E-03 0.  1.
        -12    1    3    3    0    0  0.18595658739E+01 -0.97771607567E+00 -0.17449211379E+00  0.21081654256E+01  0.00000000000E+00 0.  1.
</event>
<event>
 7    1  0.2598019E-009  0.4778727E+02  0.7816164E-02  0.1312668E+00
        -11   -1    0    0    0    0  0.00000000000E+00  0.00000000000E+00  0.45593999997E+02  0.45594000000E+02  0.51100000000E-03 0. -1.
         11   -1    0    0    0    0 -0.00000000000E+00 -0.00000000000E+00 -0.45593999997E+02  0.45594000000E+02  0.51100000000E-03 0.  1.
    9900012    2    1    2    0    0 -0.26387855507E+02 -0.14765227081E+02  0.31133468867E+02  0.47787265758E+02  0.19999975899E+02 0.  0.
        -12    1    1    2    0    0  0.26387855507E+02  0.14765227081E+02 -0.31133468867E+02  0.43400734242E+02  0.00000000000E+00 0.  1.
         11    1    3    3    0    0 -0.84344145524E+00 -0.92703090814E+00  0.30164973284E+01  0.32665021332E+01  0.51100000000E-03 0. -1.
        -11    1    3    3    0    0 -0.18685209533E+02 -0.76748290199E+01  0.68319836210E+01  0.21324072224E+02  0.51100000000E-03 0.  1.
        -12    1    3    3    0    0 -0.68592045187E+01 -0.61633671532E+01  0.21284987918E+02  0.23196691401E+02  0.00000000000E+00 0.  1.
</event>
<event>
 7    1  0.2598019E-009  0.4778727E+02  0.7816164E-02  0.1312668E+00
        -11   -1    0    0    0    0  0.00000000000E+00  0.00000000000E+00  0.45593999997E+02  0.45594000000E+02  0.51100000000E-03 0. -1.
         11   -1    0    0    0    0 -0.00000000000E+00 -0.00000000000E+00 -0.45593999997E+02  0.45594000000E+02  0.51100000000E-03 0.  1.
    9900012    2    1    2    0    0  0.35829716419E+02  0.22892795447E+02  0.87048763356E+01  0.47787268047E+02  0.19999986333E+02 0.  0.
        -12    1    1    2    0    0 -0.35829716419E+02 -0.22892795447E+02 -0.87048763356E+01  0.43400731953E+02  0.00000000000E+00 0.  1.
         11    1    3    3    0    0  0.13122180357E+02  0.17414665183E+02  0.85055316543E+01  0.23405261155E+02  0.51100000000E-03 0. -1.
        -11    1    3    3    0    0 -0.43346510764E+00  0.10815423045E+00  0.43696566120E+00  0.62492286508E+00  0.51100000000E-03 0.  1.
         12    1    3    3    0    0  0.23141001169E+02  0.53699760345E+01 -0.23762097990E+00  0.23757084027E+02  0.00000000000E+00 0. -1.
</event>
<event>
 7    1  0.2598019E-009  0.4778727E+02  0.7816164E-02  0.1312668E+00
        -11   -1    0    0    0    0  0.00000000000E+00  0.00000000000E+00  0.45593999997E+02  0.45594000000E+02  0.51100000000E-03 0. -1.
         11   -1    0    0    0    0 -0.00000000000E+00 -0.00000000000E+00 -0.45593999997E+02  0.45594000000E+02  0.51100000000E-03 0.  1.
    9900012    2    1    2    0    0 -0.39830853093E+02 -0.17177146890E+02  0.14395627963E+01  0.47787267582E+02  0.19999984212E+02 0.  0.
        -12    1    1    2    0    0  0.39830853093E+02  0.17177146890E+02 -0.14395627963E+01  0.43400732418E+02  0.00000000000E+00 0.  1.
         11    1    3    3    0    0 -0.90246387027E+01  0.97696441753E+00  0.47373652864E+01  0.10239198860E+02  0.51100000000E-03 0. -1.
        -11    1    3    3    0    0 -0.14145629171E+02 -0.61665169338E+01 -0.65556558950E+01  0.16766078260E+02  0.51100000000E-03 0.  1.
         12    1    3    3    0    0 -0.16660585219E+02 -0.11987594374E+02  0.32578534049E+01  0.20781990461E+02  0.00000000000E+00 0. -1.
</event>
<event>
 7    1  0.2598019E-009  0.4778727E+02  0.7816164E-02  0.1312668E+00
        -11   -1    0    0    0    0  0.00000000000E+00  0.00000000000E+00  0.45593999997E+02  0.45594000000E+02  0.51100000000E-03 0.  1.
         11   -1    0    0    0    0 -0.00000000000E+00 -0.00000000000E+00 -0.45593999997E+02  0.45594000000E+02  0.51100000000E-03 0. -1.
    9900012    2    1    2    0    0  0.32960787813E+02 -0.18948711972E+02 -0.20932171564E+02  0.47787273911E+02  0.20000013070E+02 0.  0.
        -12    1    1    2    0    0 -0.32960787813E+02  0.18948711972E+02  0.20932171564E+02  0.43400726089E+02  0.00000000000E+00 0.  1.
         11    1    3    3    0    0  0.15171545286E+02 -0.10679512466E+02 -0.78174721596E+01  0.20133073389E+02  0.51100000000E-03 0. -1.
        -11    1    3    3    0    0  0.18153634612E+02 -0.41132130655E+01 -0.62758910233E+01  0.19643313869E+02  0.51100000000E-03 0.  1.
        -12    1    3    3    0    0 -0.36439208500E+00 -0.41559864408E+01 -0.68388083815E+01  0.80108866530E+01  0.00000000000E+00 0.  1.
</event>
<event>
 7    1  0.2598019E-009  0.4778727E+02  0.7816164E-02  0.1312668E+00
        -11   -1    0    0    0    0  0.00000000000E+00  0.00000000000E+00  0.45593999997E+02  0.45594000000E+02  0.51100000000E-03 0.  1.
         11   -1    0    0    0    0 -0.00000000000E+00 -0.00000000000E+00 -0.45593999997E+02  0.45594000000E+02  0.51100000000E-03 0. -1.
    9900012    2    1    2    0    0  0.17069017866E+01  0.64881822765E+01 -0.42879052533E+02  0.47787272252E+02  0.20000005504E+02 0.  0.
        -12    1    1    2    0    0 -0.17069017866E+01 -0.64881822765E+01  0.42879052533E+02  0.43400727748E+02  0.00000000000E+00 0.  1.
         11    1    3    3    0    0  0.23012075031E+01 -0.38548462524E+01 -0.16901753273E+02  0.17487843194E+02  0.51100000000E-03 0. -1.
        -11    1    3    3    0    0  0.15248710413E+01  0.86350704245E+01 -0.72566115227E+01  0.11381919169E+02  0.51100000000E-03 0.  1.
        -12    1    3    3    0    0 -0.21191767577E+01  0.17079581044E+01 -0.18720687737E+02  0.18917509888E+02  0.00000000000E+00 0.  1.
</event>
<event>
 7    1  0.2598019E-009  0.4778728E+02  0.7816164E-02  0.1312668E+00
        -11   -1    0    0    0    0  0.00000000000E+00  0.00000000000E+00  0.45593999997E+02  0.45594000000E+02  0.51100000000E-03 0. -1.
         11   -1    0    0    0    0 -0.00000000000E+00 -0.00000000000E+00 -0.45593999997E+02  0.45594000000E+02  0.51100000000E-03 0.  1.
    9900012    2    1    2    0    0  0.23000952232E+02 -0.35527429267E+02 -0.96114955667E+01  0.47787275571E+02  0.20000020640E+02 0.  0.
        -12    1    1    2    0    0 -0.23000952232E+02  0.35527429267E+02  0.96114955667E+01  0.43400724429E+02  0.00000000000E+00 0.  1.
         11    1    3    3    0    0 -0.71586113175E+00 -0.13228734115E+02 -0.35352771475E+01  0.13711675617E+02  0.51100000000E-03 0. -1.
        -11    1    3    3    0    0  0.17128440460E+02 -0.18391390453E+02 -0.76194554515E+01  0.26261812905E+02  0.51100000000E-03 0.  1.
         12    1    3    3    0    0  0.65883729036E+01 -0.39073046984E+01  0.15432370323E+01  0.78137870499E+01  0.00000000000E+00 0. -1.
</event>
<event>
 7    1  0.2598019E-009  0.4778727E+02  0.7816164E-02  0.1312668E+00
        -11   -1    0    0    0    0  0.00000000000E+00  0.00000000000E+00  0.45593999997E+02  0.45594000000E+02  0.51100000000E-03 0.  1.
         11   -1    0    0    0    0 -0.00000000000E+00 -0.00000000000E+00 -0.45593999997E+02  0.45594000000E+02  0.51100000000E-03 0. -1.
    9900012    2    1    2    0    0 -0.13454011747E+02 -0.34236667070E+02 -0.23031798159E+02  0.47787268087E+02  0.19999986515E+02 0.  0.
        -12    1    1    2    0    0  0.13454011747E+02  0.34236667070E+02  0.23031798159E+02  0.43400731913E+02  0.00000000000E+00 0.  1.
         11    1    3    3    0    0 -0.15751639525E+02 -0.20716840057E+02 -0.13049122555E+02  0.29113248005E+02  0.51100000000E-03 0. -1.
        -11    1    3    3    0    0  0.31698673690E+01 -0.14199616585E+02 -0.98276985015E+01  0.17557358241E+02  0.51100000000E-03 0.  1.
        -12    1    3    3    0    0 -0.87223959084E+00  0.67978957140E+00 -0.15497710217E+00  0.11166618411E+01  0.00000000000E+00 0.  1.
</event>
<event>
 7    1  0.2598019E-009  0.4778727E+02  0.7816164E-02  0.1312668E+00
        -11   -1    0    0    0    0  0.00000000000E+00  0.00000000000E+00  0.45593999997E+02  0.45594000000E+02  0.51100000000E-03 0.  1.
         11   -1    0    0    0    0 -0.00000000000E+00 -0.00000000000E+00 -0.45593999997E+02  0.45594000000E+02  0.51100000000E-03 0. -1.
    9900012    2    1    2    0    0 -0.20476529682E+02  0.38241918254E+02 -0.13750054059E+01  0.47787271672E+02  0.20000002860E+02 0.  0.
        -12    1    1    2    0    0  0.20476529682E+02 -0.38241918254E+02  0.13750054059E+01  0.43400728328E+02  0.00000000000E+00 0.  1.
         11    1    3    3    0    0 -0.10893658024E+02  0.13378148706E+02 -0.16848200321E+01  0.17334510860E+02  0.51100000000E-03 0. -1.
        -11    1    3    3    0    0 -0.19739136280E+01  0.49505962662E+01 -0.61882825486E+01  0.81669810557E+01  0.51100000000E-03 0.  1.
        -12    1    3    3    0    0 -0.76089580299E+01  0.19913173282E+02  0.64980971748E+01  0.22285779756E+02  0.00000000000E+00 0.  1.
</event>
<event>
 7    1  0.2598019E-009  0.4778728E+02  0.7816164E-02  0.1312668E+00
        -11   -1    0    0    0    0  0.00000000000E+00  0.00000000000E+00  0.45593999997E+02  0.45594000000E+02  0.51100000000E-03 0. -1.
         11   -1    0    0    0    0 -0.00000000000E+00 -0.00000000000E+00 -0.45593999997E+02  0.45594000000E+02  0.51100000000E-03 0.  1.
    9900012    2    1    2    0    0  0.27539252196E+01  0.36235253678E+02 -0.23728566314E+02  0.47787279124E+02  0.20000036837E+02 0.  0.
        -12    1    1    2    0    0 -0.27539252196E+01 -0.36235253678E+02  0.23728566314E+02  0.43400720876E+02  0.00000000000E+00 0.  1.
         11    1    3    3    0    0 -0.34194110597E+01  0.98867505864E+01 -0.49811941555E+01  0.11586738308E+02  0.51100000000E-03 0. -1.
        -11    1    3    3    0    0  0.48600560965E+00  0.19294520027E+02 -0.19071382275E+02  0.27133601432E+02  0.51100000000E-03 0.  1.
        -12    1    3    3    0    0  0.56873306697E+01  0.70539830649E+01  0.32401011630E+00  0.90669393834E+01  0.00000000000E+00 0.  1.
</event>
<event>
 7    1  0.2598019E-009  0.4778727E+02  0.7816164E-02  0.1312668E+00
        -11   -1    0    0    0    0  0.00000000000E+00  0.00000000000E+00  0.45593999997E+02  0.45594000000E+02  0.51100000000E-03 0.  1.
         11   -1    0    0    0    0 -0.00000000000E+00 -0.00000000000E+00 -0.45593999997E+02  0.45594000000E+02  0.51100000000E-03 0. -1.
    9900012    2    1    2    0    0  0.29903083529E+02 -0.20450679600E+02 -0.23899762415E+02  0.47787270235E+02  0.19999996310E+02 0.  0.
        -12    1    1    2    0    0 -0.29903083529E+02  0.20450679600E+02  0.23899762415E+02  0.43400729765E+02  0.00000000000E+00 0.  1.
         11    1    3    3    0    0  0.14126579774E+02 -0.25058416072E+01 -0.16237320681E+02  0.21667719803E+02  0.51100000000E-03 0. -1.
        -11    1    3    3    0    0  0.52903913791E+01 -0.92290571771E+01 -0.64263543676E+01  0.12428264885E+02  0.51100000000E-03 0.  1.
         12    1    3    3    0    0  0.10486112376E+02 -0.87157808154E+01 -0.12360873659E+01  0.13691285548E+02  0.00000000000E+00 0. -1.
</event>
<event>
 7    1  0.2598019E-009  0.4778727E+02  0.7816164E-02  0.1312668E+00
        -11   -1    0    0    0    0  0.00000000000E+00  0.00000000000E+00  0.45593999997E+02  0.45594000000E+02  0.51100000000E-03 0.  1.
         11   -1    0    0    0    0 -0.00000000000E+00 -0.00000000000E+00 -0.45593999997E+02  0.45594000000E+02  0.51100000000E-03 0. -1.
    9900012    2    1    2    0    0 -0.22616434818E+02 -0.11535629957E+02 -0.35200133728E+02  0.47787270780E+02  0.19999998794E+02 0.  0.
        -12    1    1    2    0    0  0.22616434818E+02  0.11535629957E+02  0.35200133728E+02  0.43400729220E+02  0.00000000000E+00 0.  1.
         11    1    3    3    0    0 -0.79221562989E+01 -0.13667131939E+02 -0.10910391014E+02  0.19198637665E+02  0.51100000000E-03 0. -1.
        -11    1    3    3    0    0 -0.74380023470E+01  0.23999141837E+01 -0.12673655100E+02  0.14889761612E+02  0.51100000000E-03 0.  1.
         12    1    3    3    0    0 -0.72562761725E+01 -0.26841220143E+00 -0.11616087614E+02  0.13698871503E+02  0.00000000000E+00 0. -1.
</event>
<event>
 7    1  0.2598019E-009  0.4778729E+02  0.7816164E-02  0.1312668E+00
        -11   -1    0    0    0    0  0.00000000000E+00  0.00000000000E+00  0.45593999997E+02  0.45594000000E+02  0.51100000000E-03 0.  1.
         11   -1    0    0    0    0 -0.00000000000E+00 -0.00000000000E+00 -0.45593999997E+02  0.45594000000E+02  0.51100000000E-03 0. -1.
    9900012    2    1    2    0    0  0.11404700807E+02  0.12912305568E+02 -0.39834995371E+02  0.47787289271E+02  0.20000083101E+02 0.  0.
        -12    1    1    2    0    0 -0.11404700807E+02 -0.12912305568E+02  0.39834995371E+02  0.43400710729E+02  0.00000000000E+00 0.  1.
         11    1    3    3    0    0 -0.13723861376E+01 -0.21228446201E+01 -0.19364623741E+01  0.31843052271E+01  0.51100000000E-03 0.  1.
        -11    1    3    3    0    0  0.11332284563E+02  0.12396188773E+02 -0.18557385636E+02  0.25029237532E+02  0.51100000000E-03 0. -1.
        -12    1    3    3    0    0  0.14448023810E+01  0.26389614149E+01 -0.19341147361E+02  0.19573746512E+02  0.00000000000E+00 0.  1.
</event>
<event>
 7    1  0.2598019E-009  0.4778728E+02  0.7816164E-02  0.1312668E+00
        -11   -1    0    0    0    0  0.00000000000E+00  0.00000000000E+00  0.45593999997E+02  0.45594000000E+02  0.51100000000E-03 0.  1.
         11   -1    0    0    0    0 -0.00000000000E+00 -0.00000000000E+00 -0.45593999997E+02  0.45594000000E+02  0.51100000000E-03 0. -1.
    9900012    2    1    2    0    0 -0.14630760623E+02 -0.31203172612E+02 -0.26380389616E+02  0.47787284641E+02  0.20000061990E+02 0.  0.
        -12    1    1    2    0    0  0.14630760623E+02  0.31203172612E+02  0.26380389616E+02  0.43400715359E+02  0.00000000000E+00 0.  1.
         11    1    3    3    0    0 -0.70938368621E+01 -0.16371024253E+02 -0.23883781587E+02  0.29812211922E+02  0.51100000000E-03 0. -1.
        -11    1    3    3    0    0 -0.56705660504E+01 -0.51094686640E+01  0.44847519260E+00  0.76461179444E+01  0.51100000000E-03 0.  1.
        -12    1    3    3    0    0 -0.18663577105E+01 -0.97226796943E+01 -0.29450832210E+01  0.10328954774E+02  0.00000000000E+00 0.  1.
</event>
<event>
 7    1  0.2598019E-009  0.4778727E+02  0.7816164E-02  0.1312668E+00
        -11   -1    0    0    0    0  0.00000000000E+00  0.00000000000E+00  0.45593999997E+02  0.45594000000E+02  0.51100000000E-03 0. -1.
         11   -1    0    0    0    0 -0.00000000000E+00 -0.00000000000E+00 -0.45593999997E+02  0.45594000000E+02  0.51100000000E-03 0.  1.
    9900012    2    1    2    0    0 -0.13673001700E+01  0.37947163192E+02  0.21018247358E+02  0.47787269291E+02  0.19999992005E+02 0.  0.
        -12    1    1    2    0    0  0.13673001700E+01 -0.37947163192E+02 -0.21018247358E+02  0.43400730709E+02  0.00000000000E+00 0.  1.
         11    1    3    3    0    0  0.13709936593E+01  0.27406621131E+02  0.91049294874E+01  0.28911974105E+02  0.51100000000E-03 0. -1.
        -11    1    3    3    0    0 -0.29246104593E+01 -0.95772538044E+00  0.32628943328E+01  0.44852050043E+01  0.51100000000E-03 0.  1.
        -12    1    3    3    0    0  0.18631662995E+00  0.11498267442E+02  0.86504235377E+01  0.14390090182E+02  0.00000000000E+00 0.  1.
</event>
<event>
 7    1  0.2598019E-009  0.4778728E+02  0.7816164E-02  0.1312668E+00
        -11   -1    0    0    0    0  0.00000000000E+00  0.00000000000E+00  0.45593999997E+02  0.45594000000E+02  0.51100000000E-03 0.  1.
         11   -1    0    0    0    0 -0.00000000000E+00 -0.00000000000E+00 -0.45593999997E+02  0.45594000000E+02  0.51100000000E-03 0. -1.
    9900012    2    1    2    0    0 -0.35633034353E+02 -0.20024342814E+02 -0.14592283310E+02  0.47787283709E+02  0.20000057744E+02 0.  0.
        -12    1    1    2    0    0  0.35633034353E+02  0.20024342814E+02  0.14592283310E+02  0.43400716291E+02  0.00000000000E+00 0.  1.
         11    1    3    3    0    0  0.55848847895E+00  0.26649967299E+00 -0.18316048378E+01  0.19333152872E+01  0.51100000000E-03 0. -1.
        -11    1    3    3    0    0 -0.21812440303E+02 -0.51889271603E+01 -0.23407058004E+01  0.22542990506E+02  0.51100000000E-03 0.  1.
        -12    1    3    3    0    0 -0.14379082529E+02 -0.15101915327E+02 -0.10419972671E+02  0.23310977916E+02  0.00000000000E+00 0.  1.
</event>
<event>
 7    1  0.2598019E-009  0.4778727E+02  0.7816164E-02  0.1312668E+00
        -11   -1    0    0    0    0  0.00000000000E+00  0.00000000000E+00  0.45593999997E+02  0.45594000000E+02  0.51100000000E-03 0. -1.
         11   -1    0    0    0    0 -0.00000000000E+00 -0.00000000000E+00 -0.45593999997E+02  0.45594000000E+02  0.51100000000E-03 0.  1.
    9900012    2    1    2    0    0  0.62411260936E+01  0.28384198744E+02  0.32233661323E+02  0.47787270564E+02  0.19999997811E+02 0.  0.
        -12    1    1    2    0    0 -0.62411260936E+01 -0.28384198744E+02 -0.32233661323E+02  0.43400729436E+02  0.00000000000E+00 0.  1.
         11    1    3    3    0    0  0.61898131977E+00  0.18050794015E+02  0.73190883375E+01  0.19488031117E+02  0.51100000000E-03 0. -1.
        -11    1    3    3    0    0  0.16466711252E+01 -0.16000495246E+00  0.67365929487E+01  0.69367724625E+01  0.51100000000E-03 0.  1.
         12    1    3    3    0    0  0.39754736486E+01  0.10493409681E+02  0.18177980037E+02  0.21362466985E+02  0.00000000000E+00 0. -1.
</event>
<event>
 7    1  0.2598019E-009  0.4778727E+02  0.7816164E-02  0.1312668E+00
        -11   -1    0    0    0    0  0.00000000000E+00  0.00000000000E+00  0.45593999997E+02  0.45594000000E+02  0.51100000000E-03 0.  1.
         11   -1    0    0    0    0 -0.00000000000E+00 -0.00000000000E+00 -0.45593999997E+02  0.45594000000E+02  0.51100000000E-03 0. -1.
    9900012    2    1    2    0    0 -0.35503918895E+02  0.20646335974E+02 -0.14029398662E+02  0.47787268752E+02  0.19999989547E+02 0.  0.
        -12    1    1    2    0    0  0.35503918895E+02 -0.20646335974E+02  0.14029398662E+02  0.43400731248E+02  0.00000000000E+00 0.  1.
         11    1    3    3    0    0 -0.20606102329E+02  0.14568027141E+02 -0.12958935856E+02  0.28368519291E+02  0.51100000000E-03 0. -1.
        -11    1    3    3    0    0 -0.10424073566E+02  0.44125544049E+01  0.44121877544E+01  0.12149047169E+02  0.51100000000E-03 0.  1.
        -12    1    3    3    0    0 -0.44737430006E+01  0.16657544288E+01 -0.54826505599E+01  0.72697022920E+01  0.00000000000E+00 0.  1.
</event>
<event>
 7    1  0.2598019E-009  0.4778727E+02  0.7816164E-02  0.1312668E+00
        -11   -1    0    0    0    0  0.00000000000E+00  0.00000000000E+00  0.45593999997E+02  0.45594000000E+02  0.51100000000E-03 0.  1.
         11   -1    0    0    0    0 -0.00000000000E+00 -0.00000000000E+00 -0.45593999997E+02  0.45594000000E+02  0.51100000000E-03 0. -1.
    9900012    2    1    2    0    0 -0.98376271105E+01  0.24635554615E+02 -0.34350167267E+02  0.47787269020E+02  0.19999990770E+02 0.  0.
        -12    1    1    2    0    0  0.98376271105E+01 -0.24635554615E+02  0.34350167267E+02  0.43400730980E+02  0.00000000000E+00 0.  1.
         11    1    3    3    0    0 -0.22380411395E+01  0.70675468782E+00 -0.14523691456E+02  0.14712101961E+02  0.51100000000E-03 0.  1.
        -11    1    3    3    0    0 -0.69425170924E+01  0.17491185135E+02 -0.18656571942E+02  0.26499203344E+02  0.51100000000E-03 0. -1.
        -12    1    3    3    0    0 -0.65706887853E+00  0.64376147920E+01 -0.11699038692E+01  0.65759637153E+01  0.00000000000E+00 0.  1.
</event>
<event>
 7    1  0.2598019E-009  0.4778727E+02  0.7816164E-02  0.1312668E+00
        -11   -1    0    0    0    0  0.00000000000E+00  0.00000000000E+00  0.45593999997E+02  0.45594000000E+02  0.51100000000E-03 0.  1.
         11   -1    0    0    0    0 -0.00000000000E+00 -0.00000000000E+00 -0.45593999997E+02  0.45594000000E+02  0.51100000000E-03 0. -1.
    9900012    2    1    2    0    0  0.16246655276E+02  0.20308958155E+02 -0.34745015016E+02  0.47787266625E+02  0.19999979850E+02 0.  0.
        -12    1    1    2    0    0 -0.16246655276E+02 -0.20308958155E+02  0.34745015016E+02  0.43400733375E+02  0.00000000000E+00 0.  1.
         11    1    3    3    0    0  0.65849184305E+01  0.13598129524E+02 -0.58309681712E+01  0.16194766666E+02  0.51100000000E-03 0. -1.
        -11    1    3    3    0    0  0.86741742081E+00  0.19306417177E+01 -0.96924855810E+01  0.99208904551E+01  0.51100000000E-03 0.  1.
         12    1    3    3    0    0  0.87943194242E+01  0.47801869138E+01 -0.19221561264E+02  0.21671609504E+02  0.00000000000E+00 0. -1.
</event>
<event>
 7    1  0.2598019E-009  0.4778726E+02  0.7816164E-02  0.1312668E+00
        -11   -1    0    0    0    0  0.00000000000E+00  0.00000000000E+00  0.45593999997E+02  0.45594000000E+02  0.51100000000E-03 0.  1.
         11   -1    0    0    0    0 -0.00000000000E+00 -0.00000000000E+00 -0.45593999997E+02  0.45594000000E+02  0.51100000000E-03 0. -1.
    9900012    2    1    2    0    0  0.87209092286E+01 -0.29801403924E+02 -0.30322372751E+02  0.47787260112E+02  0.19999950154E+02 0.  0.
        -12    1    1    2    0    0 -0.87209092286E+01  0.29801403924E+02  0.30322372751E+02  0.43400739888E+02  0.00000000000E+00 0.  1.
         11    1    3    3    0    0  0.63848613680E+01 -0.15100839187E+02 -0.12634699764E+02  0.20698730328E+02  0.51100000000E-03 0. -1.
        -11    1    3    3    0    0 -0.50054180635E+01 -0.71217693505E+01 -0.12751664911E+02  0.15439519647E+02  0.51100000000E-03 0.  1.
        -12    1    3    3    0    0  0.73414659241E+01 -0.75787953866E+01 -0.49360080761E+01  0.11649010136E+02  0.00000000000E+00 0.  1.
</event>
<event>
 7    1  0.2598019E-009  0.4778727E+02  0.7816164E-02  0.1312668E+00
        -11   -1    0    0    0    0  0.00000000000E+00  0.00000000000E+00  0.45593999997E+02  0.45594000000E+02  0.51100000000E-03 0.  1.
         11   -1    0    0    0    0 -0.00000000000E+00 -0.00000000000E+00 -0.45593999997E+02  0.45594000000E+02  0.51100000000E-03 0. -1.
    9900012    2    1    2    0    0  0.37432138407E+02 -0.63411524415E+01 -0.21029694152E+02  0.47787271479E+02  0.20000001982E+02 0.  0.
        -12    1    1    2    0    0 -0.37432138407E+02  0.63411524415E+01  0.21029694152E+02  0.43400728521E+02  0.00000000000E+00 0.  1.
         11    1    3    3    0    0  0.10326858295E+02  0.41860745269E+01 -0.10119090529E+02  0.15052016994E+02  0.51100000000E-03 0. -1.
        -11    1    3    3    0    0  0.22564172326E+02 -0.10638988530E+02 -0.12525214378E+02  0.27914350166E+02  0.51100000000E-03 0.  1.
         12    1    3    3    0    0  0.45411077861E+01  0.11176156175E+00  0.16146107547E+01  0.48209043199E+01  0.00000000000E+00 0. -1.
</event>
<event>
 7    1  0.2598019E-009  0.4778727E+02  0.7816164E-02  0.1312668E+00
        -11   -1    0    0    0    0  0.00000000000E+00  0.00000000000E+00  0.45593999997E+02  0.45594000000E+02  0.51100000000E-03 0.  1.
         11   -1    0    0    0    0 -0.00000000000E+00 -0.00000000000E+00 -0.45593999997E+02  0.45594000000E+02  0.51100000000E-03 0. -1.
    9900012    2    1    2    0    0 -0.30225045352E+02 -0.51925559743E+01 -0.30710052130E+02  0.47787270675E+02  0.19999998317E+02 0.  0.
        -12    1    1    2    0    0  0.30225045352E+02  0.51925559743E+01  0.30710052130E+02  0.43400729325E+02  0.00000000000E+00 0.  1.
         11    1    3    3    0    0 -0.12865119539E+02  0.31526013958E+01 -0.12483913087E+02  0.18201601098E+02  0.51100000000E-03 0. -1.
        -11    1    3    3    0    0  0.53301689021E+00 -0.11362314573E+01  0.15263848409E+01  0.19761021921E+01  0.51100000000E-03 0.  1.
        -12    1    3    3    0    0 -0.17892942703E+02 -0.72089259128E+01 -0.19752523884E+02  0.27609567385E+02  0.00000000000E+00 0.  1.
</event>
<event>
 7    1  0.2598019E-009  0.4778726E+02  0.7816164E-02  0.1312668E+00
        -11   -1    0    0    0    0  0.00000000000E+00  0.00000000000E+00  0.45593999997E+02  0.45594000000E+02  0.51100000000E-03 0.  1.
         11   -1    0    0    0    0 -0.00000000000E+00 -0.00000000000E+00 -0.45593999997E+02  0.45594000000E+02  0.51100000000E-03 0. -1.
    9900012    2    1    2    0    0 -0.25576663582E+01  0.35260085137E+02 -0.25175555138E+02  0.47787264550E+02  0.19999970391E+02 0.  0.
        -12    1    1    2    0    0  0.25576663582E+01 -0.35260085137E+02  0.25175555138E+02  0.43400735450E+02  0.00000000000E+00 0.  1.
         11    1    3    3    0    0 -0.31310285836E+01  0.51155317732E+00 -0.64699903683E+01  0.72059560276E+01  0.51100000000E-03 0.  1.
        -11    1    3    3    0    0  0.35826004443E+01  0.23052278065E+02 -0.15749509136E+02  0.28147639123E+02  0.51100000000E-03 0. -1.
        -12    1    3    3    0    0 -0.30092382189E+01  0.11696253895E+02 -0.29560556339E+01  0.12433669400E+02  0.00000000000E+00 0.  1.
</event>
<event>
 7    1  0.2598019E-009  0.4778727E+02  0.7816164E-02  0.1312668E+00
        -11   -1    0    0    0    0  0.00000000000E+00  0.00000000000E+00  0.45593999997E+02  0.45594000000E+02  0.51100000000E-03 0.  1.
         11   -1    0    0    0    0 -0.00000000000E+00 -0.00000000000E+00 -0.45593999997E+02  0.45594000000E+02  0.51100000000E-03 0. -1.
    9900012    2    1    2    0    0 -0.13811454228E+01  0.33006957099E+02 -0.28147053698E+02  0.47787269459E+02  0.19999992771E+02 0.  0.
        -12    1    1    2    0    0  0.13811454228E+01 -0.33006957099E+02  0.28147053698E+02  0.43400730541E+02  0.00000000000E+00 0.  1.
         11    1    3    3    0    0  0.14664421015E+01  0.14096474404E+02 -0.73324607265E+01  0.15957005472E+02  0.51100000000E-03 0. -1.
        -11    1    3    3    0    0 -0.21531724489E+01  0.17462044054E+02 -0.23099662539E+02  0.29037106326E+02  0.51100000000E-03 0.  1.
        -12    1    3    3    0    0 -0.69441507534E+00  0.14484386405E+01  0.22850695668E+01  0.27931576607E+01  0.00000000000E+00 0.  1.
</event>
<event>
 7    1  0.2598019E-009  0.4778727E+02  0.7816164E-02  0.1312668E+00
        -11   -1    0    0    0    0  0.00000000000E+00  0.00000000000E+00  0.45593999997E+02  0.45594000000E+02  0.51100000000E-03 0. -1.
         11   -1    0    0    0    0 -0.00000000000E+00 -0.00000000000E+00 -0.45593999997E+02  0.45594000000E+02  0.51100000000E-03 0.  1.
    9900012    2    1    2    0    0 -0.33627106774E+02  0.26511146805E+02  0.70710582665E+01  0.47787273279E+02  0.20000010189E+02 0.  0.
        -12    1    1    2    0    0  0.33627106774E+02 -0.26511146805E+02 -0.70710582665E+01  0.43400726721E+02  0.00000000000E+00 0.  1.
         11    1    3    3    0    0 -0.16294955117E+02  0.17600093702E+02  0.11525072685E+02  0.26610452105E+02  0.51100000000E-03 0. -1.
        -11    1    3    3    0    0 -0.95631443363E+01  0.14530940236E+01 -0.37838195503E+01  0.10386650205E+02  0.51100000000E-03 0.  1.
         12    1    3    3    0    0 -0.77690073203E+01  0.74579590797E+01 -0.67019486818E+00  0.10790170969E+02  0.00000000000E+00 0. -1.
</event>
<event>
 7    1  0.2598019E-009  0.4778727E+02  0.7816164E-02  0.1312668E+00
        -11   -1    0    0    0    0  0.00000000000E+00  0.00000000000E+00  0.45593999997E+02  0.45594000000E+02  0.51100000000E-03 0. -1.
         11   -1    0    0    0    0 -0.00000000000E+00 -0.00000000000E+00 -0.45593999997E+02  0.45594000000E+02  0.51100000000E-03 0.  1.
    9900012    2    1    2    0    0  0.19611619606E+02  0.21102361971E+02  0.32460713059E+02  0.47787271934E+02  0.20000004057E+02 0.  0.
        -12    1    1    2    0    0 -0.19611619606E+02 -0.21102361971E+02 -0.32460713059E+02  0.43400728066E+02  0.00000000000E+00 0.  1.
         11    1    3    3    0    0 -0.20044932951E+01  0.78831159833E+01  0.95048719764E+01  0.12510159972E+02  0.51100000000E-03 0. -1.
        -11    1    3    3    0    0  0.85169066301E+00  0.11950996302E+01 -0.66113484225E+00  0.16095774763E+01  0.51100000000E-03 0.  1.
         12    1    3    3    0    0  0.20764422238E+02  0.12024146357E+02  0.23616975925E+02  0.33667534486E+02  0.00000000000E+00 0. -1.
</event>
<event>
 7    1  0.2598019E-009  0.4778728E+02  0.7816164E-02  0.1312668E+00
        -11   -1    0    0    0    0  0.00000000000E+00  0.00000000000E+00  0.45593999997E+02  0.45594000000E+02  0.51100000000E-03 0.  1.
         11   -1    0    0    0    0 -0.00000000000E+00 -0.00000000000E+00 -0.45593999997E+02  0.45594000000E+02  0.51100000000E-03 0. -1.
    9900012    2    1    2    0    0  0.31117329164E+02 -0.21120666434E+02 -0.21662228474E+02  0.47787275728E+02  0.20000021353E+02 0.  0.
        -12    1    1    2    0    0 -0.31117329164E+02  0.21120666434E+02  0.21662228474E+02  0.43400724272E+02  0.00000000000E+00 0.  1.
         11    1    3    3    0    0  0.83509085532E+01 -0.67523113377E+01 -0.12413141732E+02  0.16413941330E+02  0.51100000000E-03 0. -1.
        -11    1    3    3    0    0  0.52079376573E+01 -0.58852228088E+01  0.29243859245E+01  0.83851353864E+01  0.51100000000E-03 0.  1.
        -12    1    3    3    0    0  0.17558482953E+02 -0.84831322871E+01 -0.12173472666E+02  0.22988199011E+02  0.00000000000E+00 0.  1.
</event>
<event>
 7    1  0.2598019E-009  0.4778727E+02  0.7816164E-02  0.1312668E+00
        -11   -1    0    0    0    0  0.00000000000E+00  0.00000000000E+00  0.45593999997E+02  0.45594000000E+02  0.51100000000E-03 0.  1.
         11   -1    0    0    0    0 -0.00000000000E+00 -0.00000000000E+00 -0.45593999997E+02  0.45594000000E+02  0.51100000000E-03 0. -1.
    9900012    2    1    2    0    0 -0.24530095113E+00  0.19866862328E+02 -0.38585889121E+02  0.47787271543E+02  0.20000002274E+02 0.  0.
        -12    1    1    2    0    0  0.24530095113E+00 -0.19866862328E+02  0.38585889121E+02  0.43400728457E+02  0.00000000000E+00 0.  1.
         11    1    3    3    0    0 -0.47950080113E+01  0.77224944729E+01 -0.27096443397E+02  0.28580522524E+02  0.51100000000E-03 0. -1.
        -11    1    3    3    0    0  0.39248557644E+01  0.19158340491E+01 -0.87786749689E+00  0.44548360776E+01  0.51100000000E-03 0.  1.
         12    1    3    3    0    0  0.62485129578E+00  0.10228533806E+02 -0.10611578227E+02  0.14751912941E+02  0.00000000000E+00 0. -1.
</event>
<event>
 7    1  0.2598019E-009  0.4778727E+02  0.7816164E-02  0.1312668E+00
        -11   -1    0    0    0    0  0.00000000000E+00  0.00000000000E+00  0.45593999997E+02  0.45594000000E+02  0.51100000000E-03 0.  1.
         11   -1    0    0    0    0 -0.00000000000E+00 -0.00000000000E+00 -0.45593999997E+02  0.45594000000E+02  0.51100000000E-03 0. -1.
    9900012    2    1    2    0    0  0.23848856967E+02  0.44862609354E+01 -0.35982338823E+02  0.47787271631E+02  0.20000002674E+02 0.  0.
        -12    1    1    2    0    0 -0.23848856967E+02 -0.44862609354E+01  0.35982338823E+02  0.43400728369E+02  0.00000000000E+00 0.  1.
         11    1    3    3    0    0  0.30794710264E+01  0.29035224026E+01 -0.48824303637E+01  0.64615563654E+01  0.51100000000E-03 0.  1.
        -11    1    3    3    0    0  0.90287713391E+01  0.94545926355E+01 -0.15363081650E+02  0.20172563343E+02  0.51100000000E-03 0. -1.
        -12    1    3    3    0    0  0.11740614602E+02 -0.78718541027E+01 -0.15736826809E+02  0.21153151923E+02  0.00000000000E+00 0.  1.
</event>
<event>
 7    1  0.2762489E-009  0.4778727E+02  0.7816164E-02  0.1312668E+00
        -11   -1    0    0    0    0  0.00000000000E+00  0.00000000000E+00  0.45593999997E+02  0.45594000000E+02  0.51100000000E-03 0. -1.
         11   -1    0    0    0    0 -0.00000000000E+00 -0.00000000000E+00 -0.45593999997E+02  0.45594000000E+02  0.51100000000E-03 0.  1.
    9900012    2    1    2    0    0 -0.35355133073E+02  0.21175356289E+02 -0.13610357278E+02  0.47787274501E+02  0.20000015760E+02 0.  0.
        -12    1    1    2    0    0  0.35355133073E+02 -0.21175356289E+02  0.13610357278E+02  0.43400725499E+02  0.00000000000E+00 0.  1.
         11    1    3    3    0    0 -0.17450249298E+02  0.45651542357E+01 -0.11426533453E+02  0.21352224726E+02  0.51100000000E-03 0. -1.
        -11    1    3    3    0    0 -0.14181064737E+01  0.19902359050E+01  0.29287095747E+01  0.38143682259E+01  0.51100000000E-03 0.  1.
         12    1    3    3    0    0 -0.16486777302E+02  0.14619966148E+02 -0.51125333997E+01  0.22620681549E+02  0.00000000000E+00 0. -1.
</event>
<event>
 7    1  0.2598019E-009  0.4778727E+02  0.7816164E-02  0.1312668E+00
        -11   -1    0    0    0    0  0.00000000000E+00  0.00000000000E+00  0.45593999997E+02  0.45594000000E+02  0.51100000000E-03 0.  1.
         11   -1    0    0    0    0 -0.00000000000E+00 -0.00000000000E+00 -0.45593999997E+02  0.45594000000E+02  0.51100000000E-03 0. -1.
    9900012    2    1    2    0    0 -0.37478966775E+02 -0.44106043144E+01 -0.21435875695E+02  0.47787272497E+02  0.20000006623E+02 0.  0.
        -12    1    1    2    0    0  0.37478966775E+02  0.44106043144E+01  0.21435875695E+02  0.43400727503E+02  0.00000000000E+00 0.  1.
         11    1    3    3    0    0 -0.33907484417E+02 -0.89316018471E+01 -0.18581609327E+02  0.39683336761E+02  0.51100000000E-03 0. -1.
        -11    1    3    3    0    0 -0.99829909371E+00  0.34963725031E+01  0.59057465981E+00  0.36837481525E+01  0.51100000000E-03 0.  1.
        -12    1    3    3    0    0 -0.25731832644E+01  0.10246250297E+01 -0.34448410278E+01  0.44201875832E+01  0.00000000000E+00 0.  1.
</event>
<event>
 7    1  0.2598019E-009  0.4778727E+02  0.7816164E-02  0.1312668E+00
        -11   -1    0    0    0    0  0.00000000000E+00  0.00000000000E+00  0.45593999997E+02  0.45594000000E+02  0.51100000000E-03 0. -1.
         11   -1    0    0    0    0 -0.00000000000E+00 -0.00000000000E+00 -0.45593999997E+02  0.45594000000E+02  0.51100000000E-03 0.  1.
    9900012    2    1    2    0    0 -0.38460051339E+02 -0.20059859499E+02 -0.14317032361E+01  0.47787270902E+02  0.19999999350E+02 0.  0.
        -12    1    1    2    0    0  0.38460051339E+02  0.20059859499E+02  0.14317032361E+01  0.43400729098E+02  0.00000000000E+00 0.  1.
         11    1    3    3    0    0 -0.25081075176E+02 -0.78413948588E+01  0.58739520741E+01  0.26926773266E+02  0.51100000000E-03 0. -1.
        -11    1    3    3    0    0 -0.14207209897E+02 -0.10694828746E+02 -0.69350404904E+01  0.19087141270E+02  0.51100000000E-03 0.  1.
         12    1    3    3    0    0  0.82823373455E+00 -0.15236358939E+01 -0.37061481983E+00  0.17733563660E+01  0.00000000000E+00 0. -1.
</event>
<event>
 7    1  0.2598019E-009  0.4778727E+02  0.7816164E-02  0.1312668E+00
        -11   -1    0    0    0    0  0.00000000000E+00  0.00000000000E+00  0.45593999997E+02  0.45594000000E+02  0.51100000000E-03 0.  1.
         11   -1    0    0    0    0 -0.00000000000E+00 -0.00000000000E+00 -0.45593999997E+02  0.45594000000E+02  0.51100000000E-03 0. -1.
    9900012    2    1    2    0    0 -0.11235545696E+02 -0.11445354193E+01 -0.41905558255E+02  0.47787271192E+02  0.20000000673E+02 0.  0.
        -12    1    1    2    0    0  0.11235545696E+02  0.11445354193E+01  0.41905558255E+02  0.43400728808E+02  0.00000000000E+00 0.  1.
         11    1    3    3    0    0 -0.88159373723E+01 -0.93149645609E+01 -0.19506068087E+02  0.23344721223E+02  0.51100000000E-03 0.  1.
        -11    1    3    3    0    0 -0.36030444262E+01  0.51923275697E+01 -0.17315790956E+02  0.18433090121E+02  0.51100000000E-03 0. -1.
        -12    1    3    3    0    0  0.11834361026E+01  0.29781015720E+01 -0.50836992121E+01  0.60094598477E+01  0.00000000000E+00 0.  1.
</event>
<event>
 7    1  0.2598019E-009  0.4778727E+02  0.7816164E-02  0.1312668E+00
        -11   -1    0    0    0    0  0.00000000000E+00  0.00000000000E+00  0.45593999997E+02  0.45594000000E+02  0.51100000000E-03 0. -1.
         11   -1    0    0    0    0 -0.00000000000E+00 -0.00000000000E+00 -0.45593999997E+02  0.45594000000E+02  0.51100000000E-03 0.  1.
    9900012    2    1    2    0    0 -0.21446471607E+02  0.37637696118E+02 -0.26600674222E+01  0.47787271064E+02  0.20000000091E+02 0.  0.
        -12    1    1    2    0    0  0.21446471607E+02 -0.37637696118E+02  0.26600674222E+01  0.43400728936E+02  0.00000000000E+00 0.  1.
         11    1    3    3    0    0 -0.20059936478E+02  0.29634697397E+02  0.18037638595E+01  0.35831130399E+02  0.51100000000E-03 0. -1.
        -11    1    3    3    0    0 -0.24571853206E+01 -0.47978571090E-01 -0.26884582265E+01  0.36425086877E+01  0.51100000000E-03 0.  1.
         12    1    3    3    0    0  0.10706501913E+01  0.80509772916E+01 -0.17753730552E+01  0.83136319781E+01  0.00000000000E+00 0. -1.
</event>
<event>
 7    1  0.2598019E-009  0.4778726E+02  0.7816164E-02  0.1312668E+00
        -11   -1    0    0    0    0  0.00000000000E+00  0.00000000000E+00  0.45593999997E+02  0.45594000000E+02  0.51100000000E-03 0.  1.
         11   -1    0    0    0    0 -0.00000000000E+00 -0.00000000000E+00 -0.45593999997E+02  0.45594000000E+02  0.51100000000E-03 0. -1.
    9900012    2    1    2    0    0 -0.23261621535E+02 -0.34869132955E+02 -0.11254525346E+02  0.47787264865E+02  0.19999971826E+02 0.  0.
        -12    1    1    2    0    0  0.23261621535E+02  0.34869132955E+02  0.11254525346E+02  0.43400735135E+02  0.00000000000E+00 0.  1.
         11    1    3    3    0    0 -0.88915991176E+01 -0.79395830919E+01 -0.31349924998E+01  0.12325814082E+02  0.51100000000E-03 0. -1.
        -11    1    3    3    0    0 -0.92930454363E+01 -0.51892595185E+01  0.21965228172E+01  0.10868018245E+02  0.51100000000E-03 0.  1.
        -12    1    3    3    0    0 -0.50769769806E+01 -0.21740290345E+02 -0.10316055664E+02  0.24593432538E+02  0.00000000000E+00 0.  1.
</event>
<event>
 7    1  0.2598019E-009  0.4778727E+02  0.7816164E-02  0.1312668E+00
        -11   -1    0    0    0    0  0.00000000000E+00  0.00000000000E+00  0.45593999997E+02  0.45594000000E+02  0.51100000000E-03 0.  1.
         11   -1    0    0    0    0 -0.00000000000E+00 -0.00000000000E+00 -0.45593999997E+02  0.45594000000E+02  0.51100000000E-03 0. -1.
    9900012    2    1    2    0    0  0.37510650985E+01  0.40990866491E+02 -0.13758704568E+02  0.47787267559E+02  0.19999984107E+02 0.  0.
        -12    1    1    2    0    0 -0.37510650985E+01 -0.40990866491E+02  0.13758704568E+02  0.43400732441E+02  0.00000000000E+00 0.  1.
         11    1    3    3    0    0 -0.61387934524E+01  0.14343656550E+02 -0.22824660217E+01  0.15768161582E+02  0.51100000000E-03 0. -1.
        -11    1    3    3    0    0  0.10228882261E+02  0.20145114417E+02 -0.56665962344E+01  0.23293045750E+02  0.51100000000E-03 0.  1.
        -12    1    3    3    0    0 -0.33902370986E+00  0.65020955237E+01 -0.58096423118E+01  0.87260602259E+01  0.00000000000E+00 0.  1.
</event>
<event>
 7    1  0.2598019E-009  0.4778727E+02  0.7816164E-02  0.1312668E+00
        -11   -1    0    0    0    0  0.00000000000E+00  0.00000000000E+00  0.45593999997E+02  0.45594000000E+02  0.51100000000E-03 0.  1.
         11   -1    0    0    0    0 -0.00000000000E+00 -0.00000000000E+00 -0.45593999997E+02  0.45594000000E+02  0.51100000000E-03 0. -1.
    9900012    2    1    2    0    0  0.96855715267E+01  0.69245282439E+01 -0.41735641889E+02  0.47787271998E+02  0.20000004349E+02 0.  0.
        -12    1    1    2    0    0 -0.96855715267E+01 -0.69245282439E+01  0.41735641889E+02  0.43400728002E+02  0.00000000000E+00 0.  1.
         11    1    3    3    0    0 -0.19008471386E+01  0.17094687790E+01 -0.23475445163E+02  0.23614233615E+02  0.51100000000E-03 0. -1.
        -11    1    3    3    0    0  0.74864086668E+01  0.71871235223E+01 -0.85369810396E+01  0.13438046911E+02  0.51100000000E-03 0.  1.
         12    1    3    3    0    0  0.41000099985E+01 -0.19720640573E+01 -0.97232156861E+01  0.10734991472E+02  0.00000000000E+00 0. -1.
</event>
<event>
 7    1  0.2598019E-009  0.4778727E+02  0.7816164E-02  0.1312668E+00
        -11   -1    0    0    0    0  0.00000000000E+00  0.00000000000E+00  0.45593999997E+02  0.45594000000E+02  0.51100000000E-03 0.  1.
         11   -1    0    0    0    0 -0.00000000000E+00 -0.00000000000E+00 -0.45593999997E+02  0.45594000000E+02  0.51100000000E-03 0. -1.
    9900012    2    1    2    0    0  0.20332372438E+02  0.17548371504E+02 -0.34092118252E+02  0.47787271454E+02  0.20000001870E+02 0.  0.
        -12    1    1    2    0    0 -0.20332372438E+02 -0.17548371504E+02  0.34092118252E+02  0.43400728546E+02  0.00000000000E+00 0.  1.
         11    1    3    3    0    0  0.10966562166E+02  0.12723878288E+02 -0.22417147553E+02  0.28012337801E+02  0.51100000000E-03 0. -1.
        -11    1    3    3    0    0  0.11303077052E+02  0.75538477182E+00 -0.94322007357E+01  0.14740982599E+02  0.51100000000E-03 0.  1.
        -12    1    3    3    0    0 -0.19372667807E+01  0.40691084440E+01 -0.22427699634E+01  0.50339510543E+01  0.00000000000E+00 0.  1.
</event>
<event>
 7    1  0.2598019E-009  0.4778727E+02  0.7816164E-02  0.1312668E+00
        -11   -1    0    0    0    0  0.00000000000E+00  0.00000000000E+00  0.45593999997E+02  0.45594000000E+02  0.51100000000E-03 0.  1.
         11   -1    0    0    0    0 -0.00000000000E+00 -0.00000000000E+00 -0.45593999997E+02  0.45594000000E+02  0.51100000000E-03 0. -1.
    9900012    2    1    2    0    0  0.97384671655E+00  0.42695577434E+02 -0.77306230132E+01  0.47787271411E+02  0.20000001672E+02 0.  0.
        -12    1    1    2    0    0 -0.97384671655E+00 -0.42695577434E+02  0.77306230132E+01  0.43400728589E+02  0.00000000000E+00 0.  1.
         11    1    3    3    0    0  0.34950734309E+01  0.15638142931E+02 -0.31497249920E+01  0.16330579304E+02  0.51100000000E-03 0. -1.
        -11    1    3    3    0    0 -0.45173283855E+01  0.15355442823E+02 -0.94930416584E+01  0.18609506179E+02  0.51100000000E-03 0.  1.
        -12    1    3    3    0    0  0.19961016711E+01  0.11701991679E+02  0.49121436372E+01  0.12847185927E+02  0.00000000000E+00 0.  1.
</event>
<event>
 7    1  0.2598019E-009  0.4778727E+02  0.7816164E-02  0.1312668E+00
        -11   -1    0    0    0    0  0.00000000000E+00  0.00000000000E+00  0.45593999997E+02  0.45594000000E+02  0.51100000000E-03 0. -1.
         11   -1    0    0    0    0 -0.00000000000E+00 -0.00000000000E+00 -0.45593999997E+02  0.45594000000E+02  0.51100000000E-03 0.  1.
    9900012    2    1    2    0    0  0.25692926495E+02  0.34413612048E+02  0.62610199845E+01  0.47787268010E+02  0.19999986163E+02 0.  0.
        -12    1    1    2    0    0 -0.25692926495E+02 -0.34413612048E+02 -0.62610199845E+01  0.43400731990E+02  0.00000000000E+00 0.  1.
         11    1    3    3    0    0  0.11005327217E+01  0.11738831838E+02 -0.20666961720E+01  0.11970070114E+02  0.51100000000E-03 0. -1.
        -11    1    3    3    0    0  0.27718670146E+01 -0.17760937493E+00 -0.86679152505E+00  0.29096597131E+01  0.51100000000E-03 0.  1.
         12    1    3    3    0    0  0.21820526758E+02  0.22852389585E+02  0.91945076816E+01  0.32907538183E+02  0.00000000000E+00 0. -1.
</event>
<event>
 7    1  0.2598019E-009  0.4778727E+02  0.7816164E-02  0.1312668E+00
        -11   -1    0    0    0    0  0.00000000000E+00  0.00000000000E+00  0.45593999997E+02  0.45594000000E+02  0.51100000000E-03 0.  1.
         11   -1    0    0    0    0 -0.00000000000E+00 -0.00000000000E+00 -0.45593999997E+02  0.45594000000E+02  0.51100000000E-03 0. -1.
    9900012    2    1    2    0    0 -0.37963689635E+01  0.41182247226E+01 -0.43037788500E+02  0.47787269233E+02  0.19999991741E+02 0.  0.
        -12    1    1    2    0    0  0.37963689635E+01 -0.41182247226E+01  0.43037788500E+02  0.43400730767E+02  0.00000000000E+00 0.  1.
         11    1    3    3    0    0  0.50287507802E+01  0.12683228758E+01 -0.23258413393E+02  0.23829619618E+02  0.51100000000E-03 0. -1.
        -11    1    3    3    0    0 -0.57108693651E+01 -0.33148546072E+01 -0.92454380013E+01  0.11361356172E+02  0.51100000000E-03 0.  1.
        -12    1    3    3    0    0 -0.31142503786E+01  0.61647564540E+01 -0.10533937105E+02  0.12596293442E+02  0.00000000000E+00 0.  1.
</event>
<event>
 7    1  0.2598019E-009  0.4778728E+02  0.7816164E-02  0.1312668E+00
        -11   -1    0    0    0    0  0.00000000000E+00  0.00000000000E+00  0.45593999997E+02  0.45594000000E+02  0.51100000000E-03 0.  1.
         11   -1    0    0    0    0 -0.00000000000E+00 -0.00000000000E+00 -0.45593999997E+02  0.45594000000E+02  0.51100000000E-03 0. -1.
    9900012    2    1    2    0    0  0.16503535472E+02  0.21684466924E+02 -0.33779284554E+02  0.47787275884E+02  0.20000022065E+02 0.  0.
        -12    1    1    2    0    0 -0.16503535472E+02 -0.21684466924E+02  0.33779284554E+02  0.43400724116E+02  0.00000000000E+00 0.  1.
         11    1    3    3    0    0  0.11327991028E+02  0.10906464377E+02 -0.29562231559E+02  0.33484322913E+02  0.51100000000E-03 0. -1.
        -11    1    3    3    0    0  0.37882835590E+01  0.17965507636E+01  0.20200141656E+00  0.41975578380E+01  0.51100000000E-03 0.  1.
         12    1    3    3    0    0  0.13872608851E+01  0.89814517834E+01 -0.44190544111E+01  0.10105395133E+02  0.00000000000E+00 0. -1.
</event>
<event>
 7    1  0.2598019E-009  0.4778727E+02  0.7816164E-02  0.1312668E+00
        -11   -1    0    0    0    0  0.00000000000E+00  0.00000000000E+00  0.45593999997E+02  0.45594000000E+02  0.51100000000E-03 0.  1.
         11   -1    0    0    0    0 -0.00000000000E+00 -0.00000000000E+00 -0.45593999997E+02  0.45594000000E+02  0.51100000000E-03 0. -1.
    9900012    2    1    2    0    0 -0.11542320442E+02 -0.38459459644E+02 -0.16470216333E+02  0.47787271626E+02  0.20000002653E+02 0.  0.
        -12    1    1    2    0    0  0.11542320442E+02  0.38459459644E+02  0.16470216333E+02  0.43400728374E+02  0.00000000000E+00 0.  1.
         11    1    3    3    0    0 -0.72220010890E+00 -0.32650711436E+01  0.47335218893E+00  0.33773251436E+01  0.51100000000E-03 0. -1.
        -11    1    3    3    0    0 -0.15685620723E+02 -0.30330933760E+02 -0.14668757797E+02  0.37164185660E+02  0.51100000000E-03 0.  1.
        -12    1    3    3    0    0  0.48655003902E+01 -0.48634547409E+01 -0.22748107251E+01  0.72457608226E+01  0.00000000000E+00 0.  1.
</event>
<event>
 7    1  0.2598019E-009  0.4778727E+02  0.7816164E-02  0.1312668E+00
        -11   -1    0    0    0    0  0.00000000000E+00  0.00000000000E+00  0.45593999997E+02  0.45594000000E+02  0.51100000000E-03 0. -1.
         11   -1    0    0    0    0 -0.00000000000E+00 -0.00000000000E+00 -0.45593999997E+02  0.45594000000E+02  0.51100000000E-03 0.  1.
    9900012    2    1    2    0    0 -0.31461607493E+02  0.24238476281E+02  0.17501046117E+02  0.47787273121E+02  0.20000009467E+02 0.  0.
        -12    1    1    2    0    0  0.31461607493E+02 -0.24238476281E+02 -0.17501046117E+02  0.43400726879E+02  0.00000000000E+00 0.  1.
         11    1    3    3    0    0 -0.31035558858E+01  0.27823924504E+01  0.47026747713E+00  0.41946297388E+01  0.51100000000E-03 0. -1.
        -11    1    3    3    0    0 -0.11883212148E+01 -0.32073040207E+01  0.11414972008E+01  0.36058178699E+01  0.51100000000E-03 0.  1.
        -12    1    3    3    0    0 -0.27169730392E+02  0.24663387851E+02  0.15889281439E+02  0.39986825512E+02  0.00000000000E+00 0.  1.
</event>
<event>
 7    1  0.2598019E-009  0.4778727E+02  0.7816164E-02  0.1312668E+00
        -11   -1    0    0    0    0  0.00000000000E+00  0.00000000000E+00  0.45593999997E+02  0.45594000000E+02  0.51100000000E-03 0.  1.
         11   -1    0    0    0    0 -0.00000000000E+00 -0.00000000000E+00 -0.45593999997E+02  0.45594000000E+02  0.51100000000E-03 0. -1.
    9900012    2    1    2    0    0 -0.38280942778E+02  0.11508736591E+02 -0.16903908325E+02  0.47787265968E+02  0.19999976854E+02 0.  0.
        -12    1    1    2    0    0  0.38280942778E+02 -0.11508736591E+02  0.16903908325E+02  0.43400734032E+02  0.00000000000E+00 0.  1.
         11    1    3    3    0    0 -0.25063447831E+02  0.12620815458E+02 -0.74772614693E+01  0.29040847772E+02  0.51100000000E-03 0. -1.
        -11    1    3    3    0    0 -0.38094984753E+01 -0.26890430529E+01 -0.77737776575E+01  0.90650345009E+01  0.51100000000E-03 0.  1.
        -12    1    3    3    0    0 -0.94079964718E+01  0.15769641860E+01 -0.16528691977E+01  0.96813836946E+01  0.00000000000E+00 0.  1.
</event>
<event>
 7    1  0.2598019E-009  0.4778727E+02  0.7816164E-02  0.1312668E+00
        -11   -1    0    0    0    0  0.00000000000E+00  0.00000000000E+00  0.45593999997E+02  0.45594000000E+02  0.51100000000E-03 0.  1.
         11   -1    0    0    0    0 -0.00000000000E+00 -0.00000000000E+00 -0.45593999997E+02  0.45594000000E+02  0.51100000000E-03 0. -1.
    9900012    2    1    2    0    0  0.17682507097E+02 -0.47030814539E+00 -0.39632446611E+02  0.47787273377E+02  0.20000010636E+02 0.  0.
        -12    1    1    2    0    0 -0.17682507097E+02  0.47030814539E+00  0.39632446611E+02  0.43400726623E+02  0.00000000000E+00 0.  1.
         11    1    3    3    0    0  0.47813533555E+01 -0.38150110898E+01 -0.22765765221E+02  0.23573199101E+02  0.51100000000E-03 0. -1.
        -11    1    3    3    0    0  0.14644627928E+02  0.14442041115E+01 -0.15121614748E+02  0.21100096813E+02  0.51100000000E-03 0.  1.
        -12    1    3    3    0    0 -0.17434741863E+01  0.19004988330E+01 -0.17450666430E+01  0.31139774631E+01  0.00000000000E+00 0.  1.
</event>
<event>
 7    1  0.2598019E-009  0.4778727E+02  0.7816164E-02  0.1312668E+00
        -11   -1    0    0    0    0  0.00000000000E+00  0.00000000000E+00  0.45593999997E+02  0.45594000000E+02  0.51100000000E-03 0. -1.
         11   -1    0    0    0    0 -0.00000000000E+00 -0.00000000000E+00 -0.45593999997E+02  0.45594000000E+02  0.51100000000E-03 0.  1.
    9900012    2    1    2    0    0  0.42141493801E+02 -0.10358213905E+02  0.65210939052E+00  0.47787270262E+02  0.19999996434E+02 0.  0.
        -12    1    1    2    0    0 -0.42141493801E+02  0.10358213905E+02 -0.65210939052E+00  0.43400729738E+02  0.00000000000E+00 0.  1.
         11    1    3    3    0    0  0.24417757772E+02 -0.13201207515E+01  0.10573005574E+01  0.24476263974E+02  0.51100000000E-03 0. -1.
        -11    1    3    3    0    0  0.84022107113E+01 -0.67777625465E+01 -0.58534466257E+01  0.12279985653E+02  0.51100000000E-03 0.  1.
        -12    1    3    3    0    0  0.93215253182E+01 -0.22603306067E+01  0.54482554588E+01  0.11031020635E+02  0.00000000000E+00 0.  1.
</event>
<event>
 7    1  0.2598019E-009  0.4778727E+02  0.7816164E-02  0.1312668E+00
        -11   -1    0    0    0    0  0.00000000000E+00  0.00000000000E+00  0.45593999997E+02  0.45594000000E+02  0.51100000000E-03 0. -1.
         11   -1    0    0    0    0 -0.00000000000E+00 -0.00000000000E+00 -0.45593999997E+02  0.45594000000E+02  0.51100000000E-03 0.  1.
    9900012    2    1    2    0    0 -0.38267091963E+02  0.13427560590E+02  0.15458136934E+02  0.47787266041E+02  0.19999977186E+02 0.  0.
        -12    1    1    2    0    0  0.38267091963E+02 -0.13427560590E+02 -0.15458136934E+02  0.43400733959E+02  0.00000000000E+00 0.  1.
         11    1    3    3    0    0 -0.10703008155E+02  0.93809793507E+01  0.21770527448E+01  0.14397802473E+02  0.51100000000E-03 0. -1.
        -11    1    3    3    0    0 -0.11999482935E+02  0.12663820501E+01  0.12772026874E+02  0.17570315448E+02  0.51100000000E-03 0.  1.
        -12    1    3    3    0    0 -0.15564600873E+02  0.27801991896E+01  0.50905731486E+00  0.15819148120E+02  0.00000000000E+00 0.  1.
</event>
<event>
 7    1  0.2598019E-009  0.4778727E+02  0.7816164E-02  0.1312668E+00
        -11   -1    0    0    0    0  0.00000000000E+00  0.00000000000E+00  0.45593999997E+02  0.45594000000E+02  0.51100000000E-03 0.  1.
         11   -1    0    0    0    0 -0.00000000000E+00 -0.00000000000E+00 -0.45593999997E+02  0.45594000000E+02  0.51100000000E-03 0. -1.
    9900012    2    1    2    0    0 -0.22836328009E+02 -0.14470540257E+02 -0.33951862740E+02  0.47787269640E+02  0.19999993596E+02 0.  0.
        -12    1    1    2    0    0  0.22836328009E+02  0.14470540257E+02  0.33951862740E+02  0.43400730360E+02  0.00000000000E+00 0.  1.
         11    1    3    3    0    0 -0.74449067176E+01 -0.33834065386E+01 -0.52474817733E+00  0.81944759899E+01  0.51100000000E-03 0. -1.
        -11    1    3    3    0    0 -0.18985875454E+01 -0.49540414524E+01 -0.40013243538E+01  0.66451304144E+01  0.51100000000E-03 0.  1.
         12    1    3    3    0    0 -0.13492833746E+02 -0.61330922664E+01 -0.29425790209E+02  0.32947663235E+02  0.00000000000E+00 0. -1.
</event>
<event>
 7    1  0.2598019E-009  0.4778728E+02  0.7816164E-02  0.1312668E+00
        -11   -1    0    0    0    0  0.00000000000E+00  0.00000000000E+00  0.45593999997E+02  0.45594000000E+02  0.51100000000E-03 0.  1.
         11   -1    0    0    0    0 -0.00000000000E+00 -0.00000000000E+00 -0.45593999997E+02  0.45594000000E+02  0.51100000000E-03 0. -1.
    9900012    2    1    2    0    0  0.37468872048E+02 -0.21835439551E+02 -0.17087556877E+01  0.47787278360E+02  0.20000033353E+02 0.  0.
        -12    1    1    2    0    0 -0.37468872048E+02  0.21835439551E+02  0.17087556877E+01  0.43400721640E+02  0.00000000000E+00 0.  1.
         11    1    3    3    0    0  0.24575177517E+02 -0.22442015235E+02 -0.42757007793E+01  0.33553912070E+02  0.51100000000E-03 0. -1.
        -11    1    3    3    0    0  0.21899883209E+01  0.47874712491E+00  0.27239205519E+01  0.35277458936E+01  0.51100000000E-03 0.  1.
         12    1    3    3    0    0  0.10703706210E+02  0.12782855931E+00 -0.15697546034E+00  0.10705620396E+02  0.00000000000E+00 0. -1.
</event>
<event>
 7    1  0.2598019E-009  0.4778728E+02  0.7816164E-02  0.1312668E+00
        -11   -1    0    0    0    0  0.00000000000E+00  0.00000000000E+00  0.45593999997E+02  0.45594000000E+02  0.51100000000E-03 0.  1.
         11   -1    0    0    0    0 -0.00000000000E+00 -0.00000000000E+00 -0.45593999997E+02  0.45594000000E+02  0.51100000000E-03 0. -1.
    9900012    2    1    2    0    0 -0.32585173333E+01  0.24585359269E+02 -0.35616921545E+02  0.47787275053E+02  0.20000018276E+02 0.  0.
        -12    1    1    2    0    0  0.32585173333E+01 -0.24585359269E+02  0.35616921545E+02  0.43400724947E+02  0.00000000000E+00 0.  1.
         11    1    3    3    0    0 -0.14076365538E+01  0.15621354172E+02 -0.28645591899E+02  0.32658507044E+02  0.51100000000E-03 0. -1.
        -11    1    3    3    0    0  0.15520701275E+01  0.29582752758E-02  0.16294504838E+01  0.22503421012E+01  0.51100000000E-03 0.  1.
        -12    1    3    3    0    0 -0.34029509070E+01  0.89610468218E+01 -0.86007801299E+01  0.12878425908E+02  0.00000000000E+00 0.  1.
</event>
<event>
 7    1  0.2598019E-009  0.4778727E+02  0.7816164E-02  0.1312668E+00
        -11   -1    0    0    0    0  0.00000000000E+00  0.00000000000E+00  0.45593999997E+02  0.45594000000E+02  0.51100000000E-03 0.  1.
         11   -1    0    0    0    0 -0.00000000000E+00 -0.00000000000E+00 -0.45593999997E+02  0.45594000000E+02  0.51100000000E-03 0. -1.
    9900012    2    1    2    0    0  0.69924216339E+01 -0.54495152568E+01 -0.42485669680E+02  0.47787270686E+02  0.19999998364E+02 0.  0.
        -12    1    1    2    0    0 -0.69924216339E+01  0.54495152568E+01  0.42485669680E+02  0.43400729314E+02  0.00000000000E+00 0.  1.
         11    1    3    3    0    0  0.42386945592E+01 -0.10815973342E+02 -0.38216334486E+02  0.39942959739E+02  0.51100000000E-03 0. -1.
        -11    1    3    3    0    0  0.31499139029E+01  0.42284708667E+01 -0.39768613463E+01  0.66043432599E+01  0.51100000000E-03 0.  1.
        -12    1    3    3    0    0 -0.39618682821E+00  0.11379872186E+01 -0.29247384778E+00  0.12399676867E+01  0.00000000000E+00 0.  1.
</event>
<event>
 7    1  0.2598019E-009  0.4778727E+02  0.7816164E-02  0.1312668E+00
        -11   -1    0    0    0    0  0.00000000000E+00  0.00000000000E+00  0.45593999997E+02  0.45594000000E+02  0.51100000000E-03 0. -1.
         11   -1    0    0    0    0 -0.00000000000E+00 -0.00000000000E+00 -0.45593999997E+02  0.45594000000E+02  0.51100000000E-03 0.  1.
    9900012    2    1    2    0    0 -0.22701092290E+02  0.34606570473E+02  0.13064020440E+02  0.47787274878E+02  0.20000017477E+02 0.  0.
        -12    1    1    2    0    0  0.22701092290E+02 -0.34606570473E+02 -0.13064020440E+02  0.43400725122E+02  0.00000000000E+00 0.  1.
         11    1    3    3    0    0 -0.16183723565E+02  0.12457373593E+02 -0.24583753229E+00  0.20424482897E+02  0.51100000000E-03 0. -1.
        -11    1    3    3    0    0 -0.28084061254E+01  0.13293790371E+02  0.44464767626E+01  0.14296263962E+02  0.51100000000E-03 0.  1.
         12    1    3    3    0    0 -0.37089626002E+01  0.88554065092E+01  0.88633812092E+01  0.13066528019E+02  0.00000000000E+00 0. -1.
</event>
<event>
 7    1  0.2598019E-009  0.4778727E+02  0.7816164E-02  0.1312668E+00
        -11   -1    0    0    0    0  0.00000000000E+00  0.00000000000E+00  0.45593999997E+02  0.45594000000E+02  0.51100000000E-03 0.  1.
         11   -1    0    0    0    0 -0.00000000000E+00 -0.00000000000E+00 -0.45593999997E+02  0.45594000000E+02  0.51100000000E-03 0. -1.
    9900012    2    1    2    0    0  0.11059194038E+02  0.41146595789E+02 -0.82628979908E+01  0.47787267276E+02  0.19999982817E+02 0.  0.
        -12    1    1    2    0    0 -0.11059194038E+02 -0.41146595789E+02  0.82628979908E+01  0.43400732724E+02  0.00000000000E+00 0.  1.
         11    1    3    3    0    0  0.12817686346E+02  0.27964594361E+02 -0.67519842333E+01  0.31494458439E+02  0.51100000000E-03 0. -1.
        -11    1    3    3    0    0 -0.51977459171E+01  0.74904715129E+01 -0.27615395288E+01  0.95262703580E+01  0.51100000000E-03 0.  1.
         12    1    3    3    0    0  0.34392536092E+01  0.56915299148E+01  0.12506257713E+01  0.67665384784E+01  0.00000000000E+00 0. -1.
</event>
<event>
 7    1  0.2598019E-009  0.4778727E+02  0.7816164E-02  0.1312668E+00
        -11   -1    0    0    0    0  0.00000000000E+00  0.00000000000E+00  0.45593999997E+02  0.45594000000E+02  0.51100000000E-03 0. -1.
         11   -1    0    0    0    0 -0.00000000000E+00 -0.00000000000E+00 -0.45593999997E+02  0.45594000000E+02  0.51100000000E-03 0.  1.
    9900012    2    1    2    0    0 -0.39098605579E+02  0.72473685158E+01  0.17389596960E+02  0.47787269694E+02  0.19999993843E+02 0.  0.
        -12    1    1    2    0    0  0.39098605579E+02 -0.72473685158E+01 -0.17389596960E+02  0.43400730306E+02  0.00000000000E+00 0.  1.
         11    1    3    3    0    0 -0.38241732849E+01 -0.31852333451E+01 -0.15216032298E+01  0.52043529305E+01  0.51100000000E-03 0.  1.
        -11    1    3    3    0    0 -0.23229529250E+02  0.10777601233E+02  0.95752050442E+01  0.27339573322E+02  0.51100000000E-03 0. -1.
         12    1    3    3    0    0 -0.12044903044E+02 -0.34499937204E+00  0.93359951459E+01  0.15243343441E+02  0.00000000000E+00 0. -1.
</event>
<event>
 7    1  0.2598019E-009  0.4778727E+02  0.7816164E-02  0.1312668E+00
        -11   -1    0    0    0    0  0.00000000000E+00  0.00000000000E+00  0.45593999997E+02  0.45594000000E+02  0.51100000000E-03 0.  1.
         11   -1    0    0    0    0 -0.00000000000E+00 -0.00000000000E+00 -0.45593999997E+02  0.45594000000E+02  0.51100000000E-03 0. -1.
    9900012    2    1    2    0    0  0.20109681474E+02  0.32303850004E+02 -0.20873070411E+02  0.47787273250E+02  0.20000010055E+02 0.  0.
        -12    1    1    2    0    0 -0.20109681474E+02 -0.32303850004E+02  0.20873070411E+02  0.43400726750E+02  0.00000000000E+00 0.  1.
         11    1    3    3    0    0 -0.19987663804E+01  0.98017038944E+01 -0.58778557037E+01  0.11602484829E+02  0.51100000000E-03 0. -1.
        -11    1    3    3    0    0  0.19205118295E+01  0.22921187536E+01  0.13415926355E+01  0.32775059311E+01  0.51100000000E-03 0.  1.
         12    1    3    3    0    0  0.20187936025E+02  0.20210027356E+02 -0.16336807342E+02  0.32907282489E+02  0.00000000000E+00 0. -1.
</event>
<event>
 7    1  0.2598019E-009  0.4778727E+02  0.7816164E-02  0.1312668E+00
        -11   -1    0    0    0    0  0.00000000000E+00  0.00000000000E+00  0.45593999997E+02  0.45594000000E+02  0.51100000000E-03 0.  1.
         11   -1    0    0    0    0 -0.00000000000E+00 -0.00000000000E+00 -0.45593999997E+02  0.45594000000E+02  0.51100000000E-03 0. -1.
    9900012    2    1    2    0    0 -0.26221218263E+02 -0.32581445195E+02 -0.11598284923E+02  0.47787273378E+02  0.20000010638E+02 0.  0.
        -12    1    1    2    0    0  0.26221218263E+02  0.32581445195E+02  0.11598284923E+02  0.43400726622E+02  0.00000000000E+00 0.  1.
         11    1    3    3    0    0 -0.18970747884E+02 -0.26457806445E+02 -0.31576493568E+01  0.32708952091E+02  0.51100000000E-03 0. -1.
        -11    1    3    3    0    0 -0.89623819232E+01 -0.56807239797E+01 -0.64583822746E+01  0.12421981184E+02  0.51100000000E-03 0.  1.
         12    1    3    3    0    0  0.17119115441E+01 -0.44291476962E+00 -0.19822532914E+01  0.26563401023E+01  0.00000000000E+00 0. -1.
</event>
<event>
 7    1  0.2598019E-009  0.4778727E+02  0.7816164E-02  0.1312668E+00
        -11   -1    0    0    0    0  0.00000000000E+00  0.00000000000E+00  0.45593999997E+02  0.45594000000E+02  0.51100000000E-03 0.  1.
         11   -1    0    0    0    0 -0.00000000000E+00 -0.00000000000E+00 -0.45593999997E+02  0.45594000000E+02  0.51100000000E-03 0. -1.
    9900012    2    1    2    0    0 -0.21597351199E+02  0.19846098742E+02 -0.31989222782E+02  0.47787267422E+02  0.19999983485E+02 0.  0.
        -12    1    1    2    0    0  0.21597351199E+02 -0.19846098742E+02  0.31989222782E+02  0.43400732578E+02  0.00000000000E+00 0.  1.
         11    1    3    3    0    0 -0.14080974085E+02  0.17230809813E+02 -0.27482236612E+02  0.35361673708E+02  0.51100000000E-03 0. -1.
        -11    1    3    3    0    0 -0.46233971069E+01  0.23468535956E+01  0.17943998761E+01  0.54866559746E+01  0.51100000000E-03 0.  1.
         12    1    3    3    0    0 -0.28929800073E+01  0.26843533332E+00 -0.63013860462E+01  0.69389377396E+01  0.00000000000E+00 0. -1.
</event>
<event>
 7    1  0.2598019E-009  0.4778728E+02  0.7816164E-02  0.1312668E+00
        -11   -1    0    0    0    0  0.00000000000E+00  0.00000000000E+00  0.45593999997E+02  0.45594000000E+02  0.51100000000E-03 0.  1.
         11   -1    0    0    0    0 -0.00000000000E+00 -0.00000000000E+00 -0.45593999997E+02  0.45594000000E+02  0.51100000000E-03 0. -1.
    9900012    2    1    2    0    0 -0.32735016347E+02  0.18173138157E+02 -0.21949453194E+02  0.47787277181E+02  0.20000027980E+02 0.  0.
        -12    1    1    2    0    0  0.32735016347E+02 -0.18173138157E+02  0.21949453194E+02  0.43400722819E+02  0.00000000000E+00 0.  1.
         11    1    3    3    0    0  0.70837016995E+00 -0.11680029934E+01 -0.74700061302E+00  0.15569294998E+01  0.51100000000E-03 0. -1.
        -11    1    3    3    0    0 -0.33595060206E+02  0.15756857065E+02 -0.17338202246E+02  0.40957537429E+02  0.51100000000E-03 0.  1.
        -12    1    3    3    0    0  0.15167368979E+00  0.35842840849E+01 -0.38642503347E+01  0.52728102525E+01  0.00000000000E+00 0.  1.
</event>
<event>
 7    1  0.2598019E-009  0.4778727E+02  0.7816164E-02  0.1312668E+00
        -11   -1    0    0    0    0  0.00000000000E+00  0.00000000000E+00  0.45593999997E+02  0.45594000000E+02  0.51100000000E-03 0.  1.
         11   -1    0    0    0    0 -0.00000000000E+00 -0.00000000000E+00 -0.45593999997E+02  0.45594000000E+02  0.51100000000E-03 0. -1.
    9900012    2    1    2    0    0  0.16264559527E+02 -0.39186180042E+02 -0.91395198999E+01  0.47787269282E+02  0.19999991965E+02 0.  0.
        -12    1    1    2    0    0 -0.16264559527E+02  0.39186180042E+02  0.91395198999E+01  0.43400730718E+02  0.00000000000E+00 0.  1.
         11    1    3    3    0    0  0.14041565922E+02 -0.12691944940E+02 -0.49524025447E+01  0.19564696040E+02  0.51100000000E-03 0. -1.
        -11    1    3    3    0    0  0.22373634717E+01 -0.25840053592E+02 -0.57163806763E+01  0.26559201292E+02  0.51100000000E-03 0.  1.
         12    1    3    3    0    0 -0.14369867298E-01 -0.65418150916E+00  0.15292633212E+01  0.16633719504E+01  0.00000000000E+00 0. -1.
</event>
<event>
 7    1  0.2598019E-009  0.4778727E+02  0.7816164E-02  0.1312668E+00
        -11   -1    0    0    0    0  0.00000000000E+00  0.00000000000E+00  0.45593999997E+02  0.45594000000E+02  0.51100000000E-03 0. -1.
         11   -1    0    0    0    0 -0.00000000000E+00 -0.00000000000E+00 -0.45593999997E+02  0.45594000000E+02  0.51100000000E-03 0.  1.
    9900012    2    1    2    0    0  0.16249474037E+02 -0.40011176420E+02 -0.43224766408E+01  0.47787269023E+02  0.19999990784E+02 0.  0.
        -12    1    1    2    0    0 -0.16249474037E+02  0.40011176420E+02  0.43224766408E+01  0.43400730977E+02  0.00000000000E+00 0.  1.
         11    1    3    3    0    0 -0.15199701433E+01 -0.14499511652E+02  0.30199944607E+01  0.14888469168E+02  0.51100000000E-03 0. -1.
        -11    1    3    3    0    0  0.14794011455E+02 -0.15010692569E+02 -0.37376499162E+01  0.21404525071E+02  0.51100000000E-03 0.  1.
         12    1    3    3    0    0  0.29754327245E+01 -0.10500972200E+02 -0.36048211852E+01  0.11494274784E+02  0.00000000000E+00 0. -1.
</event>
<event>
 7    1  0.2598019E-009  0.4778727E+02  0.7816164E-02  0.1312668E+00
        -11   -1    0    0    0    0  0.00000000000E+00  0.00000000000E+00  0.45593999997E+02  0.45594000000E+02  0.51100000000E-03 0.  1.
         11   -1    0    0    0    0 -0.00000000000E+00 -0.00000000000E+00 -0.45593999997E+02  0.45594000000E+02  0.51100000000E-03 0. -1.
    9900012    2    1    2    0    0 -0.14333542340E+02 -0.40899870769E+02 -0.23180678140E+01  0.47787270705E+02  0.19999998452E+02 0.  0.
        -12    1    1    2    0    0  0.14333542340E+02  0.40899870769E+02  0.23180678140E+01  0.43400729295E+02  0.00000000000E+00 0.  1.
         11    1    3    3    0    0 -0.12066040142E+02 -0.16628216901E+02  0.42196928240E+00  0.20549087093E+02  0.51100000000E-03 0. -1.
        -11    1    3    3    0    0 -0.10354686103E+00 -0.10176887706E+02 -0.70038023388E+01  0.12354473392E+02  0.51100000000E-03 0.  1.
         12    1    3    3    0    0 -0.21639553364E+01 -0.14094766163E+02  0.42637652424E+01  0.14883710220E+02  0.00000000000E+00 0. -1.
</event>
<event>
 7    1  0.2598019E-009  0.4778728E+02  0.7816164E-02  0.1312668E+00
        -11   -1    0    0    0    0  0.00000000000E+00  0.00000000000E+00  0.45593999997E+02  0.45594000000E+02  0.51100000000E-03 0.  1.
         11   -1    0    0    0    0 -0.00000000000E+00 -0.00000000000E+00 -0.45593999997E+02  0.45594000000E+02  0.51100000000E-03 0. -1.
    9900012    2    1    2    0    0 -0.59239232200E+01 -0.40214804198E+02 -0.15208518194E+02  0.47787281473E+02  0.20000047546E+02 0.  0.
        -12    1    1    2    0    0  0.59239232200E+01  0.40214804198E+02  0.15208518194E+02  0.43400718527E+02  0.00000000000E+00 0.  1.
         11    1    3    3    0    0 -0.16352994349E+01 -0.90590870908E+01 -0.36467447496E-02  0.92055025241E+01  0.51100000000E-03 0. -1.
        -11    1    3    3    0    0  0.38568100001E+00 -0.28804692239E+02 -0.84177057083E+01  0.30011944530E+02  0.51100000000E-03 0.  1.
        -12    1    3    3    0    0 -0.46743047851E+01 -0.23510248681E+01 -0.67871657414E+01  0.85698344182E+01  0.00000000000E+00 0.  1.
</event>
<event>
 7    1  0.2598019E-009  0.4778727E+02  0.7816164E-02  0.1312668E+00
        -11   -1    0    0    0    0  0.00000000000E+00  0.00000000000E+00  0.45593999997E+02  0.45594000000E+02  0.51100000000E-03 0.  1.
         11   -1    0    0    0    0 -0.00000000000E+00 -0.00000000000E+00 -0.45593999997E+02  0.45594000000E+02  0.51100000000E-03 0. -1.
    9900012    2    1    2    0    0  0.88665796669E+01  0.42254439705E+02  0.44237806377E+01  0.47787265618E+02  0.19999975256E+02 0.  0.
        -12    1    1    2    0    0 -0.88665796669E+01 -0.42254439705E+02 -0.44237806377E+01  0.43400734382E+02  0.00000000000E+00 0.  1.
         11    1    3    3    0    0 -0.29514274368E+01  0.25829195277E+00  0.85855314200E+00  0.30845992295E+01  0.51100000000E-03 0. -1.
        -11    1    3    3    0    0  0.53075865205E+00  0.15613625537E+02  0.34863421923E+01  0.16006923168E+02  0.51100000000E-03 0.  1.
         12    1    3    3    0    0  0.11287248452E+02  0.26382522216E+02  0.78885303366E-01  0.28695743220E+02  0.00000000000E+00 0. -1.
</event>
<event>
 7    1  0.2598019E-009  0.4778727E+02  0.7816164E-02  0.1312668E+00
        -11   -1    0    0    0    0  0.00000000000E+00  0.00000000000E+00  0.45593999997E+02  0.45594000000E+02  0.51100000000E-03 0.  1.
         11   -1    0    0    0    0 -0.00000000000E+00 -0.00000000000E+00 -0.45593999997E+02  0.45594000000E+02  0.51100000000E-03 0. -1.
    9900012    2    1    2    0    0  0.42665315837E+02  0.59627938197E+01 -0.52667979043E+01  0.47787271369E+02  0.20000001478E+02 0.  0.
        -12    1    1    2    0    0 -0.42665315837E+02 -0.59627938197E+01  0.52667979043E+01  0.43400728631E+02  0.00000000000E+00 0.  1.
         11    1    3    3    0    0  0.20055036998E+02  0.45580773560E+01 -0.66542848082E+01  0.21616199591E+02  0.51100000000E-03 0. -1.
        -11    1    3    3    0    0  0.76285344281E+01 -0.36474824392E+01  0.51743090449E+01  0.99132305541E+01  0.51100000000E-03 0.  1.
        -12    1    3    3    0    0  0.14981744410E+02  0.50521989029E+01 -0.37868221411E+01  0.16257841223E+02  0.00000000000E+00 0.  1.
</event>
<event>
 7    1  0.2598019E-009  0.4778726E+02  0.7816164E-02  0.1312668E+00
        -11   -1    0    0    0    0  0.00000000000E+00  0.00000000000E+00  0.45593999997E+02  0.45594000000E+02  0.51100000000E-03 0.  1.
         11   -1    0    0    0    0 -0.00000000000E+00 -0.00000000000E+00 -0.45593999997E+02  0.45594000000E+02  0.51100000000E-03 0. -1.
    9900012    2    1    2    0    0 -0.16767031643E+02 -0.40015865641E+02 -0.11051926792E+01  0.47787259177E+02  0.19999945893E+02 0.  0.
        -12    1    1    2    0    0  0.16767031643E+02  0.40015865641E+02  0.11051926792E+01  0.43400740823E+02  0.00000000000E+00 0.  1.
         11    1    3    3    0    0 -0.94330773687E+01 -0.23480633653E+02  0.84238606680E+01  0.26669918151E+02  0.51100000000E-03 0. -1.
        -11    1    3    3    0    0 -0.86845720937E+00  0.20856692038E+00 -0.53648480021E+00  0.10418897671E+01  0.51100000000E-03 0.  1.
         12    1    3    3    0    0 -0.64654970649E+01 -0.16743798908E+02 -0.89925685470E+01  0.20075451259E+02  0.00000000000E+00 0. -1.
</event>
<event>
 7    1  0.2598019E-009  0.4778726E+02  0.7816164E-02  0.1312668E+00
        -11   -1    0    0    0    0  0.00000000000E+00  0.00000000000E+00  0.45593999997E+02  0.45594000000E+02  0.51100000000E-03 0.  1.
         11   -1    0    0    0    0 -0.00000000000E+00 -0.00000000000E+00 -0.45593999997E+02  0.45594000000E+02  0.51100000000E-03 0. -1.
    9900012    2    1    2    0    0 -0.71721115707E+01 -0.39304659584E+02 -0.16950765269E+02  0.47787263917E+02  0.19999967501E+02 0.  0.
        -12    1    1    2    0    0  0.71721115707E+01  0.39304659584E+02  0.16950765269E+02  0.43400736083E+02  0.00000000000E+00 0.  1.
         11    1    3    3    0    0 -0.98111020113E+00 -0.95713602200E+00 -0.16558509548E+01  0.21495416342E+01  0.51100000000E-03 0. -1.
        -11    1    3    3    0    0  0.32848265075E+01 -0.15762727301E+00  0.32119826680E+00  0.33042548524E+01  0.51100000000E-03 0.  1.
        -12    1    3    3    0    0 -0.94758278771E+01 -0.38189896289E+02 -0.15616112581E+02  0.42333467430E+02  0.00000000000E+00 0.  1.
</event>
<event>
 7    1  0.2598019E-009  0.4778727E+02  0.7816164E-02  0.1312668E+00
        -11   -1    0    0    0    0  0.00000000000E+00  0.00000000000E+00  0.45593999997E+02  0.45594000000E+02  0.51100000000E-03 0.  1.
         11   -1    0    0    0    0 -0.00000000000E+00 -0.00000000000E+00 -0.45593999997E+02  0.45594000000E+02  0.51100000000E-03 0. -1.
    9900012    2    1    2    0    0  0.94355499465E+01 -0.17384475146E+02 -0.38631257258E+02  0.47787267100E+02  0.19999982018E+02 0.  0.
        -12    1    1    2    0    0 -0.94355499465E+01  0.17384475146E+02  0.38631257258E+02  0.43400732900E+02  0.00000000000E+00 0.  1.
         11    1    3    3    0    0  0.11461844906E+01 -0.16200355785E+02 -0.28431792648E+02  0.32743428346E+02  0.51100000000E-03 0. -1.
        -11    1    3    3    0    0  0.36291495357E+01  0.18560936591E+01 -0.85004029062E+00  0.41639378935E+01  0.51100000000E-03 0.  1.
         12    1    3    3    0    0  0.46602159202E+01 -0.30402130207E+01 -0.93494243194E+01  0.10879900861E+02  0.00000000000E+00 0. -1.
</event>
<event>
 7    1  0.2598019E-009  0.4778726E+02  0.7816164E-02  0.1312668E+00
        -11   -1    0    0    0    0  0.00000000000E+00  0.00000000000E+00  0.45593999997E+02  0.45594000000E+02  0.51100000000E-03 0. -1.
         11   -1    0    0    0    0 -0.00000000000E+00 -0.00000000000E+00 -0.45593999997E+02  0.45594000000E+02  0.51100000000E-03 0.  1.
    9900012    2    1    2    0    0 -0.27805086899E+02  0.12916339087E+02  0.30719207534E+02  0.47787258251E+02  0.19999941667E+02 0.  0.
        -12    1    1    2    0    0  0.27805086899E+02 -0.12916339087E+02 -0.30719207534E+02  0.43400741749E+02  0.00000000000E+00 0.  1.
         11    1    3    3    0    0 -0.15081317850E+02  0.35034175150E+01  0.20375166136E+02  0.25590378615E+02  0.51100000000E-03 0. -1.
        -11    1    3    3    0    0 -0.43311120385E+01  0.10041744515E+02  0.77012516318E+01  0.13375516489E+02  0.51100000000E-03 0.  1.
        -12    1    3    3    0    0 -0.83926570111E+01 -0.62882294336E+00  0.26427897667E+01  0.88213631458E+01  0.00000000000E+00 0.  1.
</event>
<event>
 7    1  0.2598019E-009  0.4778727E+02  0.7816164E-02  0.1312668E+00
        -11   -1    0    0    0    0  0.00000000000E+00  0.00000000000E+00  0.45593999997E+02  0.45594000000E+02  0.51100000000E-03 0.  1.
         11   -1    0    0    0    0 -0.00000000000E+00 -0.00000000000E+00 -0.45593999997E+02  0.45594000000E+02  0.51100000000E-03 0. -1.
    9900012    2    1    2    0    0 -0.28551074020E+02  0.19280874552E+01 -0.32630385343E+02  0.47787269631E+02  0.19999993554E+02 0.  0.
        -12    1    1    2    0    0  0.28551074020E+02 -0.19280874552E+01  0.32630385343E+02  0.43400730369E+02  0.00000000000E+00 0.  1.
         11    1    3    3    0    0 -0.23650740519E+02  0.18201799198E+01 -0.31022513291E+02  0.39052105106E+02  0.51100000000E-03 0. -1.
        -11    1    3    3    0    0 -0.12848164351E+01  0.19641061936E+01  0.21625307109E+01  0.31913955801E+01  0.51100000000E-03 0.  1.
         12    1    3    3    0    0 -0.36155170662E+01 -0.18561986582E+01 -0.37704027628E+01  0.55437689444E+01  0.00000000000E+00 0. -1.
</event>
<event>
 7    1  0.2598019E-009  0.4778727E+02  0.7816164E-02  0.1312668E+00
        -11   -1    0    0    0    0  0.00000000000E+00  0.00000000000E+00  0.45593999997E+02  0.45594000000E+02  0.51100000000E-03 0.  1.
         11   -1    0    0    0    0 -0.00000000000E+00 -0.00000000000E+00 -0.45593999997E+02  0.45594000000E+02  0.51100000000E-03 0. -1.
    9900012    2    1    2    0    0  0.13372853036E+02  0.24704419225E+02 -0.33082953019E+02  0.47787270651E+02  0.19999998206E+02 0.  0.
        -12    1    1    2    0    0 -0.13372853036E+02 -0.24704419225E+02  0.33082953019E+02  0.43400729349E+02  0.00000000000E+00 0.  1.
         11    1    3    3    0    0  0.10325173103E+02  0.19365197051E+02 -0.33163400964E+02  0.39767212879E+02  0.51100000000E-03 0. -1.
        -11    1    3    3    0    0  0.23465252169E+00  0.51076838347E+01  0.60649403951E+00  0.51489155404E+01  0.51100000000E-03 0.  1.
        -12    1    3    3    0    0  0.28130274112E+01  0.23153833945E+00 -0.52604609438E+00  0.28711422313E+01  0.00000000000E+00 0.  1.
</event>
<event>
 7    1  0.2598019E-009  0.4778727E+02  0.7816164E-02  0.1312668E+00
        -11   -1    0    0    0    0  0.00000000000E+00  0.00000000000E+00  0.45593999997E+02  0.45594000000E+02  0.51100000000E-03 0. -1.
         11   -1    0    0    0    0 -0.00000000000E+00 -0.00000000000E+00 -0.45593999997E+02  0.45594000000E+02  0.51100000000E-03 0.  1.
    9900012    2    1    2    0    0  0.34144805916E+02 -0.26538079393E+02 -0.36723094582E+01  0.47787270909E+02  0.19999999380E+02 0.  0.
        -12    1    1    2    0    0 -0.34144805916E+02  0.26538079393E+02  0.36723094582E+01  0.43400729091E+02  0.00000000000E+00 0.  1.
         11    1    3    3    0    0  0.52420903550E+01 -0.17548869641E+01 -0.58432124476E+01  0.80437722192E+01  0.51100000000E-03 0. -1.
        -11    1    3    3    0    0  0.59422134194E+01 -0.34648544092E+00  0.17702314564E+01  0.62099655517E+01  0.51100000000E-03 0.  1.
         12    1    3    3    0    0  0.22960502142E+02 -0.24436706988E+02  0.40067153303E+00  0.33533533138E+02  0.00000000000E+00 0. -1.
</event>
<event>
 7    1  0.2598019E-009  0.4778727E+02  0.7816164E-02  0.1312668E+00
        -11   -1    0    0    0    0  0.00000000000E+00  0.00000000000E+00  0.45593999997E+02  0.45594000000E+02  0.51100000000E-03 0.  1.
         11   -1    0    0    0    0 -0.00000000000E+00 -0.00000000000E+00 -0.45593999997E+02  0.45594000000E+02  0.51100000000E-03 0. -1.
    9900012    2    1    2    0    0  0.14346455127E+02  0.35590494406E+02 -0.20276076431E+02  0.47787270257E+02  0.19999996411E+02 0.  0.
        -12    1    1    2    0    0 -0.14346455127E+02 -0.35590494406E+02  0.20276076431E+02  0.43400729743E+02  0.00000000000E+00 0.  1.
         11    1    3    3    0    0  0.22949534377E+01  0.25639432690E+02 -0.11184091073E+02  0.28066549723E+02  0.51100000000E-03 0. -1.
        -11    1    3    3    0    0 -0.33810042558E+00  0.17581826707E+01 -0.33453994877E+01  0.37943663759E+01  0.51100000000E-03 0.  1.
         12    1    3    3    0    0  0.12389602115E+02  0.81928790452E+01 -0.57465858695E+01  0.15926354158E+02  0.00000000000E+00 0. -1.
</event>
<event>
 7    1  0.2598019E-009  0.4778728E+02  0.7816164E-02  0.1312668E+00
        -11   -1    0    0    0    0  0.00000000000E+00  0.00000000000E+00  0.45593999997E+02  0.45594000000E+02  0.51100000000E-03 0. -1.
         11   -1    0    0    0    0 -0.00000000000E+00 -0.00000000000E+00 -0.45593999997E+02  0.45594000000E+02  0.51100000000E-03 0.  1.
    9900012    2    1    2    0    0  0.91077372619E+01 -0.91045726063E+01  0.41446091481E+02  0.47787278584E+02  0.20000034377E+02 0.  0.
        -12    1    1    2    0    0 -0.91077372619E+01  0.91045726063E+01 -0.41446091481E+02  0.43400721416E+02  0.00000000000E+00 0.  1.
         11    1    3    3    0    0  0.41419907946E+01 -0.86010080311E+01  0.97557489336E+01  0.13649471214E+02  0.51100000000E-03 0. -1.
        -11    1    3    3    0    0 -0.75971192738E+00  0.22849493052E+01  0.24142354342E+02  0.24262139827E+02  0.51100000000E-03 0.  1.
         12    1    3    3    0    0  0.57254583947E+01 -0.27885138803E+01  0.75479882054E+01  0.98756675439E+01  0.00000000000E+00 0. -1.
</event>
<event>
 7    1  0.2598019E-009  0.4778728E+02  0.7816164E-02  0.1312668E+00
        -11   -1    0    0    0    0  0.00000000000E+00  0.00000000000E+00  0.45593999997E+02  0.45594000000E+02  0.51100000000E-03 0.  1.
         11   -1    0    0    0    0 -0.00000000000E+00 -0.00000000000E+00 -0.45593999997E+02  0.45594000000E+02  0.51100000000E-03 0. -1.
    9900012    2    1    2    0    0 -0.32160072803E+02  0.24351924077E+02  0.16010497841E+02  0.47787279614E+02  0.20000039071E+02 0.  0.
        -12    1    1    2    0    0  0.32160072803E+02 -0.24351924077E+02 -0.16010497841E+02  0.43400720386E+02  0.00000000000E+00 0.  1.
         11    1    3    3    0    0 -0.13310859615E+02  0.84634520715E+01  0.10699404611E+02  0.19060069883E+02  0.51100000000E-03 0. -1.
        -11    1    3    3    0    0 -0.11622980338E+02  0.15721881266E+01 -0.31284610294E+00  0.11733001337E+02  0.51100000000E-03 0.  1.
        -12    1    3    3    0    0 -0.72262328503E+01  0.14316283879E+02  0.56239393329E+01  0.16994208393E+02  0.00000000000E+00 0.  1.
</event>
<event>
 7    1  0.2598019E-009  0.4778727E+02  0.7816164E-02  0.1312668E+00
        -11   -1    0    0    0    0  0.00000000000E+00  0.00000000000E+00  0.45593999997E+02  0.45594000000E+02  0.51100000000E-03 0.  1.
         11   -1    0    0    0    0 -0.00000000000E+00 -0.00000000000E+00 -0.45593999997E+02  0.45594000000E+02  0.51100000000E-03 0. -1.
    9900012    2    1    2    0    0 -0.33984788012E+02 -0.53411268237E+01 -0.26459969803E+02  0.47787268970E+02  0.19999990541E+02 0.  0.
        -12    1    1    2    0    0  0.33984788012E+02  0.53411268237E+01  0.26459969803E+02  0.43400731030E+02  0.00000000000E+00 0.  1.
         11    1    3    3    0    0 -0.31535367077E+02 -0.99924369432E+00 -0.23287660796E+02  0.39214704006E+02  0.51100000000E-03 0. -1.
        -11    1    3    3    0    0 -0.31588108282E+01 -0.41252838944E+01  0.12058192261E+00  0.51971716653E+01  0.51100000000E-03 0.  1.
         12    1    3    3    0    0  0.70938989316E+00 -0.21659923500E+00 -0.32928909292E+01  0.33753932987E+01  0.00000000000E+00 0. -1.
</event>
<event>
 7    1  0.2598019E-009  0.4778727E+02  0.7816164E-02  0.1312668E+00
        -11   -1    0    0    0    0  0.00000000000E+00  0.00000000000E+00  0.45593999997E+02  0.45594000000E+02  0.51100000000E-03 0.  1.
         11   -1    0    0    0    0 -0.00000000000E+00 -0.00000000000E+00 -0.45593999997E+02  0.45594000000E+02  0.51100000000E-03 0. -1.
    9900012    2    1    2    0    0 -0.17943981835E+02 -0.25716516095E+02 -0.30004955831E+02  0.47787273525E+02  0.20000011310E+02 0.  0.
        -12    1    1    2    0    0  0.17943981835E+02  0.25716516095E+02  0.30004955831E+02  0.43400726475E+02  0.00000000000E+00 0.  1.
         11    1    3    3    0    0 -0.72101864696E+01 -0.11038446845E+02 -0.25384187515E+01  0.13426751942E+02  0.51100000000E-03 0. -1.
        -11    1    3    3    0    0 -0.54074019085E+00 -0.36154753066E+01 -0.12948726764E+02  0.13454872230E+02  0.51100000000E-03 0.  1.
        -12    1    3    3    0    0 -0.10193055175E+02 -0.11062593943E+02 -0.14517810315E+02  0.20905649353E+02  0.00000000000E+00 0.  1.
</event>
<event>
 7    1  0.2598019E-009  0.4778727E+02  0.7816164E-02  0.1312668E+00
        -11   -1    0    0    0    0  0.00000000000E+00  0.00000000000E+00  0.45593999997E+02  0.45594000000E+02  0.51100000000E-03 0.  1.
         11   -1    0    0    0    0 -0.00000000000E+00 -0.00000000000E+00 -0.45593999997E+02  0.45594000000E+02  0.51100000000E-03 0. -1.
    9900012    2    1    2    0    0 -0.24844321538E+02  0.66821107434E+01 -0.34953286619E+02  0.47787272332E+02  0.20000005868E+02 0.  0.
        -12    1    1    2    0    0  0.24844321538E+02 -0.66821107434E+01  0.34953286619E+02  0.43400727668E+02  0.00000000000E+00 0.  1.
         11    1    3    3    0    0 -0.14586844895E+02  0.27722375202E+01 -0.28637030855E+02  0.32257415911E+02  0.51100000000E-03 0. -1.
        -11    1    3    3    0    0 -0.33928677579E+01 -0.26411326309E+01 -0.37370031874E+01  0.56966943292E+01  0.51100000000E-03 0.  1.
         12    1    3    3    0    0 -0.68646088854E+01  0.65510058541E+01 -0.25792525772E+01  0.98331620910E+01  0.00000000000E+00 0. -1.
</event>
<event>
 7    1  0.2598019E-009  0.4778727E+02  0.7816164E-02  0.1312668E+00
        -11   -1    0    0    0    0  0.00000000000E+00  0.00000000000E+00  0.45593999997E+02  0.45594000000E+02  0.51100000000E-03 0. -1.
         11   -1    0    0    0    0 -0.00000000000E+00 -0.00000000000E+00 -0.45593999997E+02  0.45594000000E+02  0.51100000000E-03 0.  1.
    9900012    2    1    2    0    0  0.84329715093E+01  0.22194387542E+02  0.36330666790E+02  0.47787271939E+02  0.20000004077E+02 0.  0.
        -12    1    1    2    0    0 -0.84329715093E+01 -0.22194387542E+02 -0.36330666790E+02  0.43400728061E+02  0.00000000000E+00 0.  1.
         11    1    3    3    0    0 -0.56987578629E+01  0.91749920536E+01  0.13022362956E+02  0.16918577292E+02  0.51100000000E-03 0. -1.
        -11    1    3    3    0    0  0.11710735623E+02  0.68539012010E+01  0.14669760992E+02  0.19982972209E+02  0.51100000000E-03 0.  1.
         12    1    3    3    0    0  0.24209937494E+01  0.61654942873E+01  0.86385428427E+01  0.10885722437E+02  0.00000000000E+00 0. -1.
</event>
<event>
 7    1  0.2598019E-009  0.4778727E+02  0.7816164E-02  0.1312668E+00
        -11   -1    0    0    0    0  0.00000000000E+00  0.00000000000E+00  0.45593999997E+02  0.45594000000E+02  0.51100000000E-03 0.  1.
         11   -1    0    0    0    0 -0.00000000000E+00 -0.00000000000E+00 -0.45593999997E+02  0.45594000000E+02  0.51100000000E-03 0. -1.
    9900012    2    1    2    0    0 -0.24598779434E+02 -0.13568231649E+02 -0.33082120460E+02  0.47787267819E+02  0.19999985293E+02 0.  0.
        -12    1    1    2    0    0  0.24598779434E+02  0.13568231649E+02  0.33082120460E+02  0.43400732181E+02  0.00000000000E+00 0.  1.
         11    1    3    3    0    0 -0.26471127602E+02 -0.14805878410E+02 -0.29899603589E+02  0.42590150587E+02  0.51100000000E-03 0. -1.
        -11    1    3    3    0    0  0.27903621115E+00  0.17047461237E+01 -0.14258963716E+00  0.17333068450E+01  0.51100000000E-03 0.  1.
         12    1    3    3    0    0  0.15933119565E+01 -0.46709936266E+00 -0.30399272339E+01  0.34638103864E+01  0.00000000000E+00 0. -1.
</event>
<event>
 7    1  0.2598019E-009  0.4778727E+02  0.7816164E-02  0.1312668E+00
        -11   -1    0    0    0    0  0.00000000000E+00  0.00000000000E+00  0.45593999997E+02  0.45594000000E+02  0.51100000000E-03 0.  1.
         11   -1    0    0    0    0 -0.00000000000E+00 -0.00000000000E+00 -0.45593999997E+02  0.45594000000E+02  0.51100000000E-03 0. -1.
    9900012    2    1    2    0    0 -0.34892874406E+02  0.16255809857E+01 -0.25757876819E+02  0.47787269406E+02  0.19999992531E+02 0.  0.
        -12    1    1    2    0    0  0.34892874406E+02 -0.16255809857E+01  0.25757876819E+02  0.43400730594E+02  0.00000000000E+00 0.  1.
         11    1    3    3    0    0 -0.13238202781E+02  0.61632558314E+01 -0.95944907212E+01  0.17472549550E+02  0.51100000000E-03 0. -1.
        -11    1    3    3    0    0 -0.73331630975E+01 -0.53722245780E+01 -0.54355633128E+00  0.91066751165E+01  0.51100000000E-03 0.  1.
        -12    1    3    3    0    0 -0.14321508527E+02  0.83454973230E+00 -0.15619829767E+02  0.21208044740E+02  0.00000000000E+00 0.  1.
</event>
<event>
 7    1  0.2598019E-009  0.4778727E+02  0.7816164E-02  0.1312668E+00
        -11   -1    0    0    0    0  0.00000000000E+00  0.00000000000E+00  0.45593999997E+02  0.45594000000E+02  0.51100000000E-03 0.  1.
         11   -1    0    0    0    0 -0.00000000000E+00 -0.00000000000E+00 -0.45593999997E+02  0.45594000000E+02  0.51100000000E-03 0. -1.
    9900012    2    1    2    0    0  0.43131319104E+00  0.19675317487E+02 -0.38682280958E+02  0.47787274091E+02  0.20000013892E+02 0.  0.
        -12    1    1    2    0    0 -0.43131319104E+00 -0.19675317487E+02  0.38682280958E+02  0.43400725909E+02  0.00000000000E+00 0.  1.
         11    1    3    3    0    0 -0.28818619555E+01  0.10891247616E+01 -0.12018696612E+02  0.12407271641E+02  0.51100000000E-03 0. -1.
        -11    1    3    3    0    0  0.26161247973E+01  0.20740858712E+02 -0.23074177286E+02  0.31135911529E+02  0.51100000000E-03 0.  1.
        -12    1    3    3    0    0  0.69705034927E+00 -0.21546659862E+01 -0.35894070601E+01  0.42440909209E+01  0.00000000000E+00 0.  1.
</event>
<event>
 7    1  0.2598019E-009  0.4778728E+02  0.7816164E-02  0.1312668E+00
        -11   -1    0    0    0    0  0.00000000000E+00  0.00000000000E+00  0.45593999997E+02  0.45594000000E+02  0.51100000000E-03 0.  1.
         11   -1    0    0    0    0 -0.00000000000E+00 -0.00000000000E+00 -0.45593999997E+02  0.45594000000E+02  0.51100000000E-03 0. -1.
    9900012    2    1    2    0    0  0.39980405072E+02  0.62281112442E+01 -0.15697155021E+02  0.47787276098E+02  0.20000023043E+02 0.  0.
        -12    1    1    2    0    0 -0.39980405072E+02 -0.62281112442E+01  0.15697155021E+02  0.43400723902E+02  0.00000000000E+00 0.  1.
         11    1    3    3    0    0  0.26957210616E+02  0.43295894819E+01 -0.89036345935E+01  0.28717786448E+02  0.51100000000E-03 0. -1.
        -11    1    3    3    0    0 -0.18393877800E+01  0.20188436551E+01 -0.22172871989E+01  0.35178743429E+01  0.51100000000E-03 0.  1.
        -12    1    3    3    0    0  0.14862582237E+02 -0.12032189278E+00 -0.45762332284E+01  0.15551615307E+02  0.00000000000E+00 0.  1.
</event>
<event>
 7    1  0.2598019E-009  0.4778727E+02  0.7816164E-02  0.1312668E+00
        -11   -1    0    0    0    0  0.00000000000E+00  0.00000000000E+00  0.45593999997E+02  0.45594000000E+02  0.51100000000E-03 0.  1.
         11   -1    0    0    0    0 -0.00000000000E+00 -0.00000000000E+00 -0.45593999997E+02  0.45594000000E+02  0.51100000000E-03 0. -1.
    9900012    2    1    2    0    0 -0.44603355618E+01  0.21550855092E+01 -0.43117100426E+02  0.47787270329E+02  0.19999996737E+02 0.  0.
        -12    1    1    2    0    0  0.44603355618E+01 -0.21550855092E+01  0.43117100426E+02  0.43400729671E+02  0.00000000000E+00 0.  1.
         11    1    3    3    0    0 -0.43143815841E+01  0.30580535151E+01 -0.61269259387E+01  0.80935036587E+01  0.51100000000E-03 0. -1.
        -11    1    3    3    0    0  0.59590144621E+01 -0.11552672037E+01 -0.29035863875E+02  0.29663544746E+02  0.51100000000E-03 0.  1.
        -12    1    3    3    0    0 -0.61049684398E+01  0.25229919786E+00 -0.79543106117E+01  0.10030221924E+02  0.00000000000E+00 0.  1.
</event>
<event>
 7    1  0.2598019E-009  0.4778727E+02  0.7816164E-02  0.1312668E+00
        -11   -1    0    0    0    0  0.00000000000E+00  0.00000000000E+00  0.45593999997E+02  0.45594000000E+02  0.51100000000E-03 0. -1.
         11   -1    0    0    0    0 -0.00000000000E+00 -0.00000000000E+00 -0.45593999997E+02  0.45594000000E+02  0.51100000000E-03 0.  1.
    9900012    2    1    2    0    0  0.92621060297E+00  0.40468194417E+02  0.15655378177E+02  0.47787268539E+02  0.19999988577E+02 0.  0.
        -12    1    1    2    0    0 -0.92621060297E+00 -0.40468194417E+02 -0.15655378177E+02  0.43400731461E+02  0.00000000000E+00 0.  1.
         11    1    3    3    0    0  0.31616049146E+01  0.30640350002E+02  0.70634225969E+01  0.31602511497E+02  0.51100000000E-03 0. -1.
        -11    1    3    3    0    0 -0.11843535810E+01  0.78312088787E+01  0.67093348632E+00  0.79486274230E+01  0.51100000000E-03 0.  1.
         12    1    3    3    0    0 -0.10510407306E+01  0.19966355361E+01  0.79210220940E+01  0.82361296186E+01  0.00000000000E+00 0. -1.
</event>
<event>
 7    1  0.2598019E-009  0.4778727E+02  0.7816164E-02  0.1312668E+00
        -11   -1    0    0    0    0  0.00000000000E+00  0.00000000000E+00  0.45593999997E+02  0.45594000000E+02  0.51100000000E-03 0.  1.
         11   -1    0    0    0    0 -0.00000000000E+00 -0.00000000000E+00 -0.45593999997E+02  0.45594000000E+02  0.51100000000E-03 0. -1.
    9900012    2    1    2    0    0 -0.17544782399E+02  0.27438155781E+02 -0.28687131514E+02  0.47787270783E+02  0.19999998807E+02 0.  0.
        -12    1    1    2    0    0  0.17544782399E+02 -0.27438155781E+02  0.28687131514E+02  0.43400729217E+02  0.00000000000E+00 0.  1.
         11    1    3    3    0    0 -0.28714586020E+01  0.10482197478E+02 -0.64540347416E+01  0.12640265154E+02  0.51100000000E-03 0. -1.
        -11    1    3    3    0    0  0.26984155231E+01  0.37419716283E+01 -0.10500787456E+01  0.47314335709E+01  0.51100000000E-03 0.  1.
        -12    1    3    3    0    0 -0.17371739321E+02  0.13213986675E+02 -0.21183018027E+02  0.30415572057E+02  0.00000000000E+00 0.  1.
</event>
<event>
 7    1  0.2598019E-009  0.4778727E+02  0.7816164E-02  0.1312668E+00
        -11   -1    0    0    0    0  0.00000000000E+00  0.00000000000E+00  0.45593999997E+02  0.45594000000E+02  0.51100000000E-03 0.  1.
         11   -1    0    0    0    0 -0.00000000000E+00 -0.00000000000E+00 -0.45593999997E+02  0.45594000000E+02  0.51100000000E-03 0. -1.
    9900012    2    1    2    0    0 -0.32022524223E+02 -0.20912466849E+02 -0.20514624849E+02  0.47787272356E+02  0.20000005981E+02 0.  0.
        -12    1    1    2    0    0  0.32022524223E+02  0.20912466849E+02  0.20514624849E+02  0.43400727644E+02  0.00000000000E+00 0.  1.
         11    1    3    3    0    0 -0.21848720658E+02 -0.61186973406E+01 -0.13279438792E+02  0.26289704190E+02  0.51100000000E-03 0. -1.
        -11    1    3    3    0    0 -0.16359051328E+01  0.94452919840E+00  0.55854230615E+00  0.19698453693E+01  0.51100000000E-03 0.  1.
         12    1    3    3    0    0 -0.85378984324E+01 -0.15738298707E+02 -0.77937283625E+01  0.19527722797E+02  0.00000000000E+00 0. -1.
</event>
<event>
 7    1  0.2598019E-009  0.4778728E+02  0.7816164E-02  0.1312668E+00
        -11   -1    0    0    0    0  0.00000000000E+00  0.00000000000E+00  0.45593999997E+02  0.45594000000E+02  0.51100000000E-03 0. -1.
         11   -1    0    0    0    0 -0.00000000000E+00 -0.00000000000E+00 -0.45593999997E+02  0.45594000000E+02  0.51100000000E-03 0.  1.
    9900012    2    1    2    0    0 -0.35851413179E+02 -0.14616454210E+02  0.19612690457E+02  0.47787283559E+02  0.20000057059E+02 0.  0.
        -12    1    1    2    0    0  0.35851413179E+02  0.14616454210E+02 -0.19612690457E+02  0.43400716441E+02  0.00000000000E+00 0.  1.
         11    1    3    3    0    0 -0.49611911770E+01 -0.88706937688E+01  0.66060963783E+01  0.12122010372E+02  0.51100000000E-03 0. -1.
        -11    1    3    3    0    0 -0.28912006525E+02 -0.57139179215E+01  0.14814500278E+02  0.32985184523E+02  0.51100000000E-03 0.  1.
         12    1    3    3    0    0 -0.19782154774E+01 -0.31842519539E-01 -0.18079061989E+01  0.26800886637E+01  0.00000000000E+00 0. -1.
</event>
<event>
 7    1  0.2598019E-009  0.4778727E+02  0.7816164E-02  0.1312668E+00
        -11   -1    0    0    0    0  0.00000000000E+00  0.00000000000E+00  0.45593999997E+02  0.45594000000E+02  0.51100000000E-03 0. -1.
         11   -1    0    0    0    0 -0.00000000000E+00 -0.00000000000E+00 -0.45593999997E+02  0.45594000000E+02  0.51100000000E-03 0.  1.
    9900012    2    1    2    0    0  0.12093450027E+02  0.21636018005E+02  0.35626596722E+02  0.47787271865E+02  0.20000003741E+02 0.  0.
        -12    1    1    2    0    0 -0.12093450027E+02 -0.21636018005E+02 -0.35626596722E+02  0.43400728135E+02  0.00000000000E+00 0.  1.
         11    1    3    3    0    0  0.99890965511E+01  0.50999205822E+01  0.54840431178E+01  0.12484629311E+02  0.51100000000E-03 0. -1.
        -11    1    3    3    0    0  0.39069846336E+01  0.14950618700E+02  0.28415058799E+02  0.32345032002E+02  0.51100000000E-03 0.  1.
        -12    1    3    3    0    0 -0.18026311578E+01  0.15854787235E+01  0.17274948054E+01  0.29576105519E+01  0.00000000000E+00 0.  1.
</event>
<event>
 7    1  0.2598019E-009  0.4778728E+02  0.7816164E-02  0.1312668E+00
        -11   -1    0    0    0    0  0.00000000000E+00  0.00000000000E+00  0.45593999997E+02  0.45594000000E+02  0.51100000000E-03 0.  1.
         11   -1    0    0    0    0 -0.00000000000E+00 -0.00000000000E+00 -0.45593999997E+02  0.45594000000E+02  0.51100000000E-03 0. -1.
    9900012    2    1    2    0    0  0.36619771017E+02  0.24893167894E+01 -0.23160712272E+02  0.47787275118E+02  0.20000018571E+02 0.  0.
        -12    1    1    2    0    0 -0.36619771017E+02 -0.24893167894E+01  0.23160712272E+02  0.43400724882E+02  0.00000000000E+00 0.  1.
         11    1    3    3    0    0  0.11336967319E+02  0.72436190596E-01 -0.15432073589E+02  0.19148915648E+02  0.51100000000E-03 0. -1.
        -11    1    3    3    0    0  0.14914582831E+02  0.67001055546E+01 -0.42606983671E+01  0.16896441823E+02  0.51100000000E-03 0.  1.
         12    1    3    3    0    0  0.10368220867E+02 -0.42832249558E+01 -0.34679403160E+01  0.11741917646E+02  0.00000000000E+00 0. -1.
</event>
<event>
 7    1  0.2598019E-009  0.4778727E+02  0.7816164E-02  0.1312668E+00
        -11   -1    0    0    0    0  0.00000000000E+00  0.00000000000E+00  0.45593999997E+02  0.45594000000E+02  0.51100000000E-03 0.  1.
         11   -1    0    0    0    0 -0.00000000000E+00 -0.00000000000E+00 -0.45593999997E+02  0.45594000000E+02  0.51100000000E-03 0. -1.
    9900012    2    1    2    0    0 -0.50256851846E+01 -0.68367438629E+01 -0.42563184547E+02  0.47787271239E+02  0.20000000888E+02 0.  0.
        -12    1    1    2    0    0  0.50256851846E+01  0.68367438629E+01  0.42563184547E+02  0.43400728761E+02  0.00000000000E+00 0.  1.
         11    1    3    3    0    0  0.29521147126E+01 -0.27957283468E+01 -0.31744184331E+02  0.32003504767E+02  0.51100000000E-03 0. -1.
        -11    1    3    3    0    0 -0.78540838388E+01 -0.51268224651E+01 -0.11216176945E+02  0.14620997472E+02  0.51100000000E-03 0.  1.
        -12    1    3    3    0    0 -0.12371605839E+00  0.10858069491E+01  0.39717673001E+00  0.11627690005E+01  0.00000000000E+00 0.  1.
</event>
<event>
 7    1  0.2598019E-009  0.4778727E+02  0.7816164E-02  0.1312668E+00
        -11   -1    0    0    0    0  0.00000000000E+00  0.00000000000E+00  0.45593999997E+02  0.45594000000E+02  0.51100000000E-03 0.  1.
         11   -1    0    0    0    0 -0.00000000000E+00 -0.00000000000E+00 -0.45593999997E+02  0.45594000000E+02  0.51100000000E-03 0. -1.
    9900012    2    1    2    0    0  0.40305966412E+02 -0.13788210789E+02  0.83028534504E+01  0.47787273502E+02  0.20000011204E+02 0.  0.
        -12    1    1    2    0    0 -0.40305966412E+02  0.13788210789E+02 -0.83028534504E+01  0.43400726498E+02  0.00000000000E+00 0.  1.
         11    1    3    3    0    0 -0.43798521689E+00  0.22800193498E+01  0.74192310076E+00  0.24373693676E+01  0.51100000000E-03 0. -1.
        -11    1    3    3    0    0  0.88157901155E+01 -0.28856697263E+01  0.54146412531E+01  0.10740744168E+02  0.51100000000E-03 0.  1.
         12    1    3    3    0    0  0.31928161513E+02 -0.13182560412E+02  0.21462890965E+01  0.34609159966E+02  0.00000000000E+00 0. -1.
</event>
<event>
 7    1  0.2598019E-009  0.4778727E+02  0.7816164E-02  0.1312668E+00
        -11   -1    0    0    0    0  0.00000000000E+00  0.00000000000E+00  0.45593999997E+02  0.45594000000E+02  0.51100000000E-03 0.  1.
         11   -1    0    0    0    0 -0.00000000000E+00 -0.00000000000E+00 -0.45593999997E+02  0.45594000000E+02  0.51100000000E-03 0. -1.
    9900012    2    1    2    0    0  0.55216755242E+01 -0.32543280771E+02 -0.28179236494E+02  0.47787269669E+02  0.19999993728E+02 0.  0.
        -12    1    1    2    0    0 -0.55216755242E+01  0.32543280771E+02  0.28179236494E+02  0.43400730331E+02  0.00000000000E+00 0.  1.
         11    1    3    3    0    0 -0.81729996917E+00 -0.48117513255E+01 -0.31668700488E+01  0.58180749587E+01  0.51100000000E-03 0. -1.
        -11    1    3    3    0    0 -0.44044121951E+01 -0.19913189529E+02 -0.14435412067E+02  0.24986297961E+02  0.51100000000E-03 0.  1.
        -12    1    3    3    0    0  0.10743387688E+02 -0.78183399163E+01 -0.10576954378E+02  0.16982896749E+02  0.00000000000E+00 0.  1.
</event>
<event>
 7    1  0.2598019E-009  0.4778727E+02  0.7816164E-02  0.1312668E+00
        -11   -1    0    0    0    0  0.00000000000E+00  0.00000000000E+00  0.45593999997E+02  0.45594000000E+02  0.51100000000E-03 0.  1.
         11   -1    0    0    0    0 -0.00000000000E+00 -0.00000000000E+00 -0.45593999997E+02  0.45594000000E+02  0.51100000000E-03 0. -1.
    9900012    2    1    2    0    0 -0.14980149833E+01  0.20173498586E+02 -0.38398035199E+02  0.47787271881E+02  0.20000003815E+02 0.  0.
        -12    1    1    2    0    0  0.14980149833E+01 -0.20173498586E+02  0.38398035199E+02  0.43400728119E+02  0.00000000000E+00 0.  1.
         11    1    3    3    0    0 -0.56265669162E+01  0.90301517897E+01 -0.22914373773E+02  0.25264014374E+02  0.51100000000E-03 0. -1.
        -11    1    3    3    0    0 -0.38996505226E+01  0.31650582441E+01 -0.43014654840E+01  0.66126752119E+01  0.51100000000E-03 0.  1.
         12    1    3    3    0    0  0.80282024555E+01  0.79782885523E+01 -0.11182195942E+02  0.15910582295E+02  0.00000000000E+00 0. -1.
</event>
<event>
 7    1  0.2598019E-009  0.4778727E+02  0.7816164E-02  0.1312668E+00
        -11   -1    0    0    0    0  0.00000000000E+00  0.00000000000E+00  0.45593999997E+02  0.45594000000E+02  0.51100000000E-03 0.  1.
         11   -1    0    0    0    0 -0.00000000000E+00 -0.00000000000E+00 -0.45593999997E+02  0.45594000000E+02  0.51100000000E-03 0. -1.
    9900012    2    1    2    0    0  0.16642249437E+02  0.25712503364E+02 -0.30749404764E+02  0.47787272023E+02  0.20000004461E+02 0.  0.
        -12    1    1    2    0    0 -0.16642249437E+02 -0.25712503364E+02  0.30749404764E+02  0.43400727977E+02  0.00000000000E+00 0.  1.
         11    1    3    3    0    0  0.95417875886E+01  0.11805424542E+02 -0.19907406161E+02  0.25034347990E+02  0.51100000000E-03 0. -1.
        -11    1    3    3    0    0 -0.24612057233E+01  0.54471422065E+00  0.76668510692E+00  0.26347776963E+01  0.51100000000E-03 0.  1.
        -12    1    3    3    0    0  0.95616675719E+01  0.13362364602E+02 -0.11608683711E+02  0.20118146336E+02  0.00000000000E+00 0.  1.
</event>
<event>
 7    1  0.2598019E-009  0.4778727E+02  0.7816164E-02  0.1312668E+00
        -11   -1    0    0    0    0  0.00000000000E+00  0.00000000000E+00  0.45593999997E+02  0.45594000000E+02  0.51100000000E-03 0.  1.
         11   -1    0    0    0    0 -0.00000000000E+00 -0.00000000000E+00 -0.45593999997E+02  0.45594000000E+02  0.51100000000E-03 0. -1.
    9900012    2    1    2    0    0  0.34808825349E+02  0.17461641476E+02 -0.19158806294E+02  0.47787273003E+02  0.20000008930E+02 0.  0.
        -12    1    1    2    0    0 -0.34808825349E+02 -0.17461641476E+02  0.19158806294E+02  0.43400726997E+02  0.00000000000E+00 0.  1.
         11    1    3    3    0    0  0.31112550790E+02  0.14166817573E+02 -0.22037634815E+02  0.40673663289E+02  0.51100000000E-03 0. -1.
        -11    1    3    3    0    0  0.12356789587E+01  0.38096036698E+00  0.30325295767E+01  0.32967058080E+01  0.51100000000E-03 0.  1.
         12    1    3    3    0    0  0.24605956007E+01  0.29138635359E+01 -0.15370105569E+00  0.38169039064E+01  0.00000000000E+00 0. -1.
</event>
<event>
 7    1  0.2598019E-009  0.4778727E+02  0.7816164E-02  0.1312668E+00
        -11   -1    0    0    0    0  0.00000000000E+00  0.00000000000E+00  0.45593999997E+02  0.45594000000E+02  0.51100000000E-03 0.  1.
         11   -1    0    0    0    0 -0.00000000000E+00 -0.00000000000E+00 -0.45593999997E+02  0.45594000000E+02  0.51100000000E-03 0. -1.
    9900012    2    1    2    0    0 -0.20506805300E+02 -0.27581953237E+02 -0.26501516471E+02  0.47787267480E+02  0.19999983751E+02 0.  0.
        -12    1    1    2    0    0  0.20506805300E+02  0.27581953237E+02  0.26501516471E+02  0.43400732520E+02  0.00000000000E+00 0.  1.
         11    1    3    3    0    0 -0.15080732941E+02 -0.13813555749E+02 -0.22488507038E+02  0.30396969874E+02  0.51100000000E-03 0. -1.
        -11    1    3    3    0    0 -0.40833052630E+01 -0.13093966371E+02 -0.67825495132E+00  0.13732638757E+02  0.51100000000E-03 0.  1.
        -12    1    3    3    0    0 -0.13427670962E+01 -0.67443111685E+00 -0.33347544817E+01  0.36576588495E+01  0.00000000000E+00 0.  1.
</event>
<event>
 7    1  0.2598019E-009  0.4778727E+02  0.7816164E-02  0.1312668E+00
        -11   -1    0    0    0    0  0.00000000000E+00  0.00000000000E+00  0.45593999997E+02  0.45594000000E+02  0.51100000000E-03 0.  1.
         11   -1    0    0    0    0 -0.00000000000E+00 -0.00000000000E+00 -0.45593999997E+02  0.45594000000E+02  0.51100000000E-03 0. -1.
    9900012    2    1    2    0    0  0.77248641395E+01  0.32940389063E+02 -0.27182361759E+02  0.47787267882E+02  0.19999985582E+02 0.  0.
        -12    1    1    2    0    0 -0.77248641395E+01 -0.32940389063E+02  0.27182361759E+02  0.43400732118E+02  0.00000000000E+00 0.  1.
         11    1    3    3    0    0  0.71414303197E+01  0.33198440650E+02 -0.20812808849E+02  0.39828501115E+02  0.51100000000E-03 0. -1.
        -11    1    3    3    0    0  0.63166700477E+00 -0.11934552239E+01 -0.67965450729E+01  0.69293840827E+01  0.51100000000E-03 0.  1.
         12    1    3    3    0    0 -0.48233184976E-01  0.93540363696E+00  0.42699216337E+00  0.10293826848E+01  0.00000000000E+00 0. -1.
</event>
<event>
 7    1  0.2598019E-009  0.4778727E+02  0.7816164E-02  0.1312668E+00
        -11   -1    0    0    0    0  0.00000000000E+00  0.00000000000E+00  0.45593999997E+02  0.45594000000E+02  0.51100000000E-03 0.  1.
         11   -1    0    0    0    0 -0.00000000000E+00 -0.00000000000E+00 -0.45593999997E+02  0.45594000000E+02  0.51100000000E-03 0. -1.
    9900012    2    1    2    0    0  0.99003554786E+01  0.33416489969E+02 -0.25863958744E+02  0.47787271868E+02  0.20000003757E+02 0.  0.
        -12    1    1    2    0    0 -0.99003554786E+01 -0.33416489969E+02  0.25863958744E+02  0.43400728132E+02  0.00000000000E+00 0.  1.
         11    1    3    3    0    0  0.64349123343E+00  0.68898099429E+01 -0.58899373338E+01  0.90870745608E+01  0.51100000000E-03 0. -1.
        -11    1    3    3    0    0 -0.83626617013E+00  0.18410998933E+02 -0.17695819032E+02  0.25550073078E+02  0.51100000000E-03 0.  1.
        -12    1    3    3    0    0  0.10093130415E+02  0.81156810922E+01 -0.22782023785E+01  0.13150124229E+02  0.00000000000E+00 0.  1.
</event>
<event>
 7    1  0.2598019E-009  0.4778727E+02  0.7816164E-02  0.1312668E+00
        -11   -1    0    0    0    0  0.00000000000E+00  0.00000000000E+00  0.45593999997E+02  0.45594000000E+02  0.51100000000E-03 0.  1.
         11   -1    0    0    0    0 -0.00000000000E+00 -0.00000000000E+00 -0.45593999997E+02  0.45594000000E+02  0.51100000000E-03 0. -1.
    9900012    2    1    2    0    0 -0.17756734024E+02 -0.12955274114E+02 -0.37423024697E+02  0.47787268346E+02  0.19999987698E+02 0.  0.
        -12    1    1    2    0    0  0.17756734024E+02  0.12955274114E+02  0.37423024697E+02  0.43400731654E+02  0.00000000000E+00 0.  1.
         11    1    3    3    0    0 -0.40260971279E+01 -0.40753162801E+01 -0.12338314359E+02  0.13603369522E+02  0.51100000000E-03 0. -1.
        -11    1    3    3    0    0 -0.49760068884E+00 -0.64533117070E+01 -0.17679073316E+02  0.18826642611E+02  0.51100000000E-03 0.  1.
        -12    1    3    3    0    0 -0.13233036207E+02 -0.24266461273E+01 -0.74056370216E+01  0.15357256213E+02  0.00000000000E+00 0.  1.
</event>
<event>
 7    1  0.2598019E-009  0.4778727E+02  0.7816164E-02  0.1312668E+00
        -11   -1    0    0    0    0  0.00000000000E+00  0.00000000000E+00  0.45593999997E+02  0.45594000000E+02  0.51100000000E-03 0.  1.
         11   -1    0    0    0    0 -0.00000000000E+00 -0.00000000000E+00 -0.45593999997E+02  0.45594000000E+02  0.51100000000E-03 0. -1.
    9900012    2    1    2    0    0 -0.29596444279E+01  0.11488045624E+02 -0.41747915390E+02  0.47787272738E+02  0.20000007724E+02 0.  0.
        -12    1    1    2    0    0  0.29596444279E+01 -0.11488045624E+02  0.41747915390E+02  0.43400727262E+02  0.00000000000E+00 0.  1.
         11    1    3    3    0    0  0.13129176180E+01  0.81210919103E-01 -0.83707335958E+00  0.15591792570E+01  0.51100000000E-03 0. -1.
        -11    1    3    3    0    0 -0.68903621099E+00  0.10676994560E+02 -0.41193322161E+02  0.42560107785E+02  0.51100000000E-03 0.  1.
        -12    1    3    3    0    0 -0.35835258349E+01  0.72984014453E+00  0.28248013031E+00  0.36679856965E+01  0.00000000000E+00 0.  1.
</event>
<event>
 7    1  0.2598019E-009  0.4778728E+02  0.7816164E-02  0.1312668E+00
        -11   -1    0    0    0    0  0.00000000000E+00  0.00000000000E+00  0.45593999997E+02  0.45594000000E+02  0.51100000000E-03 0. -1.
         11   -1    0    0    0    0 -0.00000000000E+00 -0.00000000000E+00 -0.45593999997E+02  0.45594000000E+02  0.51100000000E-03 0.  1.
    9900012    2    1    2    0    0 -0.28154977457E+02  0.31909720753E+02  0.85257989817E+01  0.47787282466E+02  0.20000052077E+02 0.  0.
        -12    1    1    2    0    0  0.28154977457E+02 -0.31909720753E+02 -0.85257989817E+01  0.43400717534E+02  0.00000000000E+00 0.  1.
         11    1    3    3    0    0 -0.78843061445E+01  0.18927189272E+02  0.88353353722E+01  0.22326305752E+02  0.51100000000E-03 0. -1.
        -11    1    3    3    0    0 -0.10966258031E+02  0.81290489299E+01 -0.41791724891E+01  0.14276054590E+02  0.51100000000E-03 0.  1.
        -12    1    3    3    0    0 -0.93044132821E+01  0.48534825513E+01  0.38696360987E+01  0.11184922125E+02  0.00000000000E+00 0.  1.
</event>
<event>
 7    1  0.2598019E-009  0.4778727E+02  0.7816164E-02  0.1312668E+00
        -11   -1    0    0    0    0  0.00000000000E+00  0.00000000000E+00  0.45593999997E+02  0.45594000000E+02  0.51100000000E-03 0.  1.
         11   -1    0    0    0    0 -0.00000000000E+00 -0.00000000000E+00 -0.45593999997E+02  0.45594000000E+02  0.51100000000E-03 0. -1.
    9900012    2    1    2    0    0 -0.15561240392E+01  0.42070908355E+02  0.10547050620E+02  0.47787272717E+02  0.20000007628E+02 0.  0.
        -12    1    1    2    0    0  0.15561240392E+01 -0.42070908355E+02 -0.10547050620E+02  0.43400727283E+02  0.00000000000E+00 0.  1.
         11    1    3    3    0    0  0.58555862477E+01  0.27989653631E+02  0.55910642244E+01  0.29137065743E+02  0.51100000000E-03 0. -1.
        -11    1    3    3    0    0 -0.31082736899E+01  0.66201532902E+00 -0.10277691180E+01  0.33400507853E+01  0.51100000000E-03 0.  1.
         12    1    3    3    0    0 -0.43034365970E+01  0.13419239396E+02  0.59837555132E+01  0.15310156189E+02  0.00000000000E+00 0. -1.
</event>
<event>
 7    1  0.2598019E-009  0.4778727E+02  0.7816164E-02  0.1312668E+00
        -11   -1    0    0    0    0  0.00000000000E+00  0.00000000000E+00  0.45593999997E+02  0.45594000000E+02  0.51100000000E-03 0.  1.
         11   -1    0    0    0    0 -0.00000000000E+00 -0.00000000000E+00 -0.45593999997E+02  0.45594000000E+02  0.51100000000E-03 0. -1.
    9900012    2    1    2    0    0  0.89987487239E+01 -0.37863672550E+02 -0.19209071965E+02  0.47787267018E+02  0.19999981644E+02 0.  0.
        -12    1    1    2    0    0 -0.89987487239E+01  0.37863672550E+02  0.19209071965E+02  0.43400732982E+02  0.00000000000E+00 0.  1.
         11    1    3    3    0    0 -0.44544949405E+01 -0.54269434851E+01 -0.84968304510E+00  0.70722133950E+01  0.51100000000E-03 0.  1.
        -11    1    3    3    0    0  0.34275868550E+01 -0.17578665880E+01 -0.67007977199E+00  0.39099173587E+01  0.51100000000E-03 0. -1.
         12    1    3    3    0    0  0.10025656809E+02 -0.30678862477E+02 -0.17689309148E+02  0.36805136265E+02  0.00000000000E+00 0. -1.
</event>
<event>
 7    1  0.2598019E-009  0.4778727E+02  0.7816164E-02  0.1312668E+00
        -11   -1    0    0    0    0  0.00000000000E+00  0.00000000000E+00  0.45593999997E+02  0.45594000000E+02  0.51100000000E-03 0.  1.
         11   -1    0    0    0    0 -0.00000000000E+00 -0.00000000000E+00 -0.45593999997E+02  0.45594000000E+02  0.51100000000E-03 0. -1.
    9900012    2    1    2    0    0  0.12113683919E+02  0.19241269706E+02 -0.36968303655E+02  0.47787271053E+02  0.20000000040E+02 0.  0.
        -12    1    1    2    0    0 -0.12113683919E+02 -0.19241269706E+02  0.36968303655E+02  0.43400728947E+02  0.00000000000E+00 0.  1.
         11    1    3    3    0    0  0.77941219263E+01  0.81779858386E+01 -0.36690466718E+01  0.11878118231E+02  0.51100000000E-03 0. -1.
        -11    1    3    3    0    0  0.28863730892E+01  0.24063054777E+01 -0.16869499662E+02  0.17282982230E+02  0.51100000000E-03 0.  1.
         12    1    3    3    0    0  0.14331889036E+01  0.86569783901E+01 -0.16429757321E+02  0.18626170592E+02  0.00000000000E+00 0. -1.
</event>
<event>
 7    1  0.2598019E-009  0.4778726E+02  0.7816164E-02  0.1312668E+00
        -11   -1    0    0    0    0  0.00000000000E+00  0.00000000000E+00  0.45593999997E+02  0.45594000000E+02  0.51100000000E-03 0.  1.
         11   -1    0    0    0    0 -0.00000000000E+00 -0.00000000000E+00 -0.45593999997E+02  0.45594000000E+02  0.51100000000E-03 0. -1.
    9900012    2    1    2    0    0  0.24417930318E+02 -0.21771537871E+02 -0.28519973828E+02  0.47787261649E+02  0.19999957163E+02 0.  0.
        -12    1    1    2    0    0 -0.24417930318E+02  0.21771537871E+02  0.28519973828E+02  0.43400738351E+02  0.00000000000E+00 0.  1.
         11    1    3    3    0    0  0.20976716058E+02 -0.18245179840E+02 -0.25684754848E+02  0.37849911966E+02  0.51100000000E-03 0. -1.
        -11    1    3    3    0    0  0.94036382373E+00 -0.23407459358E+01  0.27330015949E+01  0.37192302478E+01  0.51100000000E-03 0.  1.
         12    1    3    3    0    0  0.25008504360E+01 -0.11856120952E+01 -0.55682205745E+01  0.62181194351E+01  0.00000000000E+00 0. -1.
</event>
<event>
 7    1  0.2598019E-009  0.4778725E+02  0.7816164E-02  0.1312668E+00
        -11   -1    0    0    0    0  0.00000000000E+00  0.00000000000E+00  0.45593999997E+02  0.45594000000E+02  0.51100000000E-03 0. -1.
         11   -1    0    0    0    0 -0.00000000000E+00 -0.00000000000E+00 -0.45593999997E+02  0.45594000000E+02  0.51100000000E-03 0.  1.
    9900012    2    1    2    0    0 -0.31077659655E+02  0.13232708580E+02  0.27252513905E+02  0.47787250926E+02  0.19999908272E+02 0.  0.
        -12    1    1    2    0    0  0.31077659655E+02 -0.13232708580E+02 -0.27252513905E+02  0.43400749074E+02  0.00000000000E+00 0.  1.
         11    1    3    3    0    0 -0.13988199674E+02  0.20938498232E+01  0.19169728536E+01  0.14273357082E+02  0.51100000000E-03 0. -1.
        -11    1    3    3    0    0 -0.27262854249E+01  0.57255257852E+01  0.52366073752E+01  0.82241312488E+01  0.51100000000E-03 0.  1.
         12    1    3    3    0    0 -0.14363174556E+02  0.54133329716E+01  0.20098933677E+02  0.25289762595E+02  0.00000000000E+00 0. -1.
</event>
<event>
 7    1  0.2598019E-009  0.4778728E+02  0.7816164E-02  0.1312668E+00
        -11   -1    0    0    0    0  0.00000000000E+00  0.00000000000E+00  0.45593999997E+02  0.45594000000E+02  0.51100000000E-03 0. -1.
         11   -1    0    0    0    0 -0.00000000000E+00 -0.00000000000E+00 -0.45593999997E+02  0.45594000000E+02  0.51100000000E-03 0.  1.
    9900012    2    1    2    0    0 -0.77615363446E+01  0.20571680194E+02  0.37419070116E+02  0.47787282485E+02  0.20000052162E+02 0.  0.
        -12    1    1    2    0    0  0.77615363446E+01 -0.20571680194E+02 -0.37419070116E+02  0.43400717515E+02  0.00000000000E+00 0.  1.
         11    1    3    3    0    0 -0.62925491756E+01  0.10784795824E+02  0.20370901318E+02  0.23893129072E+02  0.51100000000E-03 0. -1.
        -11    1    3    3    0    0  0.11565844586E+01 -0.59670124297E+00  0.11970584540E+02  0.12041122641E+02  0.51100000000E-03 0.  1.
        -12    1    3    3    0    0 -0.26255716277E+01  0.10383585614E+02  0.50775842591E+01  0.11853030772E+02  0.00000000000E+00 0.  1.
</event>
<event>
 7    1  0.2598019E-009  0.4778727E+02  0.7816164E-02  0.1312668E+00
        -11   -1    0    0    0    0  0.00000000000E+00  0.00000000000E+00  0.45593999997E+02  0.45594000000E+02  0.51100000000E-03 0.  1.
         11   -1    0    0    0    0 -0.00000000000E+00 -0.00000000000E+00 -0.45593999997E+02  0.45594000000E+02  0.51100000000E-03 0. -1.
    9900012    2    1    2    0    0 -0.35517959155E+02  0.18314745328E+02 -0.16931269357E+02  0.47787271884E+02  0.20000003829E+02 0.  0.
        -12    1    1    2    0    0  0.35517959155E+02 -0.18314745328E+02  0.16931269357E+02  0.43400728116E+02  0.00000000000E+00 0.  1.
         11    1    3    3    0    0 -0.28731263157E+01  0.12879202381E+01  0.13363111835E+01  0.34204270502E+01  0.51100000000E-03 0. -1.
        -11    1    3    3    0    0 -0.31569809235E+02  0.16705639351E+02 -0.20985738720E+02  0.41426229266E+02  0.51100000000E-03 0.  1.
        -12    1    3    3    0    0 -0.10750236037E+01  0.32118573836E+00  0.27181581802E+01  0.29406155681E+01  0.00000000000E+00 0.  1.
</event>
<event>
 7    1  0.2598019E-009  0.4778727E+02  0.7816164E-02  0.1312668E+00
        -11   -1    0    0    0    0  0.00000000000E+00  0.00000000000E+00  0.45593999997E+02  0.45594000000E+02  0.51100000000E-03 0.  1.
         11   -1    0    0    0    0 -0.00000000000E+00 -0.00000000000E+00 -0.45593999997E+02  0.45594000000E+02  0.51100000000E-03 0. -1.
    9900012    2    1    2    0    0 -0.16267362451E+02 -0.18322041036E+02 -0.35823159409E+02  0.47787273982E+02  0.20000013393E+02 0.  0.
        -12    1    1    2    0    0  0.16267362451E+02  0.18322041036E+02  0.35823159409E+02  0.43400726018E+02  0.00000000000E+00 0.  1.
         11    1    3    3    0    0 -0.11575378864E+02 -0.69738027914E+01 -0.25160943837E+02  0.28560399441E+02  0.51100000000E-03 0. -1.
        -11    1    3    3    0    0 -0.38203466644E+01 -0.11655832216E+02 -0.46086876774E+01  0.13103185706E+02  0.51100000000E-03 0.  1.
        -12    1    3    3    0    0 -0.87163692341E+00  0.30759397094E+00 -0.60535278943E+01  0.61236888347E+01  0.00000000000E+00 0.  1.
</event>
<event>
 7    1  0.2598019E-009  0.4778727E+02  0.7816164E-02  0.1312668E+00
        -11   -1    0    0    0    0  0.00000000000E+00  0.00000000000E+00  0.45593999997E+02  0.45594000000E+02  0.51100000000E-03 0.  1.
         11   -1    0    0    0    0 -0.00000000000E+00 -0.00000000000E+00 -0.45593999997E+02  0.45594000000E+02  0.51100000000E-03 0. -1.
    9900012    2    1    2    0    0  0.39499730619E+02  0.25559443503E+01 -0.17800615599E+02  0.47787268599E+02  0.19999988849E+02 0.  0.
        -12    1    1    2    0    0 -0.39499730619E+02 -0.25559443503E+01  0.17800615599E+02  0.43400731401E+02  0.00000000000E+00 0.  1.
         11    1    3    3    0    0  0.16015992752E+02 -0.11071979728E+01 -0.63132721788E+01  0.17250951193E+02  0.51100000000E-03 0. -1.
        -11    1    3    3    0    0  0.19473372897E+02  0.91171666790E+01 -0.92404797106E+01  0.23403449442E+02  0.51100000000E-03 0.  1.
        -12    1    3    3    0    0  0.40103649690E+01 -0.54540243559E+01 -0.22468637091E+01  0.71328679636E+01  0.00000000000E+00 0.  1.
</event>
<event>
 7    1  0.2598019E-009  0.4778727E+02  0.7816164E-02  0.1312668E+00
        -11   -1    0    0    0    0  0.00000000000E+00  0.00000000000E+00  0.45593999997E+02  0.45594000000E+02  0.51100000000E-03 0.  1.
         11   -1    0    0    0    0 -0.00000000000E+00 -0.00000000000E+00 -0.45593999997E+02  0.45594000000E+02  0.51100000000E-03 0. -1.
    9900012    2    1    2    0    0  0.21073531579E+02  0.29157531275E+02 -0.24276899184E+02  0.47787271928E+02  0.20000004028E+02 0.  0.
        -12    1    1    2    0    0 -0.21073531579E+02 -0.29157531275E+02  0.24276899184E+02  0.43400728072E+02  0.00000000000E+00 0.  1.
         11    1    3    3    0    0  0.45651379777E+01  0.10054372910E+02 -0.30464798667E+01  0.11454778007E+02  0.51100000000E-03 0. -1.
        -11    1    3    3    0    0 -0.33577584390E+00  0.84223834184E+01 -0.11170860952E+02  0.13994192457E+02  0.51100000000E-03 0.  1.
        -12    1    3    3    0    0  0.16844169445E+02  0.10680774947E+02 -0.10059558365E+02  0.22338301463E+02  0.00000000000E+00 0.  1.
</event>
<event>
 7    1  0.2598019E-009  0.4778727E+02  0.7816164E-02  0.1312668E+00
        -11   -1    0    0    0    0  0.00000000000E+00  0.00000000000E+00  0.45593999997E+02  0.45594000000E+02  0.51100000000E-03 0. -1.
         11   -1    0    0    0    0 -0.00000000000E+00 -0.00000000000E+00 -0.45593999997E+02  0.45594000000E+02  0.51100000000E-03 0.  1.
    9900012    2    1    2    0    0 -0.38634418755E+02 -0.19750553243E+02  0.95954230034E+00  0.47787269737E+02  0.19999994039E+02 0.  0.
        -12    1    1    2    0    0  0.38634418755E+02  0.19750553243E+02 -0.95954230034E+00  0.43400730263E+02  0.00000000000E+00 0.  1.
         11    1    3    3    0    0 -0.18140021848E+02 -0.13321559439E+02  0.31888773003E+01  0.22730888175E+02  0.51100000000E-03 0. -1.
        -11    1    3    3    0    0 -0.21469221378E+02 -0.34295571868E+01 -0.25303871595E+01  0.21888174627E+02  0.51100000000E-03 0.  1.
        -12    1    3    3    0    0  0.97482447198E+00 -0.29994366179E+01  0.30105215957E+00  0.31682069344E+01  0.00000000000E+00 0.  1.
</event>
<event>
 7    1  0.2598019E-009  0.4778727E+02  0.7816164E-02  0.1312668E+00
        -11   -1    0    0    0    0  0.00000000000E+00  0.00000000000E+00  0.45593999997E+02  0.45594000000E+02  0.51100000000E-03 0.  1.
         11   -1    0    0    0    0 -0.00000000000E+00 -0.00000000000E+00 -0.45593999997E+02  0.45594000000E+02  0.51100000000E-03 0. -1.
    9900012    2    1    2    0    0 -0.24811141547E+02 -0.33509046613E+02 -0.12048836298E+02  0.47787269523E+02  0.19999993064E+02 0.  0.
        -12    1    1    2    0    0  0.24811141547E+02  0.33509046613E+02  0.12048836298E+02  0.43400730477E+02  0.00000000000E+00 0.  1.
         11    1    3    3    0    0 -0.57443749744E+01 -0.56540281017E+01 -0.49497302190E+01  0.94586313558E+01  0.51100000000E-03 0.  1.
        -11    1    3    3    0    0 -0.49115033576E+01 -0.20966218617E+02 -0.68046308345E+01  0.22583360896E+02  0.51100000000E-03 0. -1.
        -12    1    3    3    0    0 -0.14155263215E+02 -0.68887998944E+01 -0.29447524414E+00  0.15745277271E+02  0.00000000000E+00 0.  1.
</event>
<event>
 7    1  0.2598019E-009  0.4778722E+02  0.7816164E-02  0.1312668E+00
        -11   -1    0    0    0    0  0.00000000000E+00  0.00000000000E+00  0.45593999997E+02  0.45594000000E+02  0.51100000000E-03 0.  1.
         11   -1    0    0    0    0 -0.00000000000E+00 -0.00000000000E+00 -0.45593999997E+02  0.45594000000E+02  0.51100000000E-03 0. -1.
    9900012    2    1    2    0    0  0.13942246623E+01 -0.42785622107E+02 -0.71466376749E+01  0.47787219459E+02  0.19999764799E+02 0.  0.
        -12    1    1    2    0    0 -0.13942246623E+01  0.42785622107E+02  0.71466376749E+01  0.43400780541E+02  0.00000000000E+00 0.  1.
         11    1    3    3    0    0  0.25169185136E+01 -0.36709035615E+01  0.33894138412E+01  0.55945096487E+01  0.51100000000E-03 0. -1.
        -11    1    3    3    0    0  0.13799131632E+00 -0.27769117771E+01 -0.45664003386E+01  0.53462410098E+01  0.51100000000E-03 0.  1.
         12    1    3    3    0    0 -0.12606851676E+01 -0.36337806769E+02 -0.59696511775E+01  0.36846468800E+02  0.00000000000E+00 0. -1.
</event>
<event>
 7    1  0.2598019E-009  0.4778727E+02  0.7816164E-02  0.1312668E+00
        -11   -1    0    0    0    0  0.00000000000E+00  0.00000000000E+00  0.45593999997E+02  0.45594000000E+02  0.51100000000E-03 0. -1.
         11   -1    0    0    0    0 -0.00000000000E+00 -0.00000000000E+00 -0.45593999997E+02  0.45594000000E+02  0.51100000000E-03 0.  1.
    9900012    2    1    2    0    0  0.11709541391E+02 -0.34879888004E+02  0.23019638511E+02  0.47787266090E+02  0.19999977411E+02 0.  0.
        -12    1    1    2    0    0 -0.11709541391E+02  0.34879888004E+02 -0.23019638511E+02  0.43400733910E+02  0.00000000000E+00 0.  1.
         11    1    3    3    0    0 -0.35835597466E+01 -0.57778015372E+01  0.38291215847E+00  0.68096632107E+01  0.51100000000E-03 0.  1.
        -11    1    3    3    0    0  0.52242495945E+01 -0.18017771498E+02  0.15751600369E+02  0.24495832054E+02  0.51100000000E-03 0. -1.
         12    1    3    3    0    0  0.10068851543E+02 -0.11084314969E+02  0.68851259835E+01  0.16481770825E+02  0.00000000000E+00 0. -1.
</event>
<event>
 7    1  0.2598019E-009  0.4778727E+02  0.7816164E-02  0.1312668E+00
        -11   -1    0    0    0    0  0.00000000000E+00  0.00000000000E+00  0.45593999997E+02  0.45594000000E+02  0.51100000000E-03 0. -1.
         11   -1    0    0    0    0 -0.00000000000E+00 -0.00000000000E+00 -0.45593999997E+02  0.45594000000E+02  0.51100000000E-03 0.  1.
    9900012    2    1    2    0    0 -0.33610111671E+02 -0.26009328748E+02  0.88033451102E+01  0.47787266439E+02  0.19999979003E+02 0.  0.
        -12    1    1    2    0    0  0.33610111671E+02  0.26009328748E+02 -0.88033451102E+01  0.43400733561E+02  0.00000000000E+00 0.  1.
         11    1    3    3    0    0 -0.13093020664E+02 -0.15067148561E+02 -0.45050308987E+01  0.20463173252E+02  0.51100000000E-03 0. -1.
        -11    1    3    3    0    0 -0.79107576340E+01 -0.18053520623E+01  0.61851278562E+01  0.10202704998E+02  0.51100000000E-03 0.  1.
         12    1    3    3    0    0 -0.12606333373E+02 -0.91368281248E+01  0.71232481528E+01  0.17121388190E+02  0.00000000000E+00 0. -1.
</event>
<event>
 7    1  0.2598019E-009  0.4778727E+02  0.7816164E-02  0.1312668E+00
        -11   -1    0    0    0    0  0.00000000000E+00  0.00000000000E+00  0.45593999997E+02  0.45594000000E+02  0.51100000000E-03 0. -1.
         11   -1    0    0    0    0 -0.00000000000E+00 -0.00000000000E+00 -0.45593999997E+02  0.45594000000E+02  0.51100000000E-03 0.  1.
    9900012    2    1    2    0    0  0.27347357371E+02 -0.17083746197E+02  0.29049802078E+02  0.47787270282E+02  0.19999996523E+02 0.  0.
        -12    1    1    2    0    0 -0.27347357371E+02  0.17083746197E+02 -0.29049802078E+02  0.43400729718E+02  0.00000000000E+00 0.  1.
         11    1    3    3    0    0  0.19658377749E+02 -0.16532688659E+02  0.15459047099E+02  0.29979388711E+02  0.51100000000E-03 0. -1.
        -11    1    3    3    0    0  0.35524760657E+01 -0.10825760882E+01  0.13090939594E+02  0.13607525745E+02  0.51100000000E-03 0.  1.
         12    1    3    3    0    0  0.41365035568E+01  0.53151855058E+00  0.49981538514E+00  0.42003558260E+01  0.00000000000E+00 0. -1.
</event>
<event>
 7    1  0.2598019E-009  0.4778728E+02  0.7816164E-02  0.1312668E+00
        -11   -1    0    0    0    0  0.00000000000E+00  0.00000000000E+00  0.45593999997E+02  0.45594000000E+02  0.51100000000E-03 0. -1.
         11   -1    0    0    0    0 -0.00000000000E+00 -0.00000000000E+00 -0.45593999997E+02  0.45594000000E+02  0.51100000000E-03 0.  1.
    9900012    2    1    2    0    0  0.90821867042E+01 -0.40484744243E+02  0.12732720426E+02  0.47787276490E+02  0.20000024829E+02 0.  0.
        -12    1    1    2    0    0 -0.90821867042E+01  0.40484744243E+02 -0.12732720426E+02  0.43400723510E+02  0.00000000000E+00 0.  1.
         11    1    3    3    0    0  0.88920891731E+01 -0.25253189268E+02 -0.24863838614E+00  0.26774141244E+02  0.51100000000E-03 0. -1.
        -11    1    3    3    0    0  0.19280896003E+01 -0.25108195739E+01  0.49288199581E+01  0.58579015765E+01  0.51100000000E-03 0.  1.
         12    1    3    3    0    0 -0.17379920692E+01 -0.12720735401E+02  0.80525388540E+01  0.15155233669E+02  0.00000000000E+00 0. -1.
</event>
<event>
 7    1  0.2598019E-009  0.4778727E+02  0.7816164E-02  0.1312668E+00
        -11   -1    0    0    0    0  0.00000000000E+00  0.00000000000E+00  0.45593999997E+02  0.45594000000E+02  0.51100000000E-03 0. -1.
         11   -1    0    0    0    0 -0.00000000000E+00 -0.00000000000E+00 -0.45593999997E+02  0.45594000000E+02  0.51100000000E-03 0.  1.
    9900012    2    1    2    0    0 -0.32285237181E+02  0.18417545455E+00  0.29004358324E+02  0.47787271179E+02  0.20000000612E+02 0.  0.
        -12    1    1    2    0    0  0.32285237181E+02 -0.18417545455E+00 -0.29004358324E+02  0.43400728821E+02  0.00000000000E+00 0.  1.
         11    1    3    3    0    0 -0.37438705774E+01  0.46474492434E+01  0.63434243030E+01  0.87094422048E+01  0.51100000000E-03 0. -1.
        -11    1    3    3    0    0 -0.17488995500E+02 -0.84030430977E+01  0.17954386080E+02  0.26435507876E+02  0.51100000000E-03 0.  1.
        -12    1    3    3    0    0 -0.11052371103E+02  0.39397693089E+01  0.47065479410E+01  0.12642321097E+02  0.00000000000E+00 0.  1.
</event>
<event>
 7    1  0.2598019E-009  0.4778727E+02  0.7816164E-02  0.1312668E+00
        -11   -1    0    0    0    0  0.00000000000E+00  0.00000000000E+00  0.45593999997E+02  0.45594000000E+02  0.51100000000E-03 0.  1.
         11   -1    0    0    0    0 -0.00000000000E+00 -0.00000000000E+00 -0.45593999997E+02  0.45594000000E+02  0.51100000000E-03 0. -1.
    9900012    2    1    2    0    0 -0.18475817720E+02  0.29126120575E+02 -0.26342672275E+02  0.47787272785E+02  0.20000007935E+02 0.  0.
        -12    1    1    2    0    0  0.18475817720E+02 -0.29126120575E+02  0.26342672275E+02  0.43400727215E+02  0.00000000000E+00 0.  1.
         11    1    3    3    0    0 -0.14188655488E+02  0.29307361283E+02 -0.24383903543E+02  0.40679406610E+02  0.51100000000E-03 0. -1.
        -11    1    3    3    0    0 -0.15742025789E+01  0.72648572092E+00  0.17236649629E+01  0.24447732876E+01  0.51100000000E-03 0.  1.
         12    1    3    3    0    0 -0.27129596535E+01 -0.90772642839E+00 -0.36824336953E+01  0.46630928868E+01  0.00000000000E+00 0. -1.
</event>
<event>
 7    1  0.2598019E-009  0.4778727E+02  0.7816164E-02  0.1312668E+00
        -11   -1    0    0    0    0  0.00000000000E+00  0.00000000000E+00  0.45593999997E+02  0.45594000000E+02  0.51100000000E-03 0.  1.
         11   -1    0    0    0    0 -0.00000000000E+00 -0.00000000000E+00 -0.45593999997E+02  0.45594000000E+02  0.51100000000E-03 0. -1.
    9900012    2    1    2    0    0  0.42746099077E+02 -0.72934384218E+01 -0.17888852298E+01  0.47787270275E+02  0.19999996492E+02 0.  0.
        -12    1    1    2    0    0 -0.42746099077E+02  0.72934384218E+01  0.17888852298E+01  0.43400729725E+02  0.00000000000E+00 0.  1.
         11    1    3    3    0    0  0.96266235592E+01  0.56602829462E+01 -0.33129086254E+01  0.11648435432E+02  0.51100000000E-03 0. -1.
        -11    1    3    3    0    0  0.18511768183E+02 -0.88601109926E+01  0.35699946011E+01  0.20831034294E+02  0.51100000000E-03 0.  1.
         12    1    3    3    0    0  0.14607707334E+02 -0.40936103755E+01 -0.20459712055E+01  0.15307800549E+02  0.00000000000E+00 0. -1.
</event>
<event>
 7    1  0.2598019E-009  0.4778727E+02  0.7816164E-02  0.1312668E+00
        -11   -1    0    0    0    0  0.00000000000E+00  0.00000000000E+00  0.45593999997E+02  0.45594000000E+02  0.51100000000E-03 0.  1.
         11   -1    0    0    0    0 -0.00000000000E+00 -0.00000000000E+00 -0.45593999997E+02  0.45594000000E+02  0.51100000000E-03 0. -1.
    9900012    2    1    2    0    0 -0.81468313787E+01 -0.56560820913E+01 -0.42252350147E+02  0.47787271676E+02  0.20000002880E+02 0.  0.
        -12    1    1    2    0    0  0.81468313787E+01  0.56560820913E+01  0.42252350147E+02  0.43400728324E+02  0.00000000000E+00 0.  1.
         11    1    3    3    0    0 -0.46818414603E+01 -0.96626000152E+01 -0.14630829769E+02  0.18147910583E+02  0.51100000000E-03 0. -1.
        -11    1    3    3    0    0 -0.36971451207E+01 -0.19346356107E+01 -0.67333713842E+01  0.79214889666E+01  0.51100000000E-03 0.  1.
         12    1    3    3    0    0  0.23215520228E+00  0.59411535346E+01 -0.20888148993E+02  0.21717872127E+02  0.00000000000E+00 0. -1.
</event>
<event>
 7    1  0.2598019E-009  0.4778727E+02  0.7816164E-02  0.1312668E+00
        -11   -1    0    0    0    0  0.00000000000E+00  0.00000000000E+00  0.45593999997E+02  0.45594000000E+02  0.51100000000E-03 0.  1.
         11   -1    0    0    0    0 -0.00000000000E+00 -0.00000000000E+00 -0.45593999997E+02  0.45594000000E+02  0.51100000000E-03 0. -1.
    9900012    2    1    2    0    0 -0.33564163386E+02 -0.64199501986E+00 -0.27507415971E+02  0.47787272416E+02  0.20000006256E+02 0.  0.
        -12    1    1    2    0    0  0.33564163386E+02  0.64199501986E+00  0.27507415971E+02  0.43400727584E+02  0.00000000000E+00 0.  1.
         11    1    3    3    0    0 -0.18053239967E+02 -0.62334228309E+01 -0.14660926116E+02  0.24077329344E+02  0.51100000000E-03 0. -1.
        -11    1    3    3    0    0 -0.16546752670E+02  0.67317144487E+01 -0.99971272933E+01  0.20470797682E+02  0.51100000000E-03 0.  1.
        -12    1    3    3    0    0  0.10358292519E+01 -0.11402866377E+01 -0.28493625608E+01  0.32391453901E+01  0.00000000000E+00 0.  1.
</event>
<event>
 7    1  0.2598019E-009  0.4778728E+02  0.7816164E-02  0.1312668E+00
        -11   -1    0    0    0    0  0.00000000000E+00  0.00000000000E+00  0.45593999997E+02  0.45594000000E+02  0.51100000000E-03 0. -1.
         11   -1    0    0    0    0 -0.00000000000E+00 -0.00000000000E+00 -0.45593999997E+02  0.45594000000E+02  0.51100000000E-03 0.  1.
    9900012    2    1    2    0    0  0.19452917109E+02  0.18224168901E+02  0.34250348371E+02  0.47787277889E+02  0.20000031209E+02 0.  0.
        -12    1    1    2    0    0 -0.19452917109E+02 -0.18224168901E+02 -0.34250348371E+02  0.43400722111E+02  0.00000000000E+00 0.  1.
         11    1    3    3    0    0  0.50174222138E+01  0.76860916814E+01  0.46788636387E+01  0.10302538339E+02  0.51100000000E-03 0. -1.
        -11    1    3    3    0    0  0.11751634415E+02  0.67689222735E+01  0.87134830454E+01  0.16119677640E+02  0.51100000000E-03 0.  1.
         12    1    3    3    0    0  0.26838604803E+01  0.37691549461E+01  0.20858001687E+02  0.21365061911E+02  0.00000000000E+00 0. -1.
</event>
<event>
 7    1  0.2598019E-009  0.4778727E+02  0.7816164E-02  0.1312668E+00
        -11   -1    0    0    0    0  0.00000000000E+00  0.00000000000E+00  0.45593999997E+02  0.45594000000E+02  0.51100000000E-03 0.  1.
         11   -1    0    0    0    0 -0.00000000000E+00 -0.00000000000E+00 -0.45593999997E+02  0.45594000000E+02  0.51100000000E-03 0. -1.
    9900012    2    1    2    0    0 -0.43285981731E+02 -0.30784924353E+01 -0.68552073979E+00  0.47787271104E+02  0.20000000270E+02 0.  0.
        -12    1    1    2    0    0  0.43285981731E+02  0.30784924353E+01  0.68552073979E+00  0.43400728896E+02  0.00000000000E+00 0.  1.
         11    1    3    3    0    0 -0.27642499081E+02 -0.40878618126E+01  0.36594411659E+00  0.27945523523E+02  0.51100000000E-03 0. -1.
        -11    1    3    3    0    0 -0.13033271471E+01  0.46785867600E+01 -0.13350935531E+01  0.50368949543E+01  0.51100000000E-03 0.  1.
        -12    1    3    3    0    0 -0.14340155503E+02 -0.36692173827E+01  0.28362869674E+00  0.14804852626E+02  0.00000000000E+00 0.  1.
</event>
<event>
 7    1  0.2598019E-009  0.4778727E+02  0.7816164E-02  0.1312668E+00
        -11   -1    0    0    0    0  0.00000000000E+00  0.00000000000E+00  0.45593999997E+02  0.45594000000E+02  0.51100000000E-03 0. -1.
         11   -1    0    0    0    0 -0.00000000000E+00 -0.00000000000E+00 -0.45593999997E+02  0.45594000000E+02  0.51100000000E-03 0.  1.
    9900012    2    1    2    0    0  0.40183171835E+02 -0.19154826452E+01  0.16287025216E+02  0.47787267715E+02  0.19999984822E+02 0.  0.
        -12    1    1    2    0    0 -0.40183171835E+02  0.19154826452E+01 -0.16287025216E+02  0.43400732285E+02  0.00000000000E+00 0.  1.
         11    1    3    3    0    0  0.15467936028E+01 -0.15328801463E+01  0.13459037817E+01  0.25600291489E+01  0.51100000000E-03 0. -1.
        -11    1    3    3    0    0  0.59904393326E+01  0.69993743033E+01  0.29409140328E+01  0.96708624044E+01  0.51100000000E-03 0.  1.
        -12    1    3    3    0    0  0.32645938899E+02 -0.73819768022E+01  0.12000207401E+02  0.35556376162E+02  0.00000000000E+00 0.  1.
</event>
<event>
 7    1  0.2598019E-009  0.4778727E+02  0.7816164E-02  0.1312668E+00
        -11   -1    0    0    0    0  0.00000000000E+00  0.00000000000E+00  0.45593999997E+02  0.45594000000E+02  0.51100000000E-03 0. -1.
         11   -1    0    0    0    0 -0.00000000000E+00 -0.00000000000E+00 -0.45593999997E+02  0.45594000000E+02  0.51100000000E-03 0.  1.
    9900012    2    1    2    0    0  0.13721399748E+02 -0.40680055156E+02  0.63623572041E+01  0.47787270885E+02  0.19999999272E+02 0.  0.
        -12    1    1    2    0    0 -0.13721399748E+02  0.40680055156E+02 -0.63623572041E+01  0.43400729115E+02  0.00000000000E+00 0.  1.
         11    1    3    3    0    0  0.67119904866E+01 -0.54015608140E+01  0.85270894623E+00  0.86576433472E+01  0.51100000000E-03 0. -1.
        -11    1    3    3    0    0  0.57150575925E+00 -0.16236980236E+02 -0.42375535400E+01  0.16790563012E+02  0.51100000000E-03 0.  1.
        -12    1    3    3    0    0  0.64379035026E+01 -0.19041514106E+02  0.97472017979E+01  0.22339064525E+02  0.00000000000E+00 0.  1.
</event>
<event>
 7    1  0.2598019E-009  0.4778728E+02  0.7816164E-02  0.1312668E+00
        -11   -1    0    0    0    0  0.00000000000E+00  0.00000000000E+00  0.45593999997E+02  0.45594000000E+02  0.51100000000E-03 0.  1.
         11   -1    0    0    0    0 -0.00000000000E+00 -0.00000000000E+00 -0.45593999997E+02  0.45594000000E+02  0.51100000000E-03 0. -1.
    9900012    2    1    2    0    0  0.12889817877E+02  0.35582420074E+02 -0.21245382868E+02  0.47787282075E+02  0.20000050293E+02 0.  0.
        -12    1    1    2    0    0 -0.12889817877E+02 -0.35582420074E+02  0.21245382868E+02  0.43400717925E+02  0.00000000000E+00 0.  1.
         11    1    3    3    0    0 -0.36859524475E+01  0.42156864502E+01 -0.55930445744E+01  0.79145691963E+01  0.51100000000E-03 0. -1.
        -11    1    3    3    0    0  0.18707337424E+01  0.54108382267E+01  0.83843607053E+00  0.57861723407E+01  0.51100000000E-03 0.  1.
         12    1    3    3    0    0  0.14705036582E+02  0.25955895397E+02 -0.16490774364E+02  0.34086540538E+02  0.00000000000E+00 0. -1.
</event>
<event>
 7    1  0.2598019E-009  0.4778727E+02  0.7816164E-02  0.1312668E+00
        -11   -1    0    0    0    0  0.00000000000E+00  0.00000000000E+00  0.45593999997E+02  0.45594000000E+02  0.51100000000E-03 0.  1.
         11   -1    0    0    0    0 -0.00000000000E+00 -0.00000000000E+00 -0.45593999997E+02  0.45594000000E+02  0.51100000000E-03 0. -1.
    9900012    2    1    2    0    0  0.40906124199E+02  0.11007338681E+02 -0.94419508168E+01  0.47787274925E+02  0.20000017694E+02 0.  0.
        -12    1    1    2    0    0 -0.40906124199E+02 -0.11007338681E+02  0.94419508168E+01  0.43400725075E+02  0.00000000000E+00 0.  1.
         11    1    3    3    0    0  0.24643774688E+01  0.21150150201E+01  0.36904920996E+01  0.49159106016E+01  0.51100000000E-03 0.  1.
        -11    1    3    3    0    0  0.25175574165E+02  0.97806790250E+01 -0.11914114702E+02  0.29519778897E+02  0.51100000000E-03 0. -1.
         12    1    3    3    0    0  0.13266172565E+02 -0.88835536382E+00 -0.12183282145E+01  0.13351585427E+02  0.00000000000E+00 0. -1.
</event>
<event>
 7    1  0.2598019E-009  0.4778727E+02  0.7816164E-02  0.1312668E+00
        -11   -1    0    0    0    0  0.00000000000E+00  0.00000000000E+00  0.45593999997E+02  0.45594000000E+02  0.51100000000E-03 0. -1.
         11   -1    0    0    0    0 -0.00000000000E+00 -0.00000000000E+00 -0.45593999997E+02  0.45594000000E+02  0.51100000000E-03 0.  1.
    9900012    2    1    2    0    0  0.87180624299E+01 -0.30351864394E+02  0.29772190441E+02  0.47787267191E+02  0.19999982432E+02 0.  0.
        -12    1    1    2    0    0 -0.87180624299E+01  0.30351864394E+02 -0.29772190441E+02  0.43400732809E+02  0.00000000000E+00 0.  1.
         11    1    3    3    0    0  0.12220118988E+02 -0.25953905121E+02  0.24710809710E+02  0.37862390520E+02  0.51100000000E-03 0. -1.
        -11    1    3    3    0    0 -0.40829327275E+01 -0.55085855325E+01  0.29390491094E+01  0.74600847284E+01  0.51100000000E-03 0.  1.
        -12    1    3    3    0    0  0.58087616988E+00  0.11106262594E+01  0.21223316212E+01  0.24647919432E+01  0.00000000000E+00 0.  1.
</event>
<event>
 7    1  0.2598019E-009  0.4778727E+02  0.7816164E-02  0.1312668E+00
        -11   -1    0    0    0    0  0.00000000000E+00  0.00000000000E+00  0.45593999997E+02  0.45594000000E+02  0.51100000000E-03 0.  1.
         11   -1    0    0    0    0 -0.00000000000E+00 -0.00000000000E+00 -0.45593999997E+02  0.45594000000E+02  0.51100000000E-03 0. -1.
    9900012    2    1    2    0    0 -0.20961457420E+02 -0.23283684015E+02 -0.30035155435E+02  0.47787271890E+02  0.20000003854E+02 0.  0.
        -12    1    1    2    0    0  0.20961457420E+02  0.23283684015E+02  0.30035155435E+02  0.43400728110E+02  0.00000000000E+00 0.  1.
         11    1    3    3    0    0 -0.10778018876E+02 -0.10346219518E+02 -0.12557517321E+02  0.19516690056E+02  0.51100000000E-03 0. -1.
        -11    1    3    3    0    0 -0.98100999822E+01 -0.10672584709E+02 -0.20102174479E+02  0.24783856542E+02  0.51100000000E-03 0.  1.
        -12    1    3    3    0    0 -0.37333856181E+00 -0.22648797871E+01  0.26245363647E+01  0.34867252919E+01  0.00000000000E+00 0.  1.
</event>
<event>
 7    1  0.2598019E-009  0.4778724E+02  0.7816164E-02  0.1312668E+00
        -11   -1    0    0    0    0  0.00000000000E+00  0.00000000000E+00  0.45593999997E+02  0.45594000000E+02  0.51100000000E-03 0.  1.
         11   -1    0    0    0    0 -0.00000000000E+00 -0.00000000000E+00 -0.45593999997E+02  0.45594000000E+02  0.51100000000E-03 0. -1.
    9900012    2    1    2    0    0  0.13229179013E+02  0.23319400361E+02 -0.34129468393E+02  0.47787237065E+02  0.19999845074E+02 0.  0.
        -12    1    1    2    0    0 -0.13229179013E+02 -0.23319400361E+02  0.34129468393E+02  0.43400762935E+02  0.00000000000E+00 0.  1.
         11    1    3    3    0    0  0.16477412716E+02  0.16495514459E+02 -0.19311793409E+02  0.30274617950E+02  0.51100000000E-03 0. -1.
        -11    1    3    3    0    0 -0.37502169944E+01  0.32989561984E+01 -0.49917634394E+01  0.70615113114E+01  0.51100000000E-03 0.  1.
        -12    1    3    3    0    0  0.50198329102E+00  0.35249297028E+01 -0.98259115450E+01  0.10451107804E+02  0.00000000000E+00 0.  1.
</event>
<event>
 7    1  0.2598019E-009  0.4778727E+02  0.7816164E-02  0.1312668E+00
        -11   -1    0    0    0    0  0.00000000000E+00  0.00000000000E+00  0.45593999997E+02  0.45594000000E+02  0.51100000000E-03 0.  1.
         11   -1    0    0    0    0 -0.00000000000E+00 -0.00000000000E+00 -0.45593999997E+02  0.45594000000E+02  0.51100000000E-03 0. -1.
    9900012    2    1    2    0    0  0.18909140836E+02 -0.38984652319E+02 -0.25028902794E+01  0.47787272087E+02  0.20000004755E+02 0.  0.
        -12    1    1    2    0    0 -0.18909140836E+02  0.38984652319E+02  0.25028902794E+01  0.43400727913E+02  0.00000000000E+00 0.  1.
         11    1    3    3    0    0  0.89120341012E+01 -0.29937576167E+02 -0.82609433869E+01  0.32309843771E+02  0.51100000000E-03 0. -1.
        -11    1    3    3    0    0  0.46830212737E+01 -0.17220661594E+01  0.50851957025E+00  0.50154553654E+01  0.51100000000E-03 0.  1.
         12    1    3    3    0    0  0.53140854606E+01 -0.73250099930E+01  0.52495335372E+01  0.10461972952E+02  0.00000000000E+00 0. -1.
</event>
<event>
 7    1  0.2598019E-009  0.4778721E+02  0.7816164E-02  0.1312668E+00
        -11   -1    0    0    0    0  0.00000000000E+00  0.00000000000E+00  0.45593999997E+02  0.45594000000E+02  0.51100000000E-03 0.  1.
         11   -1    0    0    0    0 -0.00000000000E+00 -0.00000000000E+00 -0.45593999997E+02  0.45594000000E+02  0.51100000000E-03 0. -1.
    9900012    2    1    2    0    0  0.43557077072E+01 -0.14749161826E+01 -0.43156472775E+02  0.47787208421E+02  0.19999714471E+02 0.  0.
        -12    1    1    2    0    0 -0.43557077072E+01  0.14749161826E+01  0.43156472775E+02  0.43400791579E+02  0.00000000000E+00 0.  1.
         11    1    3    3    0    0  0.72223448416E+01 -0.32592657633E+01 -0.74753495214E+01  0.10893389236E+02  0.51100000000E-03 0. -1.
        -11    1    3    3    0    0 -0.43945657834E+01 -0.10739550610E+01 -0.96049427383E+01  0.10616991719E+02  0.51100000000E-03 0.  1.
         12    1    3    3    0    0  0.15279286490E+01  0.28583046418E+01 -0.26076180515E+02  0.26276827465E+02  0.00000000000E+00 0. -1.
</event>
<event>
 7    1  0.2598019E-009  0.4778727E+02  0.7816164E-02  0.1312668E+00
        -11   -1    0    0    0    0  0.00000000000E+00  0.00000000000E+00  0.45593999997E+02  0.45594000000E+02  0.51100000000E-03 0.  1.
         11   -1    0    0    0    0 -0.00000000000E+00 -0.00000000000E+00 -0.45593999997E+02  0.45594000000E+02  0.51100000000E-03 0. -1.
    9900012    2    1    2    0    0  0.27399262217E+02  0.24175540569E+02 -0.23418950928E+02  0.47787267352E+02  0.19999983164E+02 0.  0.
        -12    1    1    2    0    0 -0.27399262217E+02 -0.24175540569E+02  0.23418950928E+02  0.43400732648E+02  0.00000000000E+00 0.  1.
         11    1    3    3    0    0  0.15762283600E+02  0.50984563922E+01 -0.17550953390E+02  0.24134618435E+02  0.51100000000E-03 0. -1.
        -11    1    3    3    0    0  0.33630920353E+01  0.10065384956E+02 -0.36280418495E+01  0.11215393451E+02  0.51100000000E-03 0.  1.
         12    1    3    3    0    0  0.82738865815E+01  0.90116992209E+01 -0.22399556887E+01  0.12437255465E+02  0.00000000000E+00 0. -1.
</event>
<event>
 7    1  0.2598019E-009  0.4778727E+02  0.7816164E-02  0.1312668E+00
        -11   -1    0    0    0    0  0.00000000000E+00  0.00000000000E+00  0.45593999997E+02  0.45594000000E+02  0.51100000000E-03 0.  1.
         11   -1    0    0    0    0 -0.00000000000E+00 -0.00000000000E+00 -0.45593999997E+02  0.45594000000E+02  0.51100000000E-03 0. -1.
    9900012    2    1    2    0    0 -0.42107210386E+02  0.24188740479E+00 -0.10514158536E+02  0.47787271830E+02  0.20000003580E+02 0.  0.
        -12    1    1    2    0    0  0.42107210386E+02 -0.24188740479E+00  0.10514158536E+02  0.43400728170E+02  0.00000000000E+00 0.  1.
         11    1    3    3    0    0 -0.39397235209E+02  0.45307529873E+01 -0.65946473571E+01  0.40201483042E+02  0.51100000000E-03 0. -1.
        -11    1    3    3    0    0 -0.27434749102E+01 -0.48857025690E+01 -0.26833042874E+01  0.62126376311E+01  0.51100000000E-03 0.  1.
         12    1    3    3    0    0  0.33499733282E-01  0.59683698645E+00 -0.12362068915E+01  0.13731511567E+01  0.00000000000E+00 0. -1.
</event>
<event>
 7    1  0.2598019E-009  0.4778727E+02  0.7816164E-02  0.1312668E+00
        -11   -1    0    0    0    0  0.00000000000E+00  0.00000000000E+00  0.45593999997E+02  0.45594000000E+02  0.51100000000E-03 0. -1.
         11   -1    0    0    0    0 -0.00000000000E+00 -0.00000000000E+00 -0.45593999997E+02  0.45594000000E+02  0.51100000000E-03 0.  1.
    9900012    2    1    2    0    0 -0.22472788458E+01 -0.43342361426E+02 -0.11252843699E+00  0.47787271679E+02  0.20000002892E+02 0.  0.
        -12    1    1    2    0    0  0.22472788458E+01  0.43342361426E+02  0.11252843699E+00  0.43400728321E+02  0.00000000000E+00 0.  1.
         11    1    3    3    0    0 -0.36179000253E+00 -0.21262322392E+02 -0.74538959300E+01  0.22533925763E+02  0.51100000000E-03 0. -1.
        -11    1    3    3    0    0  0.22706528949E+01 -0.10266985380E+02  0.71742815821E+01  0.12729382147E+02  0.51100000000E-03 0.  1.
        -12    1    3    3    0    0 -0.41561417382E+01 -0.11813053654E+02  0.16708591097E+00  0.12523963768E+02  0.00000000000E+00 0.  1.
</event>
<event>
 7    1  0.2598019E-009  0.4778727E+02  0.7816164E-02  0.1312668E+00
        -11   -1    0    0    0    0  0.00000000000E+00  0.00000000000E+00  0.45593999997E+02  0.45594000000E+02  0.51100000000E-03 0.  1.
         11   -1    0    0    0    0 -0.00000000000E+00 -0.00000000000E+00 -0.45593999997E+02  0.45594000000E+02  0.51100000000E-03 0. -1.
    9900012    2    1    2    0    0  0.92089476747E+01 -0.41975859321E+02 -0.60700784615E+01  0.47787270334E+02  0.19999996759E+02 0.  0.
        -12    1    1    2    0    0 -0.92089476747E+01  0.41975859321E+02  0.60700784615E+01  0.43400729666E+02  0.00000000000E+00 0.  1.
         11    1    3    3    0    0  0.85867500138E+01 -0.21704943670E+02  0.43206244173E+01  0.23738252908E+02  0.51100000000E-03 0. -1.
        -11    1    3    3    0    0  0.47058605425E+00 -0.48997079420E+01 -0.65700091196E+01  0.82093610740E+01  0.51100000000E-03 0.  1.
         12    1    3    3    0    0  0.15161160665E+00 -0.15371207710E+02 -0.38206937593E+01  0.15839656351E+02  0.00000000000E+00 0. -1.
</event>
<event>
 7    1  0.2598019E-009  0.4778727E+02  0.7816164E-02  0.1312668E+00
        -11   -1    0    0    0    0  0.00000000000E+00  0.00000000000E+00  0.45593999997E+02  0.45594000000E+02  0.51100000000E-03 0. -1.
         11   -1    0    0    0    0 -0.00000000000E+00 -0.00000000000E+00 -0.45593999997E+02  0.45594000000E+02  0.51100000000E-03 0.  1.
    9900012    2    1    2    0    0  0.19068481072E+02 -0.34585045781E+02  0.17996968014E+02  0.47787271667E+02  0.20000002841E+02 0.  0.
        -12    1    1    2    0    0 -0.19068481072E+02  0.34585045781E+02 -0.17996968014E+02  0.43400728333E+02  0.00000000000E+00 0.  1.
         11    1    3    3    0    0  0.10927387197E+02 -0.22245765602E+02  0.55423664045E+01  0.25396844367E+02  0.51100000000E-03 0. -1.
        -11    1    3    3    0    0  0.49136859250E+01 -0.10953206397E+02  0.14094420390E+02  0.18514041324E+02  0.51100000000E-03 0.  1.
        -12    1    3    3    0    0  0.32274079506E+01 -0.13860737817E+01 -0.16398187802E+01  0.38763859767E+01  0.00000000000E+00 0.  1.
</event>
<event>
 7    1  0.2598019E-009  0.4778726E+02  0.7816164E-02  0.1312668E+00
        -11   -1    0    0    0    0  0.00000000000E+00  0.00000000000E+00  0.45593999997E+02  0.45594000000E+02  0.51100000000E-03 0. -1.
         11   -1    0    0    0    0 -0.00000000000E+00 -0.00000000000E+00 -0.45593999997E+02  0.45594000000E+02  0.51100000000E-03 0.  1.
    9900012    2    1    2    0    0 -0.33723372874E+01 -0.41533892070E+02  0.12132068348E+02  0.47787263467E+02  0.19999965451E+02 0.  0.
        -12    1    1    2    0    0  0.33723372874E+01  0.41533892070E+02 -0.12132068348E+02  0.43400736533E+02  0.00000000000E+00 0.  1.
         11    1    3    3    0    0 -0.19668118824E+00 -0.13338554728E+02 -0.30075487794E+01  0.13674833661E+02  0.51100000000E-03 0. -1.
        -11    1    3    3    0    0 -0.14251680763E+01 -0.28702515672E+02  0.14422807455E+02  0.32154049280E+02  0.51100000000E-03 0.  1.
        -12    1    3    3    0    0 -0.17504880229E+01  0.50717833110E+00  0.71680967217E+00  0.19583805258E+01  0.00000000000E+00 0.  1.
</event>
<event>
 7    1  0.2598019E-009  0.4778727E+02  0.7816164E-02  0.1312668E+00
        -11   -1    0    0    0    0  0.00000000000E+00  0.00000000000E+00  0.45593999997E+02  0.45594000000E+02  0.51100000000E-03 0. -1.
         11   -1    0    0    0    0 -0.00000000000E+00 -0.00000000000E+00 -0.45593999997E+02  0.45594000000E+02  0.51100000000E-03 0.  1.
    9900012    2    1    2    0    0 -0.16098194015E+02 -0.23004369119E+02  0.33094873508E+02  0.47787268420E+02  0.19999988036E+02 0.  0.
        -12    1    1    2    0    0  0.16098194015E+02  0.23004369119E+02 -0.33094873508E+02  0.43400731580E+02  0.00000000000E+00 0.  1.
         11    1    3    3    0    0 -0.15727625465E+02 -0.89518114845E+01  0.22567635424E+02  0.28927345203E+02  0.51100000000E-03 0. -1.
        -11    1    3    3    0    0  0.73280253484E+00 -0.12578610697E+02  0.11240785190E+02  0.16885310142E+02  0.51100000000E-03 0.  1.
        -12    1    3    3    0    0 -0.11033710844E+01 -0.14739469376E+01 -0.71354710596E+00  0.19746130753E+01  0.00000000000E+00 0.  1.
</event>
<event>
 7    1  0.2598019E-009  0.4778726E+02  0.7816164E-02  0.1312668E+00
        -11   -1    0    0    0    0  0.00000000000E+00  0.00000000000E+00  0.45593999997E+02  0.45594000000E+02  0.51100000000E-03 0.  1.
         11   -1    0    0    0    0 -0.00000000000E+00 -0.00000000000E+00 -0.45593999997E+02  0.45594000000E+02  0.51100000000E-03 0. -1.
    9900012    2    1    2    0    0 -0.23112027526E+02 -0.22698537439E+01 -0.36664775908E+02  0.47787264467E+02  0.19999970011E+02 0.  0.
        -12    1    1    2    0    0  0.23112027526E+02  0.22698537439E+01  0.36664775908E+02  0.43400735533E+02  0.00000000000E+00 0.  1.
         11    1    3    3    0    0 -0.82024265256E+01  0.91191129011E+00 -0.24581460738E+02  0.25929897713E+02  0.51100000000E-03 0. -1.
        -11    1    3    3    0    0 -0.27263279093E+01 -0.17310405749E+01  0.14934381799E+01  0.35580504773E+01  0.51100000000E-03 0.  1.
        -12    1    3    3    0    0 -0.12183273091E+02 -0.14507244591E+01 -0.13576753350E+02  0.18299316277E+02  0.00000000000E+00 0.  1.
</event>
<event>
 7    1  0.2598019E-009  0.4778727E+02  0.7816164E-02  0.1312668E+00
        -11   -1    0    0    0    0  0.00000000000E+00  0.00000000000E+00  0.45593999997E+02  0.45594000000E+02  0.51100000000E-03 0.  1.
         11   -1    0    0    0    0 -0.00000000000E+00 -0.00000000000E+00 -0.45593999997E+02  0.45594000000E+02  0.51100000000E-03 0. -1.
    9900012    2    1    2    0    0  0.21243447878E+02 -0.37398725248E+02 -0.58029620970E+01  0.47787273082E+02  0.20000009290E+02 0.  0.
        -12    1    1    2    0    0 -0.21243447878E+02  0.37398725248E+02  0.58029620970E+01  0.43400726918E+02  0.00000000000E+00 0.  1.
         11    1    3    3    0    0  0.24726826617E+02 -0.27981737979E+02 -0.44555435359E+01  0.37606455341E+02  0.51100000000E-03 0.  1.
        -11    1    3    3    0    0 -0.18415675402E+01 -0.55416338521E+01 -0.12446089693E+01  0.59707728564E+01  0.51100000000E-03 0. -1.
        -12    1    3    3    0    0 -0.16418111986E+01 -0.38753534167E+01 -0.10280959176E+00  0.42100448843E+01  0.00000000000E+00 0.  1.
</event>
<event>
 7    1  0.2598019E-009  0.4778729E+02  0.7816164E-02  0.1312668E+00
        -11   -1    0    0    0    0  0.00000000000E+00  0.00000000000E+00  0.45593999997E+02  0.45594000000E+02  0.51100000000E-03 0.  1.
         11   -1    0    0    0    0 -0.00000000000E+00 -0.00000000000E+00 -0.45593999997E+02  0.45594000000E+02  0.51100000000E-03 0. -1.
    9900012    2    1    2    0    0 -0.25207951617E+02  0.31941444679E+02 -0.15097170559E+02  0.47787294110E+02  0.20000105163E+02 0.  0.
        -12    1    1    2    0    0  0.25207951617E+02 -0.31941444679E+02  0.15097170559E+02  0.43400705890E+02  0.00000000000E+00 0.  1.
         11    1    3    3    0    0 -0.47921323935E+01  0.14217057588E+02 -0.79901874098E+00  0.15024236771E+02  0.51100000000E-03 0. -1.
        -11    1    3    3    0    0 -0.63526080336E+01  0.65482531834E+01 -0.11345533540E+02  0.14558721790E+02  0.51100000000E-03 0.  1.
        -12    1    3    3    0    0 -0.14063211190E+02  0.11176133908E+02 -0.29526182785E+01  0.18204335549E+02  0.00000000000E+00 0.  1.
</event>
<event>
 7    1  0.2598019E-009  0.4778727E+02  0.7816164E-02  0.1312668E+00
        -11   -1    0    0    0    0  0.00000000000E+00  0.00000000000E+00  0.45593999997E+02  0.45594000000E+02  0.51100000000E-03 0.  1.
         11   -1    0    0    0    0 -0.00000000000E+00 -0.00000000000E+00 -0.45593999997E+02  0.45594000000E+02  0.51100000000E-03 0. -1.
    9900012    2    1    2    0    0 -0.24918618885E+02  0.13877979786E+02 -0.32712190423E+02  0.47787270832E+02  0.19999999032E+02 0.  0.
        -12    1    1    2    0    0  0.24918618885E+02 -0.13877979786E+02  0.32712190423E+02  0.43400729168E+02  0.00000000000E+00 0.  1.
         11    1    3    3    0    0 -0.90110668160E+01  0.54191605914E+01 -0.19869909254E+02  0.22480656589E+02  0.51100000000E-03 0. -1.
        -11    1    3    3    0    0 -0.10352627449E+02  0.51094083712E+01 -0.73134646262E+00  0.11567965115E+02  0.51100000000E-03 0.  1.
        -12    1    3    3    0    0 -0.55549246201E+01  0.33494108231E+01 -0.12110934706E+02  0.13738649128E+02  0.00000000000E+00 0.  1.
</event>
<event>
 7    1  0.2598019E-009  0.4778727E+02  0.7816164E-02  0.1312668E+00
        -11   -1    0    0    0    0  0.00000000000E+00  0.00000000000E+00  0.45593999997E+02  0.45594000000E+02  0.51100000000E-03 0.  1.
         11   -1    0    0    0    0 -0.00000000000E+00 -0.00000000000E+00 -0.45593999997E+02  0.45594000000E+02  0.51100000000E-03 0. -1.
    9900012    2    1    2    0    0 -0.21468886544E+02  0.33562745176E+02 -0.17211977907E+02  0.47787272625E+02  0.20000007205E+02 0.  0.
        -12    1    1    2    0    0  0.21468886544E+02 -0.33562745176E+02  0.17211977907E+02  0.43400727375E+02  0.00000000000E+00 0.  1.
         11    1    3    3    0    0 -0.10475630556E+02  0.11610026109E+02  0.34970787092E+00  0.15641414183E+02  0.51100000000E-03 0. -1.
        -11    1    3    3    0    0  0.76646647729E+00  0.98188636583E+01 -0.82814025332E+01  0.12867757481E+02  0.51100000000E-03 0.  1.
        -12    1    3    3    0    0 -0.11759722466E+02  0.12133855409E+02 -0.92802832449E+01  0.19278100961E+02  0.00000000000E+00 0.  1.
</event>
<event>
 7    1  0.2598019E-009  0.4778727E+02  0.7816164E-02  0.1312668E+00
        -11   -1    0    0    0    0  0.00000000000E+00  0.00000000000E+00  0.45593999997E+02  0.45594000000E+02  0.51100000000E-03 0. -1.
         11   -1    0    0    0    0 -0.00000000000E+00 -0.00000000000E+00 -0.45593999997E+02  0.45594000000E+02  0.51100000000E-03 0.  1.
    9900012    2    1    2    0    0 -0.35970007110E+02  0.24241811102E+02 -0.14547725179E+01  0.47787272125E+02  0.20000004928E+02 0.  0.
        -12    1    1    2    0    0  0.35970007110E+02 -0.24241811102E+02  0.14547725179E+01  0.43400727875E+02  0.00000000000E+00 0.  1.
         11    1    3    3    0    0 -0.61607530873E+01  0.13106523888E+01 -0.38445268012E+01  0.73792326751E+01  0.51100000000E-03 0. -1.
        -11    1    3    3    0    0 -0.10898148904E+02  0.63890858946E+01 -0.59108156680E+01  0.13947322690E+02  0.51100000000E-03 0.  1.
         12    1    3    3    0    0 -0.18911105119E+02  0.16542072818E+02  0.83005699513E+01  0.26460716760E+02  0.00000000000E+00 0. -1.
</event>
<event>
 7    1  0.2598019E-009  0.4778727E+02  0.7816164E-02  0.1312668E+00
        -11   -1    0    0    0    0  0.00000000000E+00  0.00000000000E+00  0.45593999997E+02  0.45594000000E+02  0.51100000000E-03 0.  1.
         11   -1    0    0    0    0 -0.00000000000E+00 -0.00000000000E+00 -0.45593999997E+02  0.45594000000E+02  0.51100000000E-03 0. -1.
    9900012    2    1    2    0    0 -0.35877516011E+02  0.53768300586E+01 -0.23822618780E+02  0.47787267033E+02  0.19999981710E+02 0.  0.
        -12    1    1    2    0    0  0.35877516011E+02 -0.53768300586E+01  0.23822618780E+02  0.43400732967E+02  0.00000000000E+00 0.  1.
         11    1    3    3    0    0 -0.12084417188E+02  0.12156532115E+01 -0.50517114707E+01  0.13154114966E+02  0.51100000000E-03 0. -1.
        -11    1    3    3    0    0 -0.60161377184E+01  0.46856035600E+01  0.13876480534E+01  0.77507651977E+01  0.51100000000E-03 0.  1.
        -12    1    3    3    0    0 -0.17776961104E+02 -0.52442671283E+00 -0.20158555362E+02  0.26882386869E+02  0.00000000000E+00 0.  1.
</event>
<event>
 7    1  0.2598019E-009  0.4778727E+02  0.7816164E-02  0.1312668E+00
        -11   -1    0    0    0    0  0.00000000000E+00  0.00000000000E+00  0.45593999997E+02  0.45594000000E+02  0.51100000000E-03 0.  1.
         11   -1    0    0    0    0 -0.00000000000E+00 -0.00000000000E+00 -0.45593999997E+02  0.45594000000E+02  0.51100000000E-03 0. -1.
    9900012    2    1    2    0    0  0.37050596501E+02  0.20063961188E+02 -0.10407401830E+02  0.47787271291E+02  0.20000001123E+02 0.  0.
        -12    1    1    2    0    0 -0.37050596501E+02 -0.20063961188E+02  0.10407401830E+02  0.43400728709E+02  0.00000000000E+00 0.  1.
         11    1    3    3    0    0  0.11597898880E+02  0.48098896272E+01 -0.26750337449E+01  0.12837527116E+02  0.51100000000E-03 0. -1.
        -11    1    3    3    0    0  0.12500595741E+02 -0.13433537466E+00 -0.79861407816E+01  0.14834466108E+02  0.51100000000E-03 0.  1.
        -12    1    3    3    0    0  0.12952101881E+02  0.15388406935E+02  0.25377269672E+00  0.20115278067E+02  0.00000000000E+00 0.  1.
</event>
<event>
 7    1  0.2598019E-009  0.4778727E+02  0.7816164E-02  0.1312668E+00
        -11   -1    0    0    0    0  0.00000000000E+00  0.00000000000E+00  0.45593999997E+02  0.45594000000E+02  0.51100000000E-03 0.  1.
         11   -1    0    0    0    0 -0.00000000000E+00 -0.00000000000E+00 -0.45593999997E+02  0.45594000000E+02  0.51100000000E-03 0. -1.
    9900012    2    1    2    0    0 -0.18916342299E+02 -0.55383504467E+01 -0.38666804197E+02  0.47787273296E+02  0.20000010267E+02 0.  0.
        -12    1    1    2    0    0  0.18916342299E+02  0.55383504467E+01  0.38666804197E+02  0.43400726704E+02  0.00000000000E+00 0.  1.
         11    1    3    3    0    0 -0.57572989560E+01  0.31016918821E+00 -0.21575951903E+02  0.22333033761E+02  0.51100000000E-03 0. -1.
        -11    1    3    3    0    0 -0.14021017451E+02 -0.51948344018E+01 -0.93434129023E+01  0.17631636332E+02  0.51100000000E-03 0.  1.
        -12    1    3    3    0    0  0.86197410848E+00 -0.65368523316E+00 -0.77474393915E+01  0.78226032031E+01  0.00000000000E+00 0.  1.
</event>
<event>
 7    1  0.2598019E-009  0.4778727E+02  0.7816164E-02  0.1312668E+00
        -11   -1    0    0    0    0  0.00000000000E+00  0.00000000000E+00  0.45593999997E+02  0.45594000000E+02  0.51100000000E-03 0.  1.
         11   -1    0    0    0    0 -0.00000000000E+00 -0.00000000000E+00 -0.45593999997E+02  0.45594000000E+02  0.51100000000E-03 0. -1.
    9900012    2    1    2    0    0  0.39226171910E+02  0.16520115982E+02  0.84862388247E+01  0.47787273691E+02  0.20000012067E+02 0.  0.
        -12    1    1    2    0    0 -0.39226171910E+02 -0.16520115982E+02 -0.84862388247E+01  0.43400726309E+02  0.00000000000E+00 0.  1.
         11    1    3    3    0    0  0.11739704695E+02  0.10138742729E+01  0.30851742291E+01  0.12180595537E+02  0.51100000000E-03 0. -1.
        -11    1    3    3    0    0  0.17612349773E+01 -0.15223931472E+01 -0.28420070231E+01  0.36737764930E+01  0.51100000000E-03 0.  1.
        -12    1    3    3    0    0  0.25725232238E+02  0.17028634857E+02  0.82430716186E+01  0.31932901661E+02  0.00000000000E+00 0.  1.
</event>
<event>
 7    1  0.2598019E-009  0.4778727E+02  0.7816164E-02  0.1312668E+00
        -11   -1    0    0    0    0  0.00000000000E+00  0.00000000000E+00  0.45593999997E+02  0.45594000000E+02  0.51100000000E-03 0.  1.
         11   -1    0    0    0    0 -0.00000000000E+00 -0.00000000000E+00 -0.45593999997E+02  0.45594000000E+02  0.51100000000E-03 0. -1.
    9900012    2    1    2    0    0 -0.21332364515E+02 -0.35274792659E+02 -0.13573584589E+02  0.47787274528E+02  0.20000015881E+02 0.  0.
        -12    1    1    2    0    0  0.21332364515E+02  0.35274792659E+02  0.13573584589E+02  0.43400725472E+02  0.00000000000E+00 0.  1.
         11    1    3    3    0    0 -0.76297399088E+01 -0.61055258327E+01  0.14531603867E+01  0.98793750885E+01  0.51100000000E-03 0. -1.
        -11    1    3    3    0    0 -0.91583536555E+01 -0.27596323186E+02 -0.15712920195E+02  0.33050391168E+02  0.51100000000E-03 0.  1.
        -12    1    3    3    0    0 -0.45442709507E+01 -0.15729436402E+01  0.68617521881E+00  0.48575082706E+01  0.00000000000E+00 0.  1.
</event>
<event>
 7    1  0.2598019E-009  0.4778727E+02  0.7816164E-02  0.1312668E+00
        -11   -1    0    0    0    0  0.00000000000E+00  0.00000000000E+00  0.45593999997E+02  0.45594000000E+02  0.51100000000E-03 0. -1.
         11   -1    0    0    0    0 -0.00000000000E+00 -0.00000000000E+00 -0.45593999997E+02  0.45594000000E+02  0.51100000000E-03 0.  1.
    9900012    2    1    2    0    0 -0.25957234494E+02  0.34631950119E+02  0.32362376080E+01  0.47787271602E+02  0.20000002542E+02 0.  0.
        -12    1    1    2    0    0  0.25957234494E+02 -0.34631950119E+02 -0.32362376080E+01  0.43400728398E+02  0.00000000000E+00 0.  1.
         11    1    3    3    0    0 -0.61677227499E+01  0.69702126178E+01 -0.68360458638E+00  0.93323085755E+01  0.51100000000E-03 0. -1.
        -11    1    3    3    0    0 -0.18212584585E+02  0.14267876725E+02 -0.29438724904E+01  0.23322455467E+02  0.51100000000E-03 0.  1.
        -12    1    3    3    0    0 -0.15769271591E+01  0.13393860776E+02  0.68637146848E+01  0.15132507559E+02  0.00000000000E+00 0.  1.
</event>
<event>
 7    1  0.2598019E-009  0.4778727E+02  0.7816164E-02  0.1312668E+00
        -11   -1    0    0    0    0  0.00000000000E+00  0.00000000000E+00  0.45593999997E+02  0.45594000000E+02  0.51100000000E-03 0.  1.
         11   -1    0    0    0    0 -0.00000000000E+00 -0.00000000000E+00 -0.45593999997E+02  0.45594000000E+02  0.51100000000E-03 0. -1.
    9900012    2    1    2    0    0  0.34507993950E+02 -0.22143686304E+02 -0.14229495378E+02  0.47787273874E+02  0.20000012899E+02 0.  0.
        -12    1    1    2    0    0 -0.34507993950E+02  0.22143686304E+02  0.14229495378E+02  0.43400726126E+02  0.00000000000E+00 0.  1.
         11    1    3    3    0    0  0.25106234480E+01  0.26093767604E+01 -0.14117158828E+01  0.38865176148E+01  0.51100000000E-03 0.  1.
        -11    1    3    3    0    0  0.32390671322E+02 -0.24730664591E+02 -0.13651877780E+02  0.42978309959E+02  0.51100000000E-03 0. -1.
        -12    1    3    3    0    0 -0.39330082027E+00 -0.22398474109E-01  0.83409828466E+00  0.92244629943E+00  0.00000000000E+00 0.  1.
</event>
<event>
 7    1  0.2598019E-009  0.4778727E+02  0.7816164E-02  0.1312668E+00
        -11   -1    0    0    0    0  0.00000000000E+00  0.00000000000E+00  0.45593999997E+02  0.45594000000E+02  0.51100000000E-03 0.  1.
         11   -1    0    0    0    0 -0.00000000000E+00 -0.00000000000E+00 -0.45593999997E+02  0.45594000000E+02  0.51100000000E-03 0. -1.
    9900012    2    1    2    0    0  0.35427785154E+02  0.19085513204E+02 -0.16255416012E+02  0.47787270456E+02  0.19999997319E+02 0.  0.
        -12    1    1    2    0    0 -0.35427785154E+02 -0.19085513204E+02  0.16255416012E+02  0.43400729544E+02  0.00000000000E+00 0.  1.
         11    1    3    3    0    0  0.22443363591E+02  0.45116005729E+01 -0.65953025057E+01  0.23823457440E+02  0.51100000000E-03 0. -1.
        -11    1    3    3    0    0  0.87507760158E+01  0.15306318892E+02 -0.76157799003E+01  0.19205717447E+02  0.51100000000E-03 0.  1.
        -12    1    3    3    0    0  0.42336455467E+01 -0.73240626100E+00 -0.20443336064E+01  0.47580955686E+01  0.00000000000E+00 0.  1.
</event>
<event>
 7    1  0.2598019E-009  0.4778724E+02  0.7816164E-02  0.1312668E+00
        -11   -1    0    0    0    0  0.00000000000E+00  0.00000000000E+00  0.45593999997E+02  0.45594000000E+02  0.51100000000E-03 0.  1.
         11   -1    0    0    0    0 -0.00000000000E+00 -0.00000000000E+00 -0.45593999997E+02  0.45594000000E+02  0.51100000000E-03 0. -1.
    9900012    2    1    2    0    0 -0.69892639331E+01 -0.42399902364E+02  0.60847755401E+01  0.47787239360E+02  0.19999855536E+02 0.  0.
        -12    1    1    2    0    0  0.69892639331E+01  0.42399902364E+02 -0.60847755401E+01  0.43400760640E+02  0.00000000000E+00 0.  1.
         11    1    3    3    0    0  0.54402360740E+01 -0.11752985712E+02 -0.87287587288E+00  0.12980398847E+02  0.51100000000E-03 0. -1.
        -11    1    3    3    0    0 -0.37657593042E+01 -0.22127168866E+01  0.58675748252E+00  0.44069653688E+01  0.51100000000E-03 0.  1.
         12    1    3    3    0    0 -0.86637407029E+01 -0.28434199765E+02  0.63708939305E+01  0.30399875144E+02  0.00000000000E+00 0. -1.
</event>
<event>
 7    1  0.2598019E-009  0.4778727E+02  0.7816164E-02  0.1312668E+00
        -11   -1    0    0    0    0  0.00000000000E+00  0.00000000000E+00  0.45593999997E+02  0.45594000000E+02  0.51100000000E-03 0.  1.
         11   -1    0    0    0    0 -0.00000000000E+00 -0.00000000000E+00 -0.45593999997E+02  0.45594000000E+02  0.51100000000E-03 0. -1.
    9900012    2    1    2    0    0  0.36473886243E+02  0.55269311550E+01  0.22863334293E+02  0.47787269584E+02  0.19999993340E+02 0.  0.
        -12    1    1    2    0    0 -0.36473886243E+02 -0.55269311550E+01 -0.22863334293E+02  0.43400730416E+02  0.00000000000E+00 0.  1.
         11    1    3    3    0    0  0.12625790546E+02 -0.39077602722E+01  0.30284504137E+01  0.13559228940E+02  0.51100000000E-03 0. -1.
        -11    1    3    3    0    0  0.22515903940E+02  0.58702529390E+01  0.19586401205E+02  0.30414682511E+02  0.51100000000E-03 0.  1.
         12    1    3    3    0    0  0.13321917566E+01  0.35644384883E+01  0.24848267452E+00  0.38133581333E+01  0.00000000000E+00 0. -1.
</event>
<event>
 7    1  0.2598019E-009  0.4778727E+02  0.7816164E-02  0.1312668E+00
        -11   -1    0    0    0    0  0.00000000000E+00  0.00000000000E+00  0.45593999997E+02  0.45594000000E+02  0.51100000000E-03 0.  1.
         11   -1    0    0    0    0 -0.00000000000E+00 -0.00000000000E+00 -0.45593999997E+02  0.45594000000E+02  0.51100000000E-03 0. -1.
    9900012    2    1    2    0    0 -0.35442326112E+02  0.21282074885E+02 -0.13211283725E+02  0.47787271789E+02  0.20000003393E+02 0.  0.
        -12    1    1    2    0    0  0.35442326112E+02 -0.21282074885E+02  0.13211283725E+02  0.43400728211E+02  0.00000000000E+00 0.  1.
         11    1    3    3    0    0 -0.26371779730E+02  0.56339162502E+01 -0.85564677494E+01  0.28291781829E+02  0.51100000000E-03 0. -1.
        -11    1    3    3    0    0 -0.83345054116E+01  0.10769770435E+02 -0.16470001128E+01  0.13717308239E+02  0.51100000000E-03 0.  1.
         12    1    3    3    0    0 -0.73604096984E+00  0.48783881996E+01 -0.30078158625E+01  0.57781817208E+01  0.00000000000E+00 0. -1.
</event>
<event>
 7    1  0.2598019E-009  0.4778727E+02  0.7816164E-02  0.1312668E+00
        -11   -1    0    0    0    0  0.00000000000E+00  0.00000000000E+00  0.45593999997E+02  0.45594000000E+02  0.51100000000E-03 0. -1.
         11   -1    0    0    0    0 -0.00000000000E+00 -0.00000000000E+00 -0.45593999997E+02  0.45594000000E+02  0.51100000000E-03 0.  1.
    9900012    2    1    2    0    0 -0.23283844540E+02  0.13915574961E+02  0.33879829670E+02  0.47787268422E+02  0.19999988044E+02 0.  0.
        -12    1    1    2    0    0  0.23283844540E+02 -0.13915574961E+02 -0.33879829670E+02  0.43400731578E+02  0.00000000000E+00 0.  1.
         11    1    3    3    0    0 -0.68571300613E+01  0.71136224835E+01  0.74210061568E+01  0.12356989526E+02  0.51100000000E-03 0. -1.
        -11    1    3    3    0    0 -0.38056017480E+01 -0.31478302170E+01  0.14725104075E+02  0.15531262988E+02  0.51100000000E-03 0.  1.
        -12    1    3    3    0    0 -0.12621112731E+02  0.99497826950E+01  0.11733719438E+02  0.19899015908E+02  0.00000000000E+00 0.  1.
</event>
<event>
 7    1  0.2598019E-009  0.4778728E+02  0.7816164E-02  0.1312668E+00
        -11   -1    0    0    0    0  0.00000000000E+00  0.00000000000E+00  0.45593999997E+02  0.45594000000E+02  0.51100000000E-03 0.  1.
         11   -1    0    0    0    0 -0.00000000000E+00 -0.00000000000E+00 -0.45593999997E+02  0.45594000000E+02  0.51100000000E-03 0. -1.
    9900012    2    1    2    0    0 -0.98002401533E+01  0.38020124572E+02  0.18494530567E+02  0.47787282950E+02  0.20000054282E+02 0.  0.
        -12    1    1    2    0    0  0.98002401533E+01 -0.38020124572E+02 -0.18494530567E+02  0.43400717050E+02  0.00000000000E+00 0.  1.
         11    1    3    3    0    0 -0.94912827547E+00 -0.93944266115E-01 -0.10229261701E+01  0.13985879376E+01  0.51100000000E-03 0. -1.
        -11    1    3    3    0    0 -0.10938017552E+02  0.25297051426E+02  0.71887691183E+01  0.28482616462E+02  0.51100000000E-03 0.  1.
        -12    1    3    3    0    0  0.20869056740E+01  0.12817017412E+02  0.12328687619E+02  0.17906078550E+02  0.00000000000E+00 0.  1.
</event>
<event>
 7    1  0.2598019E-009  0.4778727E+02  0.7816164E-02  0.1312668E+00
        -11   -1    0    0    0    0  0.00000000000E+00  0.00000000000E+00  0.45593999997E+02  0.45594000000E+02  0.51100000000E-03 0.  1.
         11   -1    0    0    0    0 -0.00000000000E+00 -0.00000000000E+00 -0.45593999997E+02  0.45594000000E+02  0.51100000000E-03 0. -1.
    9900012    2    1    2    0    0  0.19632702873E+00 -0.42806297659E+02  0.71558084859E+01  0.47787271220E+02  0.20000000801E+02 0.  0.
        -12    1    1    2    0    0 -0.19632702873E+00  0.42806297659E+02 -0.71558084859E+01  0.43400728780E+02  0.00000000000E+00 0.  1.
         11    1    3    3    0    0 -0.37824454874E+01 -0.20764071402E+02 -0.33018881143E+01  0.21362490970E+02  0.51100000000E-03 0. -1.
        -11    1    3    3    0    0  0.20908474528E+01 -0.15062452094E+01 -0.10800320076E+01  0.27940807254E+01  0.51100000000E-03 0.  1.
         12    1    3    3    0    0  0.18879250634E+01 -0.20535981047E+02  0.11537728608E+02  0.23630699525E+02  0.00000000000E+00 0. -1.
</event>
<event>
 7    1  0.2598019E-009  0.4778727E+02  0.7816164E-02  0.1312668E+00
        -11   -1    0    0    0    0  0.00000000000E+00  0.00000000000E+00  0.45593999997E+02  0.45594000000E+02  0.51100000000E-03 0.  1.
         11   -1    0    0    0    0 -0.00000000000E+00 -0.00000000000E+00 -0.45593999997E+02  0.45594000000E+02  0.51100000000E-03 0. -1.
    9900012    2    1    2    0    0  0.73477436760E+01 -0.33595690442E+02 -0.26475713081E+02  0.47787272627E+02  0.20000007214E+02 0.  0.
        -12    1    1    2    0    0 -0.73477436760E+01  0.33595690442E+02  0.26475713081E+02  0.43400727373E+02  0.00000000000E+00 0.  1.
         11    1    3    3    0    0  0.10713899110E+02 -0.23271929906E+02 -0.14332355459E+02  0.29356204947E+02  0.51100000000E-03 0. -1.
        -11    1    3    3    0    0  0.38106368627E+00  0.46275914347E+00  0.90894805160E+00  0.10888261475E+01  0.51100000000E-03 0.  1.
         12    1    3    3    0    0 -0.37472191200E+01 -0.10786519680E+02 -0.13052305674E+02  0.17342241532E+02  0.00000000000E+00 0. -1.
</event>
<event>
 7    1  0.2598019E-009  0.4778727E+02  0.7816164E-02  0.1312668E+00
        -11   -1    0    0    0    0  0.00000000000E+00  0.00000000000E+00  0.45593999997E+02  0.45594000000E+02  0.51100000000E-03 0.  1.
         11   -1    0    0    0    0 -0.00000000000E+00 -0.00000000000E+00 -0.45593999997E+02  0.45594000000E+02  0.51100000000E-03 0. -1.
    9900012    2    1    2    0    0 -0.15829664873E+02 -0.21676149953E+02 -0.34105565938E+02  0.47787269652E+02  0.19999993650E+02 0.  0.
        -12    1    1    2    0    0  0.15829664873E+02  0.21676149953E+02  0.34105565938E+02  0.43400730348E+02  0.00000000000E+00 0.  1.
         11    1    3    3    0    0 -0.78855928764E+01 -0.19924466733E-01 -0.70772526175E+01  0.10595776369E+02  0.51100000000E-03 0. -1.
        -11    1    3    3    0    0 -0.59749792572E+01 -0.22022113117E+02 -0.21659225714E+02  0.31461021949E+02  0.51100000000E-03 0.  1.
         12    1    3    3    0    0 -0.19690927390E+01  0.36588763056E+00 -0.53690876070E+01  0.57304713336E+01  0.00000000000E+00 0. -1.
</event>
<event>
 7    1  0.2598019E-009  0.4778727E+02  0.7816164E-02  0.1312668E+00
        -11   -1    0    0    0    0  0.00000000000E+00  0.00000000000E+00  0.45593999997E+02  0.45594000000E+02  0.51100000000E-03 0.  1.
         11   -1    0    0    0    0 -0.00000000000E+00 -0.00000000000E+00 -0.45593999997E+02  0.45594000000E+02  0.51100000000E-03 0. -1.
    9900012    2    1    2    0    0  0.24082100074E+02 -0.15506478149E+02 -0.32607133400E+02  0.47787267781E+02  0.19999985122E+02 0.  0.
        -12    1    1    2    0    0 -0.24082100074E+02  0.15506478149E+02  0.32607133400E+02  0.43400732219E+02  0.00000000000E+00 0.  1.
         11    1    3    3    0    0  0.22449195276E+01 -0.82123698785E+01 -0.54088028363E+01  0.10086517292E+02  0.51100000000E-03 0. -1.
        -11    1    3    3    0    0  0.16728830330E+02 -0.48283226090E+01 -0.26870962901E+02  0.32018980479E+02  0.51100000000E-03 0.  1.
        -12    1    3    3    0    0  0.51083502164E+01 -0.24657856615E+01 -0.32736766289E+00  0.56817700102E+01  0.00000000000E+00 0.  1.
</event>
<event>
 7    1  0.2598019E-009  0.4778727E+02  0.7816164E-02  0.1312668E+00
        -11   -1    0    0    0    0  0.00000000000E+00  0.00000000000E+00  0.45593999997E+02  0.45594000000E+02  0.51100000000E-03 0.  1.
         11   -1    0    0    0    0 -0.00000000000E+00 -0.00000000000E+00 -0.45593999997E+02  0.45594000000E+02  0.51100000000E-03 0. -1.
    9900012    2    1    2    0    0  0.20793549300E+01 -0.38923965782E+02 -0.19084664129E+02  0.47787271503E+02  0.20000002092E+02 0.  0.
        -12    1    1    2    0    0 -0.20793549300E+01  0.38923965782E+02  0.19084664129E+02  0.43400728497E+02  0.00000000000E+00 0.  1.
         11    1    3    3    0    0  0.17881985734E+01 -0.22614724964E+02 -0.18096047219E+02  0.29018793299E+02  0.51100000000E-03 0. -1.
        -11    1    3    3    0    0 -0.20542313678E+01 -0.11450610674E+02 -0.43406693892E+01  0.12416833829E+02  0.51100000000E-03 0.  1.
         12    1    3    3    0    0  0.23453877243E+01 -0.48586301437E+01  0.33520524786E+01  0.63516443753E+01  0.00000000000E+00 0. -1.
</event>
<event>
 7    1  0.2598019E-009  0.4778727E+02  0.7816164E-02  0.1312668E+00
        -11   -1    0    0    0    0  0.00000000000E+00  0.00000000000E+00  0.45593999997E+02  0.45594000000E+02  0.51100000000E-03 0.  1.
         11   -1    0    0    0    0 -0.00000000000E+00 -0.00000000000E+00 -0.45593999997E+02  0.45594000000E+02  0.51100000000E-03 0. -1.
    9900012    2    1    2    0    0 -0.40825140057E+02 -0.12997363268E+02 -0.69281828312E+01  0.47787271551E+02  0.20000002310E+02 0.  0.
        -12    1    1    2    0    0  0.40825140057E+02  0.12997363268E+02  0.69281828312E+01  0.43400728449E+02  0.00000000000E+00 0.  1.
         11    1    3    3    0    0 -0.25159008096E+02 -0.64505579440E+01 -0.62153090307E+01  0.26706093926E+02  0.51100000000E-03 0. -1.
        -11    1    3    3    0    0  0.10028101250E+01  0.60731494639E+00  0.24052922999E+01  0.26757972457E+01  0.51100000000E-03 0.  1.
        -12    1    3    3    0    0 -0.16668942085E+02 -0.71541202700E+01 -0.31181661004E+01  0.18405380380E+02  0.00000000000E+00 0.  1.
</event>
<event>
 7    1  0.2598019E-009  0.4778727E+02  0.7816164E-02  0.1312668E+00
        -11   -1    0    0    0    0  0.00000000000E+00  0.00000000000E+00  0.45593999997E+02  0.45594000000E+02  0.51100000000E-03 0.  1.
         11   -1    0    0    0    0 -0.00000000000E+00 -0.00000000000E+00 -0.45593999997E+02  0.45594000000E+02  0.51100000000E-03 0. -1.
    9900012    2    1    2    0    0  0.54555362021E+00 -0.43208235391E+02 -0.40465185163E+01  0.47787267904E+02  0.19999985683E+02 0.  0.
        -12    1    1    2    0    0 -0.54555362021E+00  0.43208235391E+02  0.40465185163E+01  0.43400732096E+02  0.00000000000E+00 0.  1.
         11    1    3    3    0    0 -0.67150995159E+01 -0.21372216748E+02 -0.24052273897E+01  0.22531074748E+02  0.51100000000E-03 0. -1.
        -11    1    3    3    0    0  0.83098107006E+01 -0.20609601177E+02  0.90642887863E+00  0.22240283904E+02  0.51100000000E-03 0.  1.
        -12    1    3    3    0    0 -0.10491575645E+01 -0.12264174656E+01 -0.25477200052E+01  0.30159092526E+01  0.00000000000E+00 0.  1.
</event>
<event>
 7    1  0.2598019E-009  0.4778727E+02  0.7816164E-02  0.1312668E+00
        -11   -1    0    0    0    0  0.00000000000E+00  0.00000000000E+00  0.45593999997E+02  0.45594000000E+02  0.51100000000E-03 0.  1.
         11   -1    0    0    0    0 -0.00000000000E+00 -0.00000000000E+00 -0.45593999997E+02  0.45594000000E+02  0.51100000000E-03 0. -1.
    9900012    2    1    2    0    0  0.50186256128E+01 -0.21669383269E+02 -0.37267604131E+02  0.47787273140E+02  0.20000009555E+02 0.  0.
        -12    1    1    2    0    0 -0.50186256128E+01  0.21669383269E+02  0.37267604131E+02  0.43400726860E+02  0.00000000000E+00 0.  1.
         11    1    3    3    0    0  0.63913316763E+01 -0.15228615169E+02 -0.12067026169E+02  0.20454167336E+02  0.51100000000E-03 0. -1.
        -11    1    3    3    0    0  0.15570111328E+01 -0.11355462912E+01 -0.17142016708E+02  0.17249999598E+02  0.51100000000E-03 0.  1.
         12    1    3    3    0    0 -0.29297171963E+01 -0.53052218087E+01 -0.80585612533E+01  0.10083106206E+02  0.00000000000E+00 0. -1.
</event>
<event>
 7    1  0.2598019E-009  0.4778728E+02  0.7816164E-02  0.1312668E+00
        -11   -1    0    0    0    0  0.00000000000E+00  0.00000000000E+00  0.45593999997E+02  0.45594000000E+02  0.51100000000E-03 0.  1.
         11   -1    0    0    0    0 -0.00000000000E+00 -0.00000000000E+00 -0.45593999997E+02  0.45594000000E+02  0.51100000000E-03 0. -1.
    9900012    2    1    2    0    0 -0.29448182349E+02 -0.21651219310E+01 -0.31807848581E+02  0.47787280789E+02  0.20000044430E+02 0.  0.
        -12    1    1    2    0    0  0.29448182349E+02  0.21651219310E+01  0.31807848581E+02  0.43400719211E+02  0.00000000000E+00 0.  1.
         11    1    3    3    0    0 -0.68288183567E+01 -0.47256731701E+01 -0.32174041262E+01  0.89059775787E+01  0.51100000000E-03 0. -1.
        -11    1    3    3    0    0 -0.22066319205E+02  0.55188825602E+01 -0.22039312291E+02  0.31671940175E+02  0.51100000000E-03 0.  1.
        -12    1    3    3    0    0 -0.55304478808E+00 -0.29583313211E+01 -0.65511321643E+01  0.72093630355E+01  0.00000000000E+00 0.  1.
</event>
<event>
 7    1  0.2598019E-009  0.4778728E+02  0.7816164E-02  0.1312668E+00
        -11   -1    0    0    0    0  0.00000000000E+00  0.00000000000E+00  0.45593999997E+02  0.45594000000E+02  0.51100000000E-03 0.  1.
         11   -1    0    0    0    0 -0.00000000000E+00 -0.00000000000E+00 -0.45593999997E+02  0.45594000000E+02  0.51100000000E-03 0. -1.
    9900012    2    1    2    0    0  0.78358843914E+00 -0.35829898834E+02 -0.24479118076E+02  0.47787275547E+02  0.20000020529E+02 0.  0.
        -12    1    1    2    0    0 -0.78358843914E+00  0.35829898834E+02  0.24479118076E+02  0.43400724453E+02  0.00000000000E+00 0.  1.
         11    1    3    3    0    0  0.53757944516E+01 -0.79469991852E+01 -0.13238586605E+02  0.16349744267E+02  0.51100000000E-03 0. -1.
        -11    1    3    3    0    0 -0.51315397265E+01 -0.95162282869E+01 -0.25342055792E+01  0.11104661136E+02  0.51100000000E-03 0.  1.
        -12    1    3    3    0    0  0.53933371409E+00 -0.18366671362E+02 -0.87063258917E+01  0.20332870144E+02  0.00000000000E+00 0.  1.
</event>
<event>
 7    1  0.2598019E-009  0.4778729E+02  0.7816164E-02  0.1312668E+00
        -11   -1    0    0    0    0  0.00000000000E+00  0.00000000000E+00  0.45593999997E+02  0.45594000000E+02  0.51100000000E-03 0.  1.
         11   -1    0    0    0    0 -0.00000000000E+00 -0.00000000000E+00 -0.45593999997E+02  0.45594000000E+02  0.51100000000E-03 0. -1.
    9900012    2    1    2    0    0  0.30766218136E+02 -0.25925927214E+02 -0.16275998903E+02  0.47787285483E+02  0.20000065831E+02 0.  0.
        -12    1    1    2    0    0 -0.30766218136E+02  0.25925927214E+02  0.16275998903E+02  0.43400714517E+02  0.00000000000E+00 0.  1.
         11    1    3    3    0    0  0.32604243832E+02 -0.21762874018E+02 -0.13572084783E+02  0.41483260323E+02  0.51100000000E-03 0. -1.
        -11    1    3    3    0    0 -0.25137278827E+01 -0.31651862116E+01 -0.91033000842E+00  0.41431790461E+01  0.51100000000E-03 0.  1.
         12    1    3    3    0    0  0.67570218640E+00 -0.99786698453E+00 -0.17935841114E+01  0.21608461140E+01  0.00000000000E+00 0. -1.
</event>
<event>
 7    1  0.2598019E-009  0.4778727E+02  0.7816164E-02  0.1312668E+00
        -11   -1    0    0    0    0  0.00000000000E+00  0.00000000000E+00  0.45593999997E+02  0.45594000000E+02  0.51100000000E-03 0.  1.
         11   -1    0    0    0    0 -0.00000000000E+00 -0.00000000000E+00 -0.45593999997E+02  0.45594000000E+02  0.51100000000E-03 0. -1.
    9900012    2    1    2    0    0  0.16503979639E+02 -0.36617957054E+02  0.16442850851E+02  0.47787268821E+02  0.19999989863E+02 0.  0.
        -12    1    1    2    0    0 -0.16503979639E+02  0.36617957054E+02 -0.16442850851E+02  0.43400731179E+02  0.00000000000E+00 0.  1.
         11    1    3    3    0    0  0.10341387697E+02 -0.18789869567E+02  0.40322347501E+01  0.21823437291E+02  0.51100000000E-03 0. -1.
        -11    1    3    3    0    0 -0.24422378329E+00 -0.16085096892E+02  0.77842642334E+01  0.17871338988E+02  0.51100000000E-03 0.  1.
        -12    1    3    3    0    0  0.64068157251E+01 -0.17429905948E+01  0.46263518674E+01  0.80924925425E+01  0.00000000000E+00 0.  1.
</event>
<event>
 7    1  0.2598019E-009  0.4778727E+02  0.7816164E-02  0.1312668E+00
        -11   -1    0    0    0    0  0.00000000000E+00  0.00000000000E+00  0.45593999997E+02  0.45594000000E+02  0.51100000000E-03 0.  1.
         11   -1    0    0    0    0 -0.00000000000E+00 -0.00000000000E+00 -0.45593999997E+02  0.45594000000E+02  0.51100000000E-03 0. -1.
    9900012    2    1    2    0    0  0.10056079475E+02 -0.31442653580E+02 -0.28175491048E+02  0.47787268504E+02  0.19999988419E+02 0.  0.
        -12    1    1    2    0    0 -0.10056079475E+02  0.31442653580E+02  0.28175491048E+02  0.43400731496E+02  0.00000000000E+00 0.  1.
         11    1    3    3    0    0 -0.64063021142E+00 -0.78675036009E+01  0.14364446338E+00  0.78948498385E+01  0.51100000000E-03 0. -1.
        -11    1    3    3    0    0  0.34292207281E+00  0.76210962203E+00 -0.35839408943E+01  0.36800868494E+01  0.51100000000E-03 0.  1.
         12    1    3    3    0    0  0.10353787613E+02 -0.24337259601E+02 -0.24735194617E+02  0.36212331816E+02  0.00000000000E+00 0. -1.
</event>
<event>
 7    1  0.2598019E-009  0.4778728E+02  0.7816164E-02  0.1312668E+00
        -11   -1    0    0    0    0  0.00000000000E+00  0.00000000000E+00  0.45593999997E+02  0.45594000000E+02  0.51100000000E-03 0.  1.
         11   -1    0    0    0    0 -0.00000000000E+00 -0.00000000000E+00 -0.45593999997E+02  0.45594000000E+02  0.51100000000E-03 0. -1.
    9900012    2    1    2    0    0  0.41200673296E+02 -0.12605706621E+02 -0.52175716409E+01  0.47787281420E+02  0.20000047305E+02 0.  0.
        -12    1    1    2    0    0 -0.41200673296E+02  0.12605706621E+02  0.52175716409E+01  0.43400718580E+02  0.00000000000E+00 0.  1.
         11    1    3    3    0    0  0.32796222036E+02 -0.17887879022E+02 -0.37097686101E+01  0.37541054582E+02  0.51100000000E-03 0. -1.
        -11    1    3    3    0    0  0.72539312283E+01  0.44977060606E+01 -0.20052215741E+01  0.87675419529E+01  0.51100000000E-03 0.  1.
         12    1    3    3    0    0  0.11505200314E+01  0.78446633996E+00  0.49741854322E+00  0.14786848847E+01  0.00000000000E+00 0. -1.
</event>
<event>
 7    1  0.2598019E-009  0.4778727E+02  0.7816164E-02  0.1312668E+00
        -11   -1    0    0    0    0  0.00000000000E+00  0.00000000000E+00  0.45593999997E+02  0.45594000000E+02  0.51100000000E-03 0.  1.
         11   -1    0    0    0    0 -0.00000000000E+00 -0.00000000000E+00 -0.45593999997E+02  0.45594000000E+02  0.51100000000E-03 0. -1.
    9900012    2    1    2    0    0  0.18624147075E+02 -0.29732907939E+02 -0.25548361939E+02  0.47787268825E+02  0.19999989881E+02 0.  0.
        -12    1    1    2    0    0 -0.18624147075E+02  0.29732907939E+02  0.25548361939E+02  0.43400731175E+02  0.00000000000E+00 0.  1.
         11    1    3    3    0    0  0.74352037749E+01 -0.15157296534E+02 -0.18333780716E+02  0.24922949444E+02  0.51100000000E-03 0. -1.
        -11    1    3    3    0    0  0.42684786975E+01 -0.52962349748E+01  0.29922610812E+01  0.74312611270E+01  0.51100000000E-03 0.  1.
         12    1    3    3    0    0  0.69204646024E+01 -0.92793764307E+01 -0.10206842304E+02  0.15433058254E+02  0.00000000000E+00 0. -1.
</event>
<event>
 7    1  0.2598019E-009  0.4778730E+02  0.7816164E-02  0.1312668E+00
        -11   -1    0    0    0    0  0.00000000000E+00  0.00000000000E+00  0.45593999997E+02  0.45594000000E+02  0.51100000000E-03 0. -1.
         11   -1    0    0    0    0 -0.00000000000E+00 -0.00000000000E+00 -0.45593999997E+02  0.45594000000E+02  0.51100000000E-03 0.  1.
    9900012    2    1    2    0    0 -0.56232291759E+01  0.33091801182E+02  0.27512416653E+02  0.47787296297E+02  0.20000115136E+02 0.  0.
        -12    1    1    2    0    0  0.56232291759E+01 -0.33091801182E+02 -0.27512416653E+02  0.43400703703E+02  0.00000000000E+00 0.  1.
         11    1    3    3    0    0 -0.33891727563E+01  0.68058764896E+01  0.12495032406E+02  0.14626424097E+02  0.51100000000E-03 0. -1.
        -11    1    3    3    0    0  0.66288206808E+00  0.13782192483E+02  0.53355939582E+00  0.13808436848E+02  0.51100000000E-03 0.  1.
        -12    1    3    3    0    0 -0.28969384877E+01  0.12503732209E+02  0.14483824851E+02  0.19352435352E+02  0.00000000000E+00 0.  1.
</event>
<event>
 7    1  0.2598019E-009  0.4778727E+02  0.7816164E-02  0.1312668E+00
        -11   -1    0    0    0    0  0.00000000000E+00  0.00000000000E+00  0.45593999997E+02  0.45594000000E+02  0.51100000000E-03 0. -1.
         11   -1    0    0    0    0 -0.00000000000E+00 -0.00000000000E+00 -0.45593999997E+02  0.45594000000E+02  0.51100000000E-03 0.  1.
    9900012    2    1    2    0    0 -0.25825139322E+02 -0.27367753107E+01  0.34773485957E+02  0.47787273212E+02  0.20000009883E+02 0.  0.
        -12    1    1    2    0    0  0.25825139322E+02  0.27367753107E+01 -0.34773485957E+02  0.43400726788E+02  0.00000000000E+00 0.  1.
         11    1    3    3    0    0 -0.56925779882E+01 -0.19988222949E+01  0.46751961663E+01  0.76327055605E+01  0.51100000000E-03 0. -1.
        -11    1    3    3    0    0 -0.21962571941E+02 -0.12139645619E+01  0.19519613109E+02  0.29408222870E+02  0.51100000000E-03 0.  1.
        -12    1    3    3    0    0  0.18300106068E+01  0.47601154606E+00  0.10578676682E+02  0.10746344781E+02  0.00000000000E+00 0.  1.
</event>
<event>
 7    1  0.2598019E-009  0.4778725E+02  0.7816164E-02  0.1312668E+00
        -11   -1    0    0    0    0  0.00000000000E+00  0.00000000000E+00  0.45593999997E+02  0.45594000000E+02  0.51100000000E-03 0. -1.
         11   -1    0    0    0    0 -0.00000000000E+00 -0.00000000000E+00 -0.45593999997E+02  0.45594000000E+02  0.51100000000E-03 0.  1.
    9900012    2    1    2    0    0 -0.29027773702E+02 -0.24302543013E+02 -0.21222625005E+02  0.47787250524E+02  0.19999906438E+02 0.  0.
        -12    1    1    2    0    0  0.29027773702E+02  0.24302543013E+02  0.21222625005E+02  0.43400749476E+02  0.00000000000E+00 0.  1.
         11    1    3    3    0    0 -0.24738840008E+02 -0.16536273088E+02 -0.10141156428E+02  0.31437264298E+02  0.51100000000E-03 0. -1.
        -11    1    3    3    0    0 -0.13908314146E+01 -0.83836344738E+01 -0.57829938417E+01  0.10279239128E+02  0.51100000000E-03 0.  1.
         12    1    3    3    0    0 -0.28981022793E+01  0.61736454884E+00 -0.52984747352E+01  0.60707470980E+01  0.00000000000E+00 0. -1.
</event>
<event>
 7    1  0.2598019E-009  0.4778727E+02  0.7816164E-02  0.1312668E+00
        -11   -1    0    0    0    0  0.00000000000E+00  0.00000000000E+00  0.45593999997E+02  0.45594000000E+02  0.51100000000E-03 0.  1.
         11   -1    0    0    0    0 -0.00000000000E+00 -0.00000000000E+00 -0.45593999997E+02  0.45594000000E+02  0.51100000000E-03 0. -1.
    9900012    2    1    2    0    0  0.38911659755E+02  0.76688756682E+01 -0.17626532315E+02  0.47787267744E+02  0.19999984951E+02 0.  0.
        -12    1    1    2    0    0 -0.38911659755E+02 -0.76688756682E+01  0.17626532315E+02  0.43400732256E+02  0.00000000000E+00 0.  1.
         11    1    3    3    0    0  0.17795168586E+02 -0.15961046937E+01 -0.15333426350E+02  0.23544203939E+02  0.51100000000E-03 0. -1.
        -11    1    3    3    0    0  0.11454863282E+02  0.81777343084E+01  0.63609688231E+00  0.14088784573E+02  0.51100000000E-03 0.  1.
         12    1    3    3    0    0  0.96616278869E+01  0.10872460536E+01 -0.29292028469E+01  0.10154279232E+02  0.00000000000E+00 0. -1.
</event>
<event>
 7    1  0.2598019E-009  0.4778727E+02  0.7816164E-02  0.1312668E+00
        -11   -1    0    0    0    0  0.00000000000E+00  0.00000000000E+00  0.45593999997E+02  0.45594000000E+02  0.51100000000E-03 0.  1.
         11   -1    0    0    0    0 -0.00000000000E+00 -0.00000000000E+00 -0.45593999997E+02  0.45594000000E+02  0.51100000000E-03 0. -1.
    9900012    2    1    2    0    0  0.21108808844E+02  0.37731406189E+02 -0.37924166896E+01  0.47787271341E+02  0.20000001352E+02 0.  0.
        -12    1    1    2    0    0 -0.21108808844E+02 -0.37731406189E+02  0.37924166896E+01  0.43400728659E+02  0.00000000000E+00 0.  1.
         11    1    3    3    0    0  0.19097986417E+01  0.46969017232E+01 -0.75169107129E+01  0.90670923441E+01  0.51100000000E-03 0. -1.
        -11    1    3    3    0    0  0.70607124883E+01  0.17168236925E+02  0.17216244275E+01  0.18643122348E+02  0.51100000000E-03 0.  1.
         12    1    3    3    0    0  0.12138297714E+02  0.15866267541E+02  0.20028695959E+01  0.20077056649E+02  0.00000000000E+00 0. -1.
</event>
<event>
 7    1  0.2598019E-009  0.4778727E+02  0.7816164E-02  0.1312668E+00
        -11   -1    0    0    0    0  0.00000000000E+00  0.00000000000E+00  0.45593999997E+02  0.45594000000E+02  0.51100000000E-03 0. -1.
         11   -1    0    0    0    0 -0.00000000000E+00 -0.00000000000E+00 -0.45593999997E+02  0.45594000000E+02  0.51100000000E-03 0.  1.
    9900012    2    1    2    0    0 -0.80931421715E+01  0.80003798458E+01  0.41882201104E+02  0.47787265015E+02  0.19999972511E+02 0.  0.
        -12    1    1    2    0    0  0.80931421715E+01 -0.80003798458E+01 -0.41882201104E+02  0.43400734985E+02  0.00000000000E+00 0.  1.
         11    1    3    3    0    0  0.25189152133E+01  0.58159350076E+01  0.19310945553E+02  0.20324434858E+02  0.51100000000E-03 0.  1.
        -11    1    3    3    0    0 -0.64374012866E+00  0.43471991607E+01  0.11970030283E+02  0.12751241788E+02  0.51100000000E-03 0. -1.
         12    1    3    3    0    0 -0.99683172562E+01 -0.21627543225E+01  0.10601225268E+02  0.14711588370E+02  0.00000000000E+00 0. -1.
</event>
<event>
 7    1  0.2598019E-009  0.4778727E+02  0.7816164E-02  0.1312668E+00
        -11   -1    0    0    0    0  0.00000000000E+00  0.00000000000E+00  0.45593999997E+02  0.45594000000E+02  0.51100000000E-03 0.  1.
         11   -1    0    0    0    0 -0.00000000000E+00 -0.00000000000E+00 -0.45593999997E+02  0.45594000000E+02  0.51100000000E-03 0. -1.
    9900012    2    1    2    0    0  0.10992059587E+02  0.33564684277E+02 -0.25223201508E+02  0.47787270756E+02  0.19999998684E+02 0.  0.
        -12    1    1    2    0    0 -0.10992059587E+02 -0.33564684277E+02  0.25223201508E+02  0.43400729244E+02  0.00000000000E+00 0.  1.
         11    1    3    3    0    0 -0.18914071988E+01  0.16051116981E+02 -0.15336310893E+02  0.22280444556E+02  0.51100000000E-03 0. -1.
        -11    1    3    3    0    0  0.33492095024E+01  0.52450479825E+01  0.13043599127E+01  0.63583871911E+01  0.51100000000E-03 0.  1.
         12    1    3    3    0    0  0.95342572838E+01  0.12268519313E+02 -0.11191250528E+02  0.19148439009E+02  0.00000000000E+00 0. -1.
</event>
<event>
 7    1  0.2598019E-009  0.4778727E+02  0.7816164E-02  0.1312668E+00
        -11   -1    0    0    0    0  0.00000000000E+00  0.00000000000E+00  0.45593999997E+02  0.45594000000E+02  0.51100000000E-03 0.  1.
         11   -1    0    0    0    0 -0.00000000000E+00 -0.00000000000E+00 -0.45593999997E+02  0.45594000000E+02  0.51100000000E-03 0. -1.
    9900012    2    1    2    0    0 -0.16691047553E+02 -0.25791009106E+02 -0.30657073169E+02  0.47787270117E+02  0.19999995772E+02 0.  0.
        -12    1    1    2    0    0  0.16691047553E+02  0.25791009106E+02  0.30657073169E+02  0.43400729883E+02  0.00000000000E+00 0.  1.
         11    1    3    3    0    0 -0.13584718022E+02 -0.16026356266E+02 -0.23814492034E+02  0.31757183282E+02  0.51100000000E-03 0. -1.
        -11    1    3    3    0    0  0.34990324134E+01 -0.15701610223E+01 -0.88586667690E+00  0.39361648208E+01  0.51100000000E-03 0.  1.
         12    1    3    3    0    0 -0.66053619443E+01 -0.81944918170E+01 -0.59567144573E+01  0.12093922014E+02  0.00000000000E+00 0. -1.
</event>
<event>
 7    1  0.2598019E-009  0.4778727E+02  0.7816164E-02  0.1312668E+00
        -11   -1    0    0    0    0  0.00000000000E+00  0.00000000000E+00  0.45593999997E+02  0.45594000000E+02  0.51100000000E-03 0. -1.
         11   -1    0    0    0    0 -0.00000000000E+00 -0.00000000000E+00 -0.45593999997E+02  0.45594000000E+02  0.51100000000E-03 0.  1.
    9900012    2    1    2    0    0 -0.23465251505E+02 -0.26758604947E+02  0.24839124678E+02  0.47787273259E+02  0.20000010098E+02 0.  0.
        -12    1    1    2    0    0  0.23465251505E+02  0.26758604947E+02 -0.24839124678E+02  0.43400726741E+02  0.00000000000E+00 0.  1.
         11    1    3    3    0    0 -0.10339440685E+02 -0.72568320257E+01  0.33833386804E+01  0.13077179574E+02  0.51100000000E-03 0. -1.
        -11    1    3    3    0    0 -0.81039152886E+01 -0.89616892507E+01  0.23341147683E+01  0.12305828263E+02  0.51100000000E-03 0.  1.
         12    1    3    3    0    0 -0.50218955315E+01 -0.10540083670E+02  0.19121671229E+02  0.22404265422E+02  0.00000000000E+00 0. -1.
</event>
<event>
 7    1  0.2598019E-009  0.4778733E+02  0.7816164E-02  0.1312668E+00
        -11   -1    0    0    0    0  0.00000000000E+00  0.00000000000E+00  0.45593999997E+02  0.45594000000E+02  0.51100000000E-03 0.  1.
         11   -1    0    0    0    0 -0.00000000000E+00 -0.00000000000E+00 -0.45593999997E+02  0.45594000000E+02  0.51100000000E-03 0. -1.
    9900012    2    1    2    0    0  0.32337011676E+02 -0.28720017310E+02 -0.36189139183E+01  0.47787328849E+02  0.20000263552E+02 0.  0.
        -12    1    1    2    0    0 -0.32337011676E+02  0.28720017310E+02  0.36189139183E+01  0.43400671151E+02  0.00000000000E+00 0.  1.
         11    1    3    3    0    0  0.12847944488E+01 -0.44442992378E+01  0.43242425124E+01  0.63325797317E+01  0.51100000000E-03 0.  1.
        -11    1    3    3    0    0  0.14542270560E+02 -0.17328289932E+02 -0.62113643658E+01  0.23459077402E+02  0.51100000000E-03 0. -1.
        -12    1    3    3    0    0  0.16509946668E+02 -0.69474281397E+01 -0.17317920649E+01  0.17995671715E+02  0.00000000000E+00 0.  1.
</event>
<event>
 7    1  0.2598019E-009  0.4778727E+02  0.7816164E-02  0.1312668E+00
        -11   -1    0    0    0    0  0.00000000000E+00  0.00000000000E+00  0.45593999997E+02  0.45594000000E+02  0.51100000000E-03 0. -1.
         11   -1    0    0    0    0 -0.00000000000E+00 -0.00000000000E+00 -0.45593999997E+02  0.45594000000E+02  0.51100000000E-03 0.  1.
    9900012    2    1    2    0    0 -0.30605456887E+02  0.23913637509E+02 -0.19366652738E+02  0.47787270876E+02  0.19999999232E+02 0.  0.
        -12    1    1    2    0    0  0.30605456887E+02 -0.23913637509E+02  0.19366652738E+02  0.43400729124E+02  0.00000000000E+00 0.  1.
         11    1    3    3    0    0 -0.22471337038E+02  0.75311293583E+01 -0.13636191759E+02  0.27342725242E+02  0.51100000000E-03 0. -1.
        -11    1    3    3    0    0 -0.51713056804E+01  0.13647461594E+02 -0.70418765893E+01  0.16204432621E+02  0.51100000000E-03 0.  1.
         12    1    3    3    0    0 -0.29628141685E+01  0.27350465568E+01  0.13114156098E+01  0.42401130134E+01  0.00000000000E+00 0. -1.
</event>
<event>
 7    1  0.2598019E-009  0.4778727E+02  0.7816164E-02  0.1312668E+00
        -11   -1    0    0    0    0  0.00000000000E+00  0.00000000000E+00  0.45593999997E+02  0.45594000000E+02  0.51100000000E-03 0.  1.
         11   -1    0    0    0    0 -0.00000000000E+00 -0.00000000000E+00 -0.45593999997E+02  0.45594000000E+02  0.51100000000E-03 0. -1.
    9900012    2    1    2    0    0 -0.33745052609E+01  0.42355471387E+02 -0.88459052923E+01  0.47787270944E+02  0.19999999540E+02 0.  0.
        -12    1    1    2    0    0  0.33745052609E+01 -0.42355471387E+02  0.88459052923E+01  0.43400729056E+02  0.00000000000E+00 0.  1.
         11    1    3    3    0    0 -0.69700599336E+01  0.16572985790E+02 -0.94026929524E+01  0.20289313159E+02  0.51100000000E-03 0. -1.
        -11    1    3    3    0    0  0.30698455885E+01  0.25849054938E+02  0.18540410162E+01  0.26096648472E+02  0.51100000000E-03 0.  1.
         12    1    3    3    0    0  0.52570908416E+00 -0.66569340369E-01 -0.12972533561E+01  0.14013093121E+01  0.00000000000E+00 0. -1.
</event>
<event>
 7    1  0.2598019E-009  0.4778727E+02  0.7816164E-02  0.1312668E+00
        -11   -1    0    0    0    0  0.00000000000E+00  0.00000000000E+00  0.45593999997E+02  0.45594000000E+02  0.51100000000E-03 0. -1.
         11   -1    0    0    0    0 -0.00000000000E+00 -0.00000000000E+00 -0.45593999997E+02  0.45594000000E+02  0.51100000000E-03 0.  1.
    9900012    2    1    2    0    0  0.23158479159E+02  0.33503204593E+02  0.14994780995E+02  0.47787270374E+02  0.19999996943E+02 0.  0.
        -12    1    1    2    0    0 -0.23158479159E+02 -0.33503204593E+02 -0.14994780995E+02  0.43400729626E+02  0.00000000000E+00 0.  1.
         11    1    3    3    0    0  0.15998209451E+02  0.24876048934E+02  0.16468207996E+02  0.33852066274E+02  0.51100000000E-03 0. -1.
        -11    1    3    3    0    0 -0.10670637977E+01  0.40837324365E+01 -0.16582370773E+01  0.45348920855E+01  0.51100000000E-03 0.  1.
        -12    1    3    3    0    0  0.82273335060E+01  0.45434232225E+01  0.18481007712E+00  0.94003120141E+01  0.00000000000E+00 0.  1.
</event>
<event>
 7    1  0.2598019E-009  0.4778728E+02  0.7816164E-02  0.1312668E+00
        -11   -1    0    0    0    0  0.00000000000E+00  0.00000000000E+00  0.45593999997E+02  0.45594000000E+02  0.51100000000E-03 0.  1.
         11   -1    0    0    0    0 -0.00000000000E+00 -0.00000000000E+00 -0.45593999997E+02  0.45594000000E+02  0.51100000000E-03 0. -1.
    9900012    2    1    2    0    0  0.18494355110E+02  0.39260894163E+02 -0.40484794512E+00  0.47787275544E+02  0.20000020515E+02 0.  0.
        -12    1    1    2    0    0 -0.18494355110E+02 -0.39260894163E+02  0.40484794512E+00  0.43400724456E+02  0.00000000000E+00 0.  1.
         11    1    3    3    0    0  0.88685661013E+01  0.83590590094E+01  0.13043911254E+00  0.12187794995E+02  0.51100000000E-03 0. -1.
        -11    1    3    3    0    0  0.70254376266E+01  0.17143058352E+02 -0.74674921597E+01  0.19975101074E+02  0.51100000000E-03 0.  1.
        -12    1    3    3    0    0  0.26003513822E+01  0.13758776802E+02  0.69322051021E+01  0.15624379475E+02  0.00000000000E+00 0.  1.
</event>
<event>
 7    1  0.2598019E-009  0.4778723E+02  0.7816164E-02  0.1312668E+00
        -11   -1    0    0    0    0  0.00000000000E+00  0.00000000000E+00  0.45593999997E+02  0.45594000000E+02  0.51100000000E-03 0.  1.
         11   -1    0    0    0    0 -0.00000000000E+00 -0.00000000000E+00 -0.45593999997E+02  0.45594000000E+02  0.51100000000E-03 0. -1.
    9900012    2    1    2    0    0  0.23552763288E+02  0.22660026579E+02 -0.28555507828E+02  0.47787233989E+02  0.19999831048E+02 0.  0.
        -12    1    1    2    0    0 -0.23552763288E+02 -0.22660026579E+02  0.28555507828E+02  0.43400766011E+02  0.00000000000E+00 0.  1.
         11    1    3    3    0    0  0.10249191839E+01  0.89436271745E+01 -0.14882598418E+02  0.17393408588E+02  0.51100000000E-03 0. -1.
        -11    1    3    3    0    0  0.12165161340E+02  0.11016196758E+02 -0.88988571961E+01  0.18669156411E+02  0.51100000000E-03 0.  1.
         12    1    3    3    0    0  0.10362682763E+02  0.27002026466E+01 -0.47740522142E+01  0.11724668990E+02  0.00000000000E+00 0. -1.
</event>
<event>
 7    1  0.2598019E-009  0.4778726E+02  0.7816164E-02  0.1312668E+00
        -11   -1    0    0    0    0  0.00000000000E+00  0.00000000000E+00  0.45593999997E+02  0.45594000000E+02  0.51100000000E-03 0. -1.
         11   -1    0    0    0    0 -0.00000000000E+00 -0.00000000000E+00 -0.45593999997E+02  0.45594000000E+02  0.51100000000E-03 0.  1.
    9900012    2    1    2    0    0 -0.11679238094E+02  0.11912108777E+02  0.40066465226E+02  0.47787256070E+02  0.19999931724E+02 0.  0.
        -12    1    1    2    0    0  0.11679238094E+02 -0.11912108777E+02 -0.40066465226E+02  0.43400743930E+02  0.00000000000E+00 0.  1.
         11    1    3    3    0    0 -0.71454855207E+01 -0.19284488108E+01  0.98364349799E+01  0.12309846933E+02  0.51100000000E-03 0. -1.
        -11    1    3    3    0    0 -0.23688229545E+01 -0.12972290003E+01  0.19615831334E+01  0.33379535526E+01  0.51100000000E-03 0.  1.
         12    1    3    3    0    0 -0.21649296192E+01  0.15137786588E+02  0.28268447113E+02  0.32139455584E+02  0.00000000000E+00 0. -1.
</event>
<event>
 7    1  0.2598019E-009  0.4778727E+02  0.7816164E-02  0.1312668E+00
        -11   -1    0    0    0    0  0.00000000000E+00  0.00000000000E+00  0.45593999997E+02  0.45594000000E+02  0.51100000000E-03 0.  1.
         11   -1    0    0    0    0 -0.00000000000E+00 -0.00000000000E+00 -0.45593999997E+02  0.45594000000E+02  0.51100000000E-03 0. -1.
    9900012    2    1    2    0    0 -0.22207827289E+02  0.32024060519E+02 -0.19102234342E+02  0.47787269570E+02  0.19999993276E+02 0.  0.
        -12    1    1    2    0    0  0.22207827289E+02 -0.32024060519E+02  0.19102234342E+02  0.43400730430E+02  0.00000000000E+00 0.  1.
         11    1    3    3    0    0 -0.19427716320E+02  0.26438081421E+02 -0.90260173550E+01  0.34027596157E+02  0.51100000000E-03 0. -1.
        -11    1    3    3    0    0  0.22106198602E+01  0.54634384093E+00 -0.24982984266E+01  0.33803590118E+01  0.51100000000E-03 0.  1.
         12    1    3    3    0    0 -0.49907308291E+01  0.50396352569E+01 -0.75779185602E+01  0.10379314401E+02  0.00000000000E+00 0. -1.
</event>
<event>
 7    1  0.2598019E-009  0.4778727E+02  0.7816164E-02  0.1312668E+00
        -11   -1    0    0    0    0  0.00000000000E+00  0.00000000000E+00  0.45593999997E+02  0.45594000000E+02  0.51100000000E-03 0.  1.
         11   -1    0    0    0    0 -0.00000000000E+00 -0.00000000000E+00 -0.45593999997E+02  0.45594000000E+02  0.51100000000E-03 0. -1.
    9900012    2    1    2    0    0 -0.26036608236E+02 -0.10914899708E+02 -0.32963367509E+02  0.47787267269E+02  0.19999982785E+02 0.  0.
        -12    1    1    2    0    0  0.26036608236E+02  0.10914899708E+02  0.32963367509E+02  0.43400732731E+02  0.00000000000E+00 0.  1.
         11    1    3    3    0    0 -0.19116708466E+02 -0.69758056447E+01 -0.23134304225E+02  0.30810816919E+02  0.51100000000E-03 0. -1.
        -11    1    3    3    0    0  0.20773347025E+01 -0.43140527854E+01 -0.27471077331E+01  0.55202329715E+01  0.51100000000E-03 0.  1.
        -12    1    3    3    0    0 -0.89972344723E+01  0.37495872198E+00 -0.70819555507E+01  0.11456217378E+02  0.00000000000E+00 0.  1.
</event>
<event>
 7    1  0.2598019E-009  0.4778728E+02  0.7816164E-02  0.1312668E+00
        -11   -1    0    0    0    0  0.00000000000E+00  0.00000000000E+00  0.45593999997E+02  0.45594000000E+02  0.51100000000E-03 0. -1.
         11   -1    0    0    0    0 -0.00000000000E+00 -0.00000000000E+00 -0.45593999997E+02  0.45594000000E+02  0.51100000000E-03 0.  1.
    9900012    2    1    2    0    0 -0.20651665502E+02 -0.26674092010E+02  0.27306116213E+02  0.47787280476E+02  0.20000043002E+02 0.  0.
        -12    1    1    2    0    0  0.20651665502E+02  0.26674092010E+02 -0.27306116213E+02  0.43400719524E+02  0.00000000000E+00 0.  1.
         11    1    3    3    0    0 -0.14087042597E+02 -0.12390774424E+02  0.67781141364E+01  0.19947904438E+02  0.51100000000E-03 0. -1.
        -11    1    3    3    0    0 -0.11938833779E+01 -0.28794289351E+01  0.12527514153E+02  0.12909495716E+02  0.51100000000E-03 0.  1.
        -12    1    3    3    0    0 -0.53707395277E+01 -0.11403888651E+02  0.80004879231E+01  0.14929880322E+02  0.00000000000E+00 0.  1.
</event>
<event>
 7    1  0.2598019E-009  0.4778727E+02  0.7816164E-02  0.1312668E+00
        -11   -1    0    0    0    0  0.00000000000E+00  0.00000000000E+00  0.45593999997E+02  0.45594000000E+02  0.51100000000E-03 0.  1.
         11   -1    0    0    0    0 -0.00000000000E+00 -0.00000000000E+00 -0.45593999997E+02  0.45594000000E+02  0.51100000000E-03 0. -1.
    9900012    2    1    2    0    0  0.21241787132E+02  0.32982700173E+02 -0.18562090873E+02  0.47787271333E+02  0.20000001315E+02 0.  0.
        -12    1    1    2    0    0 -0.21241787132E+02 -0.32982700173E+02  0.18562090873E+02  0.43400728667E+02  0.00000000000E+00 0.  1.
         11    1    3    3    0    0  0.12315153279E+02  0.19382389034E+02 -0.20623387281E+02  0.30865257299E+02  0.51100000000E-03 0. -1.
        -11    1    3    3    0    0  0.70197619177E+01  0.75801397080E+01  0.23695431875E+01  0.10599542941E+02  0.51100000000E-03 0.  1.
         12    1    3    3    0    0  0.19068719355E+01  0.60201714316E+01 -0.30824677924E+00  0.63224710929E+01  0.00000000000E+00 0. -1.
</event>
<event>
 7    1  0.2598019E-009  0.4778727E+02  0.7816164E-02  0.1312668E+00
        -11   -1    0    0    0    0  0.00000000000E+00  0.00000000000E+00  0.45593999997E+02  0.45594000000E+02  0.51100000000E-03 0. -1.
         11   -1    0    0    0    0 -0.00000000000E+00 -0.00000000000E+00 -0.45593999997E+02  0.45594000000E+02  0.51100000000E-03 0.  1.
    9900012    2    1    2    0    0 -0.24291934447E+02 -0.23173466262E+02  0.27504838192E+02  0.47787265655E+02  0.19999975425E+02 0.  0.
        -12    1    1    2    0    0  0.24291934447E+02  0.23173466262E+02 -0.27504838192E+02  0.43400734345E+02  0.00000000000E+00 0.  1.
         11    1    3    3    0    0 -0.48086501879E+01 -0.10194350698E+02  0.65995574510E+00  0.11290856683E+02  0.51100000000E-03 0. -1.
        -11    1    3    3    0    0 -0.14230578708E+02 -0.11753620702E+02  0.24347477881E+02  0.30552522800E+02  0.51100000000E-03 0.  1.
        -12    1    3    3    0    0 -0.52527055511E+01 -0.12254948612E+01  0.24974045655E+01  0.59438861720E+01  0.00000000000E+00 0.  1.
</event>
<event>
 7    1  0.2598019E-009  0.4778727E+02  0.7816164E-02  0.1312668E+00
        -11   -1    0    0    0    0  0.00000000000E+00  0.00000000000E+00  0.45593999997E+02  0.45594000000E+02  0.51100000000E-03 0.  1.
         11   -1    0    0    0    0 -0.00000000000E+00 -0.00000000000E+00 -0.45593999997E+02  0.45594000000E+02  0.51100000000E-03 0. -1.
    9900012    2    1    2    0    0  0.23478088499E+02 -0.36153213572E+02 -0.50347037506E+01  0.47787265755E+02  0.19999975885E+02 0.  0.
        -12    1    1    2    0    0 -0.23478088499E+02  0.36153213572E+02  0.50347037506E+01  0.43400734245E+02  0.00000000000E+00 0.  1.
         11    1    3    3    0    0  0.46724186880E+01 -0.82611694396E+01  0.53984171521E+01  0.10918851813E+02  0.51100000000E-03 0. -1.
        -11    1    3    3    0    0  0.16569419015E+02 -0.25977076630E+02 -0.57602571144E+01  0.31345409856E+02  0.51100000000E-03 0.  1.
        -12    1    3    3    0    0  0.22362507956E+01 -0.19149675022E+01 -0.46728637883E+01  0.55230040865E+01  0.00000000000E+00 0.  1.
</event>
<event>
 7    1  0.2598019E-009  0.4778725E+02  0.7816164E-02  0.1312668E+00
        -11   -1    0    0    0    0  0.00000000000E+00  0.00000000000E+00  0.45593999997E+02  0.45594000000E+02  0.51100000000E-03 0.  1.
         11   -1    0    0    0    0 -0.00000000000E+00 -0.00000000000E+00 -0.45593999997E+02  0.45594000000E+02  0.51100000000E-03 0. -1.
    9900012    2    1    2    0    0  0.27354207001E+02  0.66157717602E+01 -0.33039430281E+02  0.47787250814E+02  0.19999907759E+02 0.  0.
        -12    1    1    2    0    0 -0.27354207001E+02 -0.66157717602E+01  0.33039430281E+02  0.43400749186E+02  0.00000000000E+00 0.  1.
         11    1    3    3    0    0  0.18324299256E+01  0.17305249741E+01  0.20691305276E+01  0.32609534679E+01  0.51100000000E-03 0. -1.
        -11    1    3    3    0    0  0.66634172775E+01  0.43118922391E+01 -0.65113880043E+01  0.10266046878E+02  0.51100000000E-03 0.  1.
         12    1    3    3    0    0  0.18858359798E+02  0.57335454698E+00 -0.28597172804E+02  0.34260250468E+02  0.00000000000E+00 0. -1.
</event>
<event>
 7    1  0.2598019E-009  0.4778727E+02  0.7816164E-02  0.1312668E+00
        -11   -1    0    0    0    0  0.00000000000E+00  0.00000000000E+00  0.45593999997E+02  0.45594000000E+02  0.51100000000E-03 0. -1.
         11   -1    0    0    0    0 -0.00000000000E+00 -0.00000000000E+00 -0.45593999997E+02  0.45594000000E+02  0.51100000000E-03 0.  1.
    9900012    2    1    2    0    0  0.25671567795E+02 -0.22417745360E+02  0.26870776675E+02  0.47787270292E+02  0.19999996568E+02 0.  0.
        -12    1    1    2    0    0 -0.25671567795E+02  0.22417745360E+02 -0.26870776675E+02  0.43400729708E+02  0.00000000000E+00 0.  1.
         11    1    3    3    0    0  0.16076094189E+02 -0.23739959703E+02  0.20255312509E+02  0.35104190293E+02  0.51100000000E-03 0. -1.
        -11    1    3    3    0    0  0.85169775230E+01 -0.44793948231E+00  0.62610285778E+01  0.10580171786E+02  0.51100000000E-03 0.  1.
         12    1    3    3    0    0  0.10784960835E+01  0.17701538246E+01  0.35443558813E+00  0.21029082127E+01  0.00000000000E+00 0. -1.
</event>
<event>
 7    1  0.2598019E-009  0.4778727E+02  0.7816164E-02  0.1312668E+00
        -11   -1    0    0    0    0  0.00000000000E+00  0.00000000000E+00  0.45593999997E+02  0.45594000000E+02  0.51100000000E-03 0.  1.
         11   -1    0    0    0    0 -0.00000000000E+00 -0.00000000000E+00 -0.45593999997E+02  0.45594000000E+02  0.51100000000E-03 0. -1.
    9900012    2    1    2    0    0  0.21106862276E+02  0.25926347935E+02 -0.27675769141E+02  0.47787270168E+02  0.19999996005E+02 0.  0.
        -12    1    1    2    0    0 -0.21106862276E+02 -0.25926347935E+02  0.27675769141E+02  0.43400729832E+02  0.00000000000E+00 0.  1.
         11    1    3    3    0    0  0.20402777983E+02  0.19736294931E+02 -0.22639433558E+02  0.36308933324E+02  0.51100000000E-03 0. -1.
        -11    1    3    3    0    0  0.37496875419E+01  0.18873909212E+01 -0.14810325524E-01  0.41979305328E+01  0.51100000000E-03 0.  1.
         12    1    3    3    0    0 -0.30456032490E+01  0.43026620832E+01 -0.50215252576E+01  0.72804063118E+01  0.00000000000E+00 0. -1.
</event>
<event>
 7    1  0.2598019E-009  0.4778727E+02  0.7816164E-02  0.1312668E+00
        -11   -1    0    0    0    0  0.00000000000E+00  0.00000000000E+00  0.45593999997E+02  0.45594000000E+02  0.51100000000E-03 0. -1.
         11   -1    0    0    0    0 -0.00000000000E+00 -0.00000000000E+00 -0.45593999997E+02  0.45594000000E+02  0.51100000000E-03 0.  1.
    9900012    2    1    2    0    0  0.13693965971E+02  0.76811384886E+01  0.40461074148E+02  0.47787272890E+02  0.20000008414E+02 0.  0.
        -12    1    1    2    0    0 -0.13693965971E+02 -0.76811384886E+01 -0.40461074148E+02  0.43400727110E+02  0.00000000000E+00 0.  1.
         11    1    3    3    0    0  0.11245064748E+02 -0.22787925625E+01  0.27004428075E+02  0.29340816496E+02  0.51100000000E-03 0. -1.
        -11    1    3    3    0    0 -0.21808235430E+01  0.51546076941E+01  0.83119342071E+01  0.10020689713E+02  0.51100000000E-03 0.  1.
         12    1    3    3    0    0  0.46297247660E+01  0.48053233570E+01  0.51447118657E+01  0.84257666805E+01  0.00000000000E+00 0. -1.
</event>
<event>
 7    1  0.2598019E-009  0.4778731E+02  0.7816164E-02  0.1312668E+00
        -11   -1    0    0    0    0  0.00000000000E+00  0.00000000000E+00  0.45593999997E+02  0.45594000000E+02  0.51100000000E-03 0.  1.
         11   -1    0    0    0    0 -0.00000000000E+00 -0.00000000000E+00 -0.45593999997E+02  0.45594000000E+02  0.51100000000E-03 0. -1.
    9900012    2    1    2    0    0 -0.33544626782E+02  0.11982384272E+02 -0.24795175741E+02  0.47787305780E+02  0.20000158371E+02 0.  0.
        -12    1    1    2    0    0  0.33544626782E+02 -0.11982384272E+02  0.24795175741E+02  0.43400694220E+02  0.00000000000E+00 0.  1.
         11    1    3    3    0    0 -0.22220278883E+02 -0.10960059680E+00 -0.15696875633E+02  0.27205600725E+02  0.51100000000E-03 0. -1.
        -11    1    3    3    0    0 -0.36720731856E+01  0.92201289151E+01 -0.29488698454E+01  0.10353295723E+02  0.51100000000E-03 0.  1.
        -12    1    3    3    0    0 -0.76522747133E+01  0.28718559537E+01 -0.61494302624E+01  0.10228409332E+02  0.00000000000E+00 0.  1.
</event>
<event>
 7    1  0.2598019E-009  0.4778727E+02  0.7816164E-02  0.1312668E+00
        -11   -1    0    0    0    0  0.00000000000E+00  0.00000000000E+00  0.45593999997E+02  0.45594000000E+02  0.51100000000E-03 0. -1.
         11   -1    0    0    0    0 -0.00000000000E+00 -0.00000000000E+00 -0.45593999997E+02  0.45594000000E+02  0.51100000000E-03 0.  1.
    9900012    2    1    2    0    0  0.85113146241E+01 -0.19444867443E+02  0.37856019269E+02  0.47787267963E+02  0.19999985948E+02 0.  0.
        -12    1    1    2    0    0 -0.85113146241E+01  0.19444867443E+02 -0.37856019269E+02  0.43400732037E+02  0.00000000000E+00 0.  1.
         11    1    3    3    0    0 -0.78813039314E+00 -0.70848265684E+01  0.19141976407E+02  0.20426237491E+02  0.51100000000E-03 0. -1.
        -11    1    3    3    0    0  0.11195780960E+02 -0.50532101011E+01  0.10059609151E+02  0.15876907134E+02  0.51100000000E-03 0.  1.
        -12    1    3    3    0    0 -0.18963359424E+01 -0.73068307740E+01  0.86544337107E+01  0.11484123337E+02  0.00000000000E+00 0.  1.
</event>
<event>
 7    1  0.2598019E-009  0.4778730E+02  0.7816164E-02  0.1312668E+00
        -11   -1    0    0    0    0  0.00000000000E+00  0.00000000000E+00  0.45593999997E+02  0.45594000000E+02  0.51100000000E-03 0.  1.
         11   -1    0    0    0    0 -0.00000000000E+00 -0.00000000000E+00 -0.45593999997E+02  0.45594000000E+02  0.51100000000E-03 0. -1.
    9900012    2    1    2    0    0 -0.18656057334E+02  0.52559919964E+01 -0.38832294215E+02  0.47787297228E+02  0.20000119382E+02 0.  0.
        -12    1    1    2    0    0  0.18656057334E+02 -0.52559919964E+01  0.38832294215E+02  0.43400702772E+02  0.00000000000E+00 0.  1.
         11    1    3    3    0    0 -0.14116101240E+01 -0.59504351662E+01 -0.11848058063E+02  0.13333296739E+02  0.51100000000E-03 0. -1.
        -11    1    3    3    0    0 -0.10761471562E+02  0.75874996792E+01 -0.12392088191E+02  0.18081572707E+02  0.51100000000E-03 0.  1.
        -12    1    3    3    0    0 -0.64829756483E+01  0.36189274834E+01 -0.14592147961E+02  0.16372427782E+02  0.00000000000E+00 0.  1.
</event>
<event>
 7    1  0.2598019E-009  0.4778728E+02  0.7816164E-02  0.1312668E+00
        -11   -1    0    0    0    0  0.00000000000E+00  0.00000000000E+00  0.45593999997E+02  0.45594000000E+02  0.51100000000E-03 0. -1.
         11   -1    0    0    0    0 -0.00000000000E+00 -0.00000000000E+00 -0.45593999997E+02  0.45594000000E+02  0.51100000000E-03 0.  1.
    9900012    2    1    2    0    0  0.23383981644E+01  0.78674851563E+01  0.42617563399E+02  0.47787284122E+02  0.20000059624E+02 0.  0.
        -12    1    1    2    0    0 -0.23383981644E+01 -0.78674851563E+01 -0.42617563399E+02  0.43400715878E+02  0.00000000000E+00 0.  1.
         11    1    3    3    0    0  0.51991854253E+01  0.63124491073E+01  0.40606996150E+02  0.41422296887E+02  0.51100000000E-03 0. -1.
        -11    1    3    3    0    0 -0.16629644186E+01 -0.18142161139E+01  0.73551662064E+00  0.25686213668E+01  0.51100000000E-03 0.  1.
         12    1    3    3    0    0 -0.11978228423E+01  0.33692521628E+01  0.12750506289E+01  0.37963658681E+01  0.00000000000E+00 0. -1.
</event>
<event>
 7    1  0.2598019E-009  0.4778727E+02  0.7816164E-02  0.1312668E+00
        -11   -1    0    0    0    0  0.00000000000E+00  0.00000000000E+00  0.45593999997E+02  0.45594000000E+02  0.51100000000E-03 0.  1.
         11   -1    0    0    0    0 -0.00000000000E+00 -0.00000000000E+00 -0.45593999997E+02  0.45594000000E+02  0.51100000000E-03 0. -1.
    9900012    2    1    2    0    0  0.41622169877E+02 -0.12278687397E+02  0.67240911871E+00  0.47787270473E+02  0.19999997395E+02 0.  0.
        -12    1    1    2    0    0 -0.41622169877E+02  0.12278687397E+02 -0.67240911871E+00  0.43400729527E+02  0.00000000000E+00 0.  1.
         11    1    3    3    0    0  0.42258077837E+01 -0.11653824832E+01 -0.13000917101E+01  0.45722867881E+01  0.51100000000E-03 0. -1.
        -11    1    3    3    0    0  0.55212701809E+01  0.23373366173E+01 -0.51368544937E+01  0.78952416824E+01  0.51100000000E-03 0.  1.
        -12    1    3    3    0    0  0.31875091912E+02 -0.13450641531E+02  0.71093553226E+01  0.35319742003E+02  0.00000000000E+00 0.  1.
</event>
<event>
 7    1  0.2598019E-009  0.4778726E+02  0.7816164E-02  0.1312668E+00
        -11   -1    0    0    0    0  0.00000000000E+00  0.00000000000E+00  0.45593999997E+02  0.45594000000E+02  0.51100000000E-03 0.  1.
         11   -1    0    0    0    0 -0.00000000000E+00 -0.00000000000E+00 -0.45593999997E+02  0.45594000000E+02  0.51100000000E-03 0. -1.
    9900012    2    1    2    0    0 -0.11685856972E+02  0.56148065718E+01 -0.41419064824E+02  0.47787259950E+02  0.19999949415E+02 0.  0.
        -12    1    1    2    0    0  0.11685856972E+02 -0.56148065718E+01  0.41419064824E+02  0.43400740050E+02  0.00000000000E+00 0.  1.
         11    1    3    3    0    0 -0.10281973832E+02  0.53926251218E+01 -0.11725572225E+02  0.16501164682E+02  0.51100000000E-03 0. -1.
        -11    1    3    3    0    0  0.51901061074E+00 -0.29142381483E+01 -0.25874954065E+01  0.39315758595E+01  0.51100000000E-03 0.  1.
         12    1    3    3    0    0 -0.19228937509E+01  0.31364195984E+01 -0.27105997192E+02  0.27354519408E+02  0.00000000000E+00 0. -1.
</event>
<event>
 7    1  0.2598019E-009  0.4778726E+02  0.7816164E-02  0.1312668E+00
        -11   -1    0    0    0    0  0.00000000000E+00  0.00000000000E+00  0.45593999997E+02  0.45594000000E+02  0.51100000000E-03 0. -1.
         11   -1    0    0    0    0 -0.00000000000E+00 -0.00000000000E+00 -0.45593999997E+02  0.45594000000E+02  0.51100000000E-03 0.  1.
    9900012    2    1    2    0    0 -0.29815131441E+02 -0.25483016115E+02  0.18582189646E+02  0.47787263310E+02  0.19999964737E+02 0.  0.
        -12    1    1    2    0    0  0.29815131441E+02  0.25483016115E+02 -0.18582189646E+02  0.43400736690E+02  0.00000000000E+00 0.  1.
         11    1    3    3    0    0 -0.70820142035E+01 -0.39909073572E+01 -0.26407581614E+01  0.85472727019E+01  0.51100000000E-03 0. -1.
        -11    1    3    3    0    0 -0.16694624702E+02 -0.19784627309E+02  0.13211611487E+02  0.29063527832E+02  0.51100000000E-03 0.  1.
        -12    1    3    3    0    0 -0.60384925361E+01 -0.17074814486E+01  0.80113363200E+01  0.10176462776E+02  0.00000000000E+00 0.  1.
</event>
<event>
 7    1  0.2598019E-009  0.4778727E+02  0.7816164E-02  0.1312668E+00
        -11   -1    0    0    0    0  0.00000000000E+00  0.00000000000E+00  0.45593999997E+02  0.45594000000E+02  0.51100000000E-03 0.  1.
         11   -1    0    0    0    0 -0.00000000000E+00 -0.00000000000E+00 -0.45593999997E+02  0.45594000000E+02  0.51100000000E-03 0. -1.
    9900012    2    1    2    0    0  0.27516081545E+02 -0.31902887699E+02 -0.10425665294E+02  0.47787268625E+02  0.19999988967E+02 0.  0.
        -12    1    1    2    0    0 -0.27516081545E+02  0.31902887699E+02  0.10425665294E+02  0.43400731375E+02  0.00000000000E+00 0.  1.
         11    1    3    3    0    0  0.12410902905E+02 -0.22231309283E+02  0.17629167367E+01  0.25521941522E+02  0.51100000000E-03 0. -1.
        -11    1    3    3    0    0  0.42294952056E+01 -0.25064030679E+00 -0.30354876716E+01  0.52120663774E+01  0.51100000000E-03 0.  1.
         12    1    3    3    0    0  0.10875683434E+02 -0.94209381089E+01 -0.91530943595E+01  0.17053260726E+02  0.00000000000E+00 0. -1.
</event>
<event>
 7    1  0.2598019E-009  0.4778727E+02  0.7816164E-02  0.1312668E+00
        -11   -1    0    0    0    0  0.00000000000E+00  0.00000000000E+00  0.45593999997E+02  0.45594000000E+02  0.51100000000E-03 0.  1.
         11   -1    0    0    0    0 -0.00000000000E+00 -0.00000000000E+00 -0.45593999997E+02  0.45594000000E+02  0.51100000000E-03 0. -1.
    9900012    2    1    2    0    0 -0.41150446184E+02  0.13064526595E+02 -0.44251597400E+01  0.47787272875E+02  0.20000008346E+02 0.  0.
        -12    1    1    2    0    0  0.41150446184E+02 -0.13064526595E+02  0.44251597400E+01  0.43400727125E+02  0.00000000000E+00 0.  1.
         11    1    3    3    0    0 -0.18535284893E+02  0.13959396654E+00 -0.77540210584E+01  0.20092314834E+02  0.51100000000E-03 0. -1.
        -11    1    3    3    0    0  0.20346944971E+00 -0.30155169251E+00  0.11776768574E+01  0.12325811461E+01  0.51100000000E-03 0.  1.
         12    1    3    3    0    0 -0.22818630740E+02  0.13226484321E+02  0.21511844610E+01  0.26462376895E+02  0.00000000000E+00 0. -1.
</event>
<event>
 7    1  0.2598019E-009  0.4778727E+02  0.7816164E-02  0.1312668E+00
        -11   -1    0    0    0    0  0.00000000000E+00  0.00000000000E+00  0.45593999997E+02  0.45594000000E+02  0.51100000000E-03 0.  1.
         11   -1    0    0    0    0 -0.00000000000E+00 -0.00000000000E+00 -0.45593999997E+02  0.45594000000E+02  0.51100000000E-03 0. -1.
    9900012    2    1    2    0    0 -0.32856740759E+02  0.15461915542E+02 -0.23769450467E+02  0.47787273957E+02  0.20000013281E+02 0.  0.
        -12    1    1    2    0    0  0.32856740759E+02 -0.15461915542E+02  0.23769450467E+02  0.43400726043E+02  0.00000000000E+00 0.  1.
         11    1    3    3    0    0 -0.47249162480E+01  0.71065303345E+01 -0.10836876966E+02  0.13793676435E+02  0.51100000000E-03 0. -1.
        -11    1    3    3    0    0 -0.28394581371E+02  0.62792449326E+01 -0.13098381803E+02  0.31894337653E+02  0.51100000000E-03 0.  1.
        -12    1    3    3    0    0  0.26275686016E+00  0.20761402747E+01  0.16580830231E+00  0.20992598698E+01  0.00000000000E+00 0.  1.
</event>
<event>
 7    1  0.2598019E-009  0.4778724E+02  0.7816164E-02  0.1312668E+00
        -11   -1    0    0    0    0  0.00000000000E+00  0.00000000000E+00  0.45593999997E+02  0.45594000000E+02  0.51100000000E-03 0.  1.
         11   -1    0    0    0    0 -0.00000000000E+00 -0.00000000000E+00 -0.45593999997E+02  0.45594000000E+02  0.51100000000E-03 0. -1.
    9900012    2    1    2    0    0 -0.26253490366E+02 -0.25588545561E+02 -0.23229423751E+02  0.47787244844E+02  0.19999880540E+02 0.  0.
        -12    1    1    2    0    0  0.26253490366E+02  0.25588545561E+02  0.23229423751E+02  0.43400755156E+02  0.00000000000E+00 0.  1.
         11    1    3    3    0    0 -0.81845445776E+01  0.78706488886E+00 -0.10535413989E+02  0.13364175593E+02  0.51100000000E-03 0.  1.
        -11    1    3    3    0    0 -0.11598664291E+02 -0.16758405930E+02 -0.87452400708E+01  0.22177745756E+02  0.51100000000E-03 0. -1.
        -12    1    3    3    0    0 -0.64702814981E+01 -0.96172045196E+01 -0.39487696913E+01  0.12245323496E+02  0.00000000000E+00 0.  1.
</event>
<event>
 7    1  0.2598019E-009  0.4778727E+02  0.7816164E-02  0.1312668E+00
        -11   -1    0    0    0    0  0.00000000000E+00  0.00000000000E+00  0.45593999997E+02  0.45594000000E+02  0.51100000000E-03 0. -1.
         11   -1    0    0    0    0 -0.00000000000E+00 -0.00000000000E+00 -0.45593999997E+02  0.45594000000E+02  0.51100000000E-03 0.  1.
    9900012    2    1    2    0    0 -0.23270350831E+02  0.73154786578E+01  0.35897047046E+02  0.47787269103E+02  0.19999991148E+02 0.  0.
        -12    1    1    2    0    0  0.23270350831E+02 -0.73154786578E+01 -0.35897047046E+02  0.43400730897E+02  0.00000000000E+00 0.  1.
         11    1    3    3    0    0 -0.11175899727E+02  0.85831772925E+01  0.22262987553E+02  0.26347908497E+02  0.51100000000E-03 0. -1.
        -11    1    3    3    0    0 -0.11210568567E+01 -0.13469441112E+01 -0.17932106875E+01  0.25073156454E+01  0.51100000000E-03 0.  1.
        -12    1    3    3    0    0 -0.10973394247E+02  0.79245476569E-01  0.15427270181E+02  0.18932044960E+02  0.00000000000E+00 0.  1.
</event>
<event>
 7    1  0.2598019E-009  0.4778727E+02  0.7816164E-02  0.1312668E+00
        -11   -1    0    0    0    0  0.00000000000E+00  0.00000000000E+00  0.45593999997E+02  0.45594000000E+02  0.51100000000E-03 0.  1.
         11   -1    0    0    0    0 -0.00000000000E+00 -0.00000000000E+00 -0.45593999997E+02  0.45594000000E+02  0.51100000000E-03 0. -1.
    9900012    2    1    2    0    0 -0.34549006413E+02 -0.24499315318E+02  0.94748449155E+01  0.47787274414E+02  0.20000015365E+02 0.  0.
        -12    1    1    2    0    0  0.34549006413E+02  0.24499315318E+02 -0.94748449155E+01  0.43400725586E+02  0.00000000000E+00 0.  1.
         11    1    3    3    0    0 -0.57341546207E+01 -0.59916280459E+01  0.22019834973E+00  0.82963017923E+01  0.51100000000E-03 0. -1.
        -11    1    3    3    0    0 -0.59937033294E+01 -0.15810037276E+01 -0.47541344262E+01  0.78119041719E+01  0.51100000000E-03 0.  1.
        -12    1    3    3    0    0 -0.22821148463E+02 -0.16926683545E+02  0.14008780992E+02  0.31679068450E+02  0.00000000000E+00 0.  1.
</event>
<event>
 7    1  0.2598019E-009  0.4778727E+02  0.7816164E-02  0.1312668E+00
        -11   -1    0    0    0    0  0.00000000000E+00  0.00000000000E+00  0.45593999997E+02  0.45594000000E+02  0.51100000000E-03 0. -1.
         11   -1    0    0    0    0 -0.00000000000E+00 -0.00000000000E+00 -0.45593999997E+02  0.45594000000E+02  0.51100000000E-03 0.  1.
    9900012    2    1    2    0    0 -0.28245447033E+02 -0.28109130080E+02  0.17195773526E+02  0.47787273058E+02  0.20000009180E+02 0.  0.
        -12    1    1    2    0    0  0.28245447033E+02  0.28109130080E+02 -0.17195773526E+02  0.43400726942E+02  0.00000000000E+00 0.  1.
         11    1    3    3    0    0 -0.14754489663E+02 -0.15710514386E+02  0.11244890643E+02  0.24309726311E+02  0.51100000000E-03 0. -1.
        -11    1    3    3    0    0 -0.74418526956E+01  0.14552870914E+01  0.23346152208E+01  0.79340696085E+01  0.51100000000E-03 0.  1.
        -12    1    3    3    0    0 -0.60491046739E+01 -0.13853902785E+02  0.36162676630E+01  0.15543477138E+02  0.00000000000E+00 0.  1.
</event>
<event>
 7    1  0.2598019E-009  0.4778727E+02  0.7816164E-02  0.1312668E+00
        -11   -1    0    0    0    0  0.00000000000E+00  0.00000000000E+00  0.45593999997E+02  0.45594000000E+02  0.51100000000E-03 0.  1.
         11   -1    0    0    0    0 -0.00000000000E+00 -0.00000000000E+00 -0.45593999997E+02  0.45594000000E+02  0.51100000000E-03 0. -1.
    9900012    2    1    2    0    0  0.68437943635E+01  0.87958393481E+01 -0.41945428243E+02  0.47787271186E+02  0.20000000645E+02 0.  0.
        -12    1    1    2    0    0 -0.68437943635E+01 -0.87958393481E+01  0.41945428243E+02  0.43400728814E+02  0.00000000000E+00 0.  1.
         11    1    3    3    0    0  0.74385812191E+01  0.42464050113E+00 -0.30856226941E+02  0.31743023665E+02  0.51100000000E-03 0. -1.
        -11    1    3    3    0    0  0.86751311775E+00  0.95064907654E+01 -0.10265258281E+02  0.14017898327E+02  0.51100000000E-03 0.  1.
        -12    1    3    3    0    0 -0.14622999733E+01 -0.11352919185E+01 -0.82394302131E+00  0.20263491936E+01  0.00000000000E+00 0.  1.
</event>
<event>
 7    1  0.2598019E-009  0.4778727E+02  0.7816164E-02  0.1312668E+00
        -11   -1    0    0    0    0  0.00000000000E+00  0.00000000000E+00  0.45593999997E+02  0.45594000000E+02  0.51100000000E-03 0. -1.
         11   -1    0    0    0    0 -0.00000000000E+00 -0.00000000000E+00 -0.45593999997E+02  0.45594000000E+02  0.51100000000E-03 0.  1.
    9900012    2    1    2    0    0 -0.40598767208E+01  0.34676155046E+02  0.25781872334E+02  0.47787271103E+02  0.20000000267E+02 0.  0.
        -12    1    1    2    0    0  0.40598767208E+01 -0.34676155046E+02 -0.25781872334E+02  0.43400728897E+02  0.00000000000E+00 0.  1.
         11    1    3    3    0    0 -0.24577253342E+01  0.21203316542E+02  0.11518228794E+02  0.24254703482E+02  0.51100000000E-03 0. -1.
        -11    1    3    3    0    0  0.26619742553E+01  0.57922076520E+01  0.13231762916E+02  0.14687250476E+02  0.51100000000E-03 0.  1.
        -12    1    3    3    0    0 -0.42641256419E+01  0.76806308520E+01  0.10318806241E+01  0.88453171451E+01  0.00000000000E+00 0.  1.
</event>
<event>
 7    1  0.2598019E-009  0.4778727E+02  0.7816164E-02  0.1312668E+00
        -11   -1    0    0    0    0  0.00000000000E+00  0.00000000000E+00  0.45593999997E+02  0.45594000000E+02  0.51100000000E-03 0. -1.
         11   -1    0    0    0    0 -0.00000000000E+00 -0.00000000000E+00 -0.45593999997E+02  0.45594000000E+02  0.51100000000E-03 0.  1.
    9900012    2    1    2    0    0 -0.32350985940E+02 -0.28618485881E+02  0.42449078573E+01  0.47787271110E+02  0.20000000299E+02 0.  0.
        -12    1    1    2    0    0  0.32350985940E+02  0.28618485881E+02 -0.42449078573E+01  0.43400728890E+02  0.00000000000E+00 0.  1.
         11    1    3    3    0    0 -0.93843159934E+01 -0.12120916295E+02  0.51269312919E+00  0.15337693862E+02  0.51100000000E-03 0.  1.
        -11    1    3    3    0    0 -0.21384610344E+02 -0.18167426938E+02  0.65478793376E+01  0.28813741256E+02  0.51100000000E-03 0. -1.
        -12    1    3    3    0    0 -0.15820596031E+01  0.16698573521E+01 -0.28156646095E+01  0.36358359915E+01  0.00000000000E+00 0.  1.
</event>
<event>
 7    1  0.2598019E-009  0.4778727E+02  0.7816164E-02  0.1312668E+00
        -11   -1    0    0    0    0  0.00000000000E+00  0.00000000000E+00  0.45593999997E+02  0.45594000000E+02  0.51100000000E-03 0.  1.
         11   -1    0    0    0    0 -0.00000000000E+00 -0.00000000000E+00 -0.45593999997E+02  0.45594000000E+02  0.51100000000E-03 0. -1.
    9900012    2    1    2    0    0 -0.17441250081E+02 -0.38577824330E+02 -0.95486914568E+01  0.47787271400E+02  0.20000001623E+02 0.  0.
        -12    1    1    2    0    0  0.17441250081E+02  0.38577824330E+02  0.95486914568E+01  0.43400728600E+02  0.00000000000E+00 0.  1.
         11    1    3    3    0    0 -0.76783255240E+01 -0.19353945950E+02 -0.40157201728E+01  0.21205138893E+02  0.51100000000E-03 0. -1.
        -11    1    3    3    0    0 -0.22647174664E+01 -0.79924110110E+01 -0.93905703485E+01  0.12537559200E+02  0.51100000000E-03 0.  1.
        -12    1    3    3    0    0 -0.74982070905E+01 -0.11231467369E+02  0.38575990646E+01  0.14044573307E+02  0.00000000000E+00 0.  1.
</event>
<event>
 7    1  0.3092624E-009  0.4778727E+02  0.7816164E-02  0.1312668E+00
        -11   -1    0    0    0    0  0.00000000000E+00  0.00000000000E+00  0.45593999997E+02  0.45594000000E+02  0.51100000000E-03 0.  1.
         11   -1    0    0    0    0 -0.00000000000E+00 -0.00000000000E+00 -0.45593999997E+02  0.45594000000E+02  0.51100000000E-03 0. -1.
    9900012    2    1    2    0    0  0.28881554165E+02 -0.21118126948E+02 -0.24566316445E+02  0.47787270047E+02  0.19999995453E+02 0.  0.
        -12    1    1    2    0    0 -0.28881554165E+02  0.21118126948E+02  0.24566316445E+02  0.43400729953E+02  0.00000000000E+00 0.  1.
         11    1    3    3    0    0  0.15753505901E+02 -0.18543432679E+02 -0.16363709465E+02  0.29322394709E+02  0.51100000000E-03 0. -1.
        -11    1    3    3    0    0 -0.11286414532E+01  0.33556991213E+00  0.73540422679E+00  0.13882573010E+01  0.51100000000E-03 0.  1.
         12    1    3    3    0    0  0.14256689716E+02 -0.29102641805E+01 -0.89380112067E+01  0.17076618038E+02  0.00000000000E+00 0. -1.
</event>
<event>
 7    1  0.2598019E-009  0.4778727E+02  0.7816164E-02  0.1312668E+00
        -11   -1    0    0    0    0  0.00000000000E+00  0.00000000000E+00  0.45593999997E+02  0.45594000000E+02  0.51100000000E-03 0.  1.
         11   -1    0    0    0    0 -0.00000000000E+00 -0.00000000000E+00 -0.45593999997E+02  0.45594000000E+02  0.51100000000E-03 0. -1.
    9900012    2    1    2    0    0  0.28143738453E+02 -0.28282637649E+02 -0.17077639415E+02  0.47787269886E+02  0.19999994716E+02 0.  0.
        -12    1    1    2    0    0 -0.28143738453E+02  0.28282637649E+02  0.17077639415E+02  0.43400730114E+02  0.00000000000E+00 0.  1.
         11    1    3    3    0    0  0.16884787884E+01 -0.33389767335E+01 -0.85121462059E+01  0.92981911971E+01  0.51100000000E-03 0. -1.
        -11    1    3    3    0    0  0.13835435289E+02 -0.17685231692E+02 -0.20759790533E+01  0.22549864277E+02  0.51100000000E-03 0.  1.
        -12    1    3    3    0    0  0.12619824376E+02 -0.72584292229E+01 -0.64895141558E+01  0.15939214411E+02  0.00000000000E+00 0.  1.
</event>
<event>
 7    1  0.2598019E-009  0.4778727E+02  0.7816164E-02  0.1312668E+00
        -11   -1    0    0    0    0  0.00000000000E+00  0.00000000000E+00  0.45593999997E+02  0.45594000000E+02  0.51100000000E-03 0.  1.
         11   -1    0    0    0    0 -0.00000000000E+00 -0.00000000000E+00 -0.45593999997E+02  0.45594000000E+02  0.51100000000E-03 0. -1.
    9900012    2    1    2    0    0 -0.37729624771E+02  0.95654899213E+01  0.19198958492E+02  0.47787272011E+02  0.20000004407E+02 0.  0.
        -12    1    1    2    0    0  0.37729624771E+02 -0.95654899213E+01 -0.19198958492E+02  0.43400727989E+02  0.00000000000E+00 0.  1.
         11    1    3    3    0    0 -0.19114135545E+02  0.28868492202E+01  0.77903848879E+01  0.20841645161E+02  0.51100000000E-03 0. -1.
        -11    1    3    3    0    0 -0.12279460303E+02  0.83544401152E+01  0.13495337626E+02  0.20067534798E+02  0.51100000000E-03 0.  1.
        -12    1    3    3    0    0 -0.63360289228E+01 -0.16757994141E+01 -0.20867640224E+01  0.68780920517E+01  0.00000000000E+00 0.  1.
</event>
<event>
 7    1  0.2598019E-009  0.4778727E+02  0.7816164E-02  0.1312668E+00
        -11   -1    0    0    0    0  0.00000000000E+00  0.00000000000E+00  0.45593999997E+02  0.45594000000E+02  0.51100000000E-03 0.  1.
         11   -1    0    0    0    0 -0.00000000000E+00 -0.00000000000E+00 -0.45593999997E+02  0.45594000000E+02  0.51100000000E-03 0. -1.
    9900012    2    1    2    0    0  0.84657838220E+01 -0.14201376832E+02 -0.40128226679E+02  0.47787272172E+02  0.20000005139E+02 0.  0.
        -12    1    1    2    0    0 -0.84657838220E+01  0.14201376832E+02  0.40128226679E+02  0.43400727828E+02  0.00000000000E+00 0.  1.
         11    1    3    3    0    0  0.54893132433E+01 -0.48253438853E+01 -0.69870268792E+01  0.10111134870E+02  0.51100000000E-03 0. -1.
        -11    1    3    3    0    0  0.78427963052E+01 -0.63143032401E+01 -0.11503321907E+02  0.15287455460E+02  0.51100000000E-03 0.  1.
        -12    1    3    3    0    0 -0.48663257264E+01 -0.30617297061E+01 -0.21637877893E+02  0.22388681841E+02  0.00000000000E+00 0.  1.
</event>
<event>
 7    1  0.2598019E-009  0.4778727E+02  0.7816164E-02  0.1312668E+00
        -11   -1    0    0    0    0  0.00000000000E+00  0.00000000000E+00  0.45593999997E+02  0.45594000000E+02  0.51100000000E-03 0. -1.
         11   -1    0    0    0    0 -0.00000000000E+00 -0.00000000000E+00 -0.45593999997E+02  0.45594000000E+02  0.51100000000E-03 0.  1.
    9900012    2    1    2    0    0 -0.15816871837E+02  0.31700215911E+02  0.25070823246E+02  0.47787270723E+02  0.19999998533E+02 0.  0.
        -12    1    1    2    0    0  0.15816871837E+02 -0.31700215911E+02 -0.25070823246E+02  0.43400729277E+02  0.00000000000E+00 0.  1.
         11    1    3    3    0    0  0.24316467867E+01  0.80317407310E+01  0.10473577433E+02  0.13420789462E+02  0.51100000000E-03 0. -1.
        -11    1    3    3    0    0 -0.10880555903E+02  0.98674147164E+01  0.10899476547E+02  0.18290734244E+02  0.51100000000E-03 0.  1.
         12    1    3    3    0    0 -0.73679627210E+01  0.13801060464E+02  0.36977692658E+01  0.16075747016E+02  0.00000000000E+00 0. -1.
</event>
<event>
 7    1  0.2598019E-009  0.4778727E+02  0.7816164E-02  0.1312668E+00
        -11   -1    0    0    0    0  0.00000000000E+00  0.00000000000E+00  0.45593999997E+02  0.45594000000E+02  0.51100000000E-03 0.  1.
         11   -1    0    0    0    0 -0.00000000000E+00 -0.00000000000E+00 -0.45593999997E+02  0.45594000000E+02  0.51100000000E-03 0. -1.
    9900012    2    1    2    0    0 -0.19661021292E+02  0.35416036215E+02 -0.15581137841E+02  0.47787271482E+02  0.20000001995E+02 0.  0.
        -12    1    1    2    0    0  0.19661021292E+02 -0.35416036215E+02  0.15581137841E+02  0.43400728518E+02  0.00000000000E+00 0.  1.
         11    1    3    3    0    0 -0.78636495554E+01  0.17268427778E+02 -0.15591233875E+02  0.24558545484E+02  0.51100000000E-03 0. -1.
        -11    1    3    3    0    0 -0.11972980545E+02  0.11622338541E+02 -0.36602679415E+00  0.16690266390E+02  0.51100000000E-03 0.  1.
         12    1    3    3    0    0  0.17560880757E+00  0.65252698959E+01  0.37612282836E+00  0.65384596084E+01  0.00000000000E+00 0. -1.
</event>
<event>
 7    1  0.2598019E-009  0.4778727E+02  0.7816164E-02  0.1312668E+00
        -11   -1    0    0    0    0  0.00000000000E+00  0.00000000000E+00  0.45593999997E+02  0.45594000000E+02  0.51100000000E-03 0.  1.
         11   -1    0    0    0    0 -0.00000000000E+00 -0.00000000000E+00 -0.45593999997E+02  0.45594000000E+02  0.51100000000E-03 0. -1.
    9900012    2    1    2    0    0  0.14688021542E+02 -0.11075974864E+02 -0.39309132437E+02  0.47787273175E+02  0.20000009712E+02 0.  0.
        -12    1    1    2    0    0 -0.14688021542E+02  0.11075974864E+02  0.39309132437E+02  0.43400726825E+02  0.00000000000E+00 0.  1.
         11    1    3    3    0    0  0.62994975466E+01 -0.54068941191E+00 -0.23478401250E+02  0.24314837854E+02  0.51100000000E-03 0. -1.
        -11    1    3    3    0    0  0.22070563315E+01 -0.10369898167E+01  0.14277841926E+01  0.28257766175E+01  0.51100000000E-03 0.  1.
        -12    1    3    3    0    0  0.61814676642E+01 -0.94982956356E+01 -0.17258515380E+02  0.20646658703E+02  0.00000000000E+00 0.  1.
</event>
<event>
 7    1  0.2598019E-009  0.4778725E+02  0.7816164E-02  0.1312668E+00
        -11   -1    0    0    0    0  0.00000000000E+00  0.00000000000E+00  0.45593999997E+02  0.45594000000E+02  0.51100000000E-03 0.  1.
         11   -1    0    0    0    0 -0.00000000000E+00 -0.00000000000E+00 -0.45593999997E+02  0.45594000000E+02  0.51100000000E-03 0. -1.
    9900012    2    1    2    0    0  0.41950437966E+02 -0.95636134718E+01  0.56853188899E+01  0.47787253474E+02  0.19999919888E+02 0.  0.
        -12    1    1    2    0    0 -0.41950437966E+02  0.95636134718E+01 -0.56853188899E+01  0.43400746526E+02  0.00000000000E+00 0.  1.
         11    1    3    3    0    0  0.17728481083E+02 -0.92860338840E+01 -0.54596385048E+00  0.20020677901E+02  0.51100000000E-03 0. -1.
        -11    1    3    3    0    0  0.10380278415E+02  0.57718976588E+01  0.37729509266E+01  0.12461947742E+02  0.51100000000E-03 0.  1.
        -12    1    3    3    0    0  0.13841678467E+02 -0.60494772466E+01  0.24583318138E+01  0.15304627831E+02  0.00000000000E+00 0.  1.
</event>
<event>
 7    1  0.2598019E-009  0.4778727E+02  0.7816164E-02  0.1312668E+00
        -11   -1    0    0    0    0  0.00000000000E+00  0.00000000000E+00  0.45593999997E+02  0.45594000000E+02  0.51100000000E-03 0.  1.
         11   -1    0    0    0    0 -0.00000000000E+00 -0.00000000000E+00 -0.45593999997E+02  0.45594000000E+02  0.51100000000E-03 0. -1.
    9900012    2    1    2    0    0  0.30271726771E+02 -0.30084572480E+02 -0.78844216978E+01  0.47787273641E+02  0.20000011837E+02 0.  0.
        -12    1    1    2    0    0 -0.30271726771E+02  0.30084572480E+02  0.78844216978E+01  0.43400726359E+02  0.00000000000E+00 0.  1.
         11    1    3    3    0    0  0.17665309641E+02 -0.26710607917E+02 -0.65931852871E+01  0.32695409961E+02  0.51100000000E-03 0. -1.
        -11    1    3    3    0    0  0.12139543581E+02 -0.51595406157E+01 -0.10958257966E+01  0.13235943947E+02  0.51100000000E-03 0.  1.
         12    1    3    3    0    0  0.46687354869E+00  0.17855760523E+01 -0.19541061412E+00  0.18559197335E+01  0.00000000000E+00 0. -1.
</event>
<event>
 7    1  0.2598019E-009  0.4778728E+02  0.7816164E-02  0.1312668E+00
        -11   -1    0    0    0    0  0.00000000000E+00  0.00000000000E+00  0.45593999997E+02  0.45594000000E+02  0.51100000000E-03 0.  1.
         11   -1    0    0    0    0 -0.00000000000E+00 -0.00000000000E+00 -0.45593999997E+02  0.45594000000E+02  0.51100000000E-03 0. -1.
    9900012    2    1    2    0    0  0.33152761285E+02 -0.18188733276E+02 -0.21299931804E+02  0.47787277727E+02  0.20000030466E+02 0.  0.
        -12    1    1    2    0    0 -0.33152761285E+02  0.18188733276E+02  0.21299931804E+02  0.43400722273E+02  0.00000000000E+00 0.  1.
         11    1    3    3    0    0  0.27139591046E+02 -0.12017931794E+02 -0.89725017976E+01  0.31007964711E+02  0.51100000000E-03 0. -1.
        -11    1    3    3    0    0  0.32860714156E+01 -0.38858590700E-01 -0.83612874887E+01  0.89839247586E+01  0.51100000000E-03 0.  1.
         12    1    3    3    0    0  0.27270988238E+01 -0.61319428904E+01 -0.39661425177E+01  0.77953882570E+01  0.00000000000E+00 0. -1.
</event>
<event>
 7    1  0.2598019E-009  0.4778727E+02  0.7816164E-02  0.1312668E+00
        -11   -1    0    0    0    0  0.00000000000E+00  0.00000000000E+00  0.45593999997E+02  0.45594000000E+02  0.51100000000E-03 0.  1.
         11   -1    0    0    0    0 -0.00000000000E+00 -0.00000000000E+00 -0.45593999997E+02  0.45594000000E+02  0.51100000000E-03 0. -1.
    9900012    2    1    2    0    0 -0.34069796107E+02  0.20250923730E+02 -0.17685380250E+02  0.47787267365E+02  0.19999983222E+02 0.  0.
        -12    1    1    2    0    0  0.34069796107E+02 -0.20250923730E+02  0.17685380250E+02  0.43400732635E+02  0.00000000000E+00 0.  1.
         11    1    3    3    0    0 -0.15633582526E+02  0.81107551965E+01 -0.58584746583E+01  0.18561114676E+02  0.51100000000E-03 0. -1.
        -11    1    3    3    0    0 -0.13471414642E+02  0.14485934637E+02 -0.12920099376E+02  0.23627320688E+02  0.51100000000E-03 0.  1.
        -12    1    3    3    0    0 -0.49647989394E+01 -0.23457661028E+01  0.10931937841E+01  0.55988320003E+01  0.00000000000E+00 0.  1.
</event>
<event>
 7    1  0.2598019E-009  0.4778727E+02  0.7816164E-02  0.1312668E+00
        -11   -1    0    0    0    0  0.00000000000E+00  0.00000000000E+00  0.45593999997E+02  0.45594000000E+02  0.51100000000E-03 0.  1.
         11   -1    0    0    0    0 -0.00000000000E+00 -0.00000000000E+00 -0.45593999997E+02  0.45594000000E+02  0.51100000000E-03 0. -1.
    9900012    2    1    2    0    0 -0.11040935687E+02  0.21400462952E+02 -0.36107357109E+02  0.47787270595E+02  0.19999997953E+02 0.  0.
        -12    1    1    2    0    0  0.11040935687E+02 -0.21400462952E+02  0.36107357109E+02  0.43400729405E+02  0.00000000000E+00 0.  1.
         11    1    3    3    0    0 -0.32897949963E+01  0.12383002391E+02 -0.10289938772E+02  0.16433025879E+02  0.51100000000E-03 0. -1.
        -11    1    3    3    0    0 -0.10003079336E+02  0.81131705925E+01 -0.25900470628E+02  0.28926104339E+02  0.51100000000E-03 0.  1.
        -12    1    3    3    0    0  0.22519386448E+01  0.90428996905E+00  0.83052290689E-01  0.24281403772E+01  0.00000000000E+00 0.  1.
</event>
<event>
 7    1  0.2598019E-009  0.4778726E+02  0.7816164E-02  0.1312668E+00
        -11   -1    0    0    0    0  0.00000000000E+00  0.00000000000E+00  0.45593999997E+02  0.45594000000E+02  0.51100000000E-03 0.  1.
         11   -1    0    0    0    0 -0.00000000000E+00 -0.00000000000E+00 -0.45593999997E+02  0.45594000000E+02  0.51100000000E-03 0. -1.
    9900012    2    1    2    0    0 -0.19493921565E+02 -0.81697071158E+01 -0.37906033886E+02  0.47787256950E+02  0.19999935736E+02 0.  0.
        -12    1    1    2    0    0  0.19493921565E+02  0.81697071158E+01  0.37906033886E+02  0.43400743050E+02  0.00000000000E+00 0.  1.
         11    1    3    3    0    0 -0.18810470629E+02  0.84970571225E+00 -0.30707157404E+02  0.36020623553E+02  0.51100000000E-03 0. -1.
        -11    1    3    3    0    0 -0.10244356249E+01 -0.66297388089E+01 -0.41910851649E+01  0.79100000091E+01  0.51100000000E-03 0.  1.
         12    1    3    3    0    0  0.34098468874E+00 -0.23896740191E+01 -0.30077913175E+01  0.38566333875E+01  0.00000000000E+00 0. -1.
</event>
<event>
 7    1  0.2598019E-009  0.4778727E+02  0.7816164E-02  0.1312668E+00
        -11   -1    0    0    0    0  0.00000000000E+00  0.00000000000E+00  0.45593999997E+02  0.45594000000E+02  0.51100000000E-03 0. -1.
         11   -1    0    0    0    0 -0.00000000000E+00 -0.00000000000E+00 -0.45593999997E+02  0.45594000000E+02  0.51100000000E-03 0.  1.
    9900012    2    1    2    0    0 -0.26796266342E+02  0.24188071833E+02  0.24093991176E+02  0.47787272821E+02  0.20000008098E+02 0.  0.
        -12    1    1    2    0    0  0.26796266342E+02 -0.24188071833E+02 -0.24093991176E+02  0.43400727179E+02  0.00000000000E+00 0.  1.
         11    1    3    3    0    0 -0.15493290031E+02  0.31697814656E+01  0.84718333811E+01  0.17940499203E+02  0.51100000000E-03 0. -1.
        -11    1    3    3    0    0 -0.15136269396E+01  0.76239610249E+00  0.43808051171E+01  0.46972085396E+01  0.51100000000E-03 0.  1.
         12    1    3    3    0    0 -0.97893493711E+01  0.20255894265E+02  0.11241352678E+02  0.25149565078E+02  0.00000000000E+00 0. -1.
</event>
<event>
 7    1  0.2598019E-009  0.4778729E+02  0.7816164E-02  0.1312668E+00
        -11   -1    0    0    0    0  0.00000000000E+00  0.00000000000E+00  0.45593999997E+02  0.45594000000E+02  0.51100000000E-03 0.  1.
         11   -1    0    0    0    0 -0.00000000000E+00 -0.00000000000E+00 -0.45593999997E+02  0.45594000000E+02  0.51100000000E-03 0. -1.
    9900012    2    1    2    0    0  0.17543919886E+00  0.25319380887E+01 -0.43326441936E+02  0.47787285026E+02  0.20000063748E+02 0.  0.
        -12    1    1    2    0    0 -0.17543919886E+00 -0.25319380887E+01  0.43326441936E+02  0.43400714974E+02  0.00000000000E+00 0.  1.
         11    1    3    3    0    0 -0.12966511486E+00  0.30454270012E+01 -0.66741345765E+01  0.73372686517E+01  0.51100000000E-03 0. -1.
        -11    1    3    3    0    0 -0.32337224353E+01  0.32289566790E+01 -0.13374151463E+01  0.47614915266E+01  0.51100000000E-03 0.  1.
        -12    1    3    3    0    0  0.35388267490E+01 -0.37424455915E+01 -0.35314892213E+02  0.35688524848E+02  0.00000000000E+00 0.  1.
</event>
<event>
 7    1  0.2598019E-009  0.4778727E+02  0.7816164E-02  0.1312668E+00
        -11   -1    0    0    0    0  0.00000000000E+00  0.00000000000E+00  0.45593999997E+02  0.45594000000E+02  0.51100000000E-03 0.  1.
         11   -1    0    0    0    0 -0.00000000000E+00 -0.00000000000E+00 -0.45593999997E+02  0.45594000000E+02  0.51100000000E-03 0. -1.
    9900012    2    1    2    0    0  0.56531617076E+01  0.57049369760E+01 -0.42651129719E+02  0.47787269482E+02  0.19999992878E+02 0.  0.
        -12    1    1    2    0    0 -0.56531617076E+01 -0.57049369760E+01  0.42651129719E+02  0.43400730518E+02  0.00000000000E+00 0.  1.
         11    1    3    3    0    0  0.26297535576E+01 -0.41616722479E+00 -0.29734870584E+02  0.29853832716E+02  0.51100000000E-03 0. -1.
        -11    1    3    3    0    0  0.36523935183E+01  0.25474942549E+01  0.66080541984E-01  0.44535460355E+01  0.51100000000E-03 0.  1.
         12    1    3    3    0    0 -0.62898536825E+00  0.35736099458E+01 -0.12982339677E+02  0.13479890731E+02  0.00000000000E+00 0. -1.
</event>
<event>
 7    1  0.2598019E-009  0.4778727E+02  0.7816164E-02  0.1312668E+00
        -11   -1    0    0    0    0  0.00000000000E+00  0.00000000000E+00  0.45593999997E+02  0.45594000000E+02  0.51100000000E-03 0. -1.
         11   -1    0    0    0    0 -0.00000000000E+00 -0.00000000000E+00 -0.45593999997E+02  0.45594000000E+02  0.51100000000E-03 0.  1.
    9900012    2    1    2    0    0  0.37606888303E+02  0.20502060851E+02  0.70007869919E+01  0.47787267685E+02  0.19999984682E+02 0.  0.
        -12    1    1    2    0    0 -0.37606888303E+02 -0.20502060851E+02 -0.70007869919E+01  0.43400732315E+02  0.00000000000E+00 0.  1.
         11    1    3    3    0    0  0.14198479499E+02  0.11170658801E+02 -0.63511822034E-01  0.18066113919E+02  0.51100000000E-03 0. -1.
        -11    1    3    3    0    0 -0.17363968220E+01  0.17521565287E+01  0.14636441932E+01  0.28683411600E+01  0.51100000000E-03 0.  1.
        -12    1    3    3    0    0  0.25144805626E+02  0.75792455215E+01  0.56006546207E+01  0.26852812606E+02  0.00000000000E+00 0.  1.
</event>
<event>
 7    1  0.2598019E-009  0.4778727E+02  0.7816164E-02  0.1312668E+00
        -11   -1    0    0    0    0  0.00000000000E+00  0.00000000000E+00  0.45593999997E+02  0.45594000000E+02  0.51100000000E-03 0.  1.
         11   -1    0    0    0    0 -0.00000000000E+00 -0.00000000000E+00 -0.45593999997E+02  0.45594000000E+02  0.51100000000E-03 0. -1.
    9900012    2    1    2    0    0 -0.19744592644E+01  0.39324157840E+02 -0.18257478178E+02  0.47787269722E+02  0.19999993972E+02 0.  0.
        -12    1    1    2    0    0  0.19744592644E+01 -0.39324157840E+02  0.18257478178E+02  0.43400730278E+02  0.00000000000E+00 0.  1.
         11    1    3    3    0    0  0.27792743877E+01  0.18334807769E+02 -0.80484185039E+01  0.20215503524E+02  0.51100000000E-03 0. -1.
        -11    1    3    3    0    0 -0.92554032813E+01  0.98448736215E+01 -0.64904834148E+01  0.14990343617E+02  0.51100000000E-03 0.  1.
        -12    1    3    3    0    0  0.45016696292E+01  0.11144476449E+02 -0.37185762590E+01  0.12581422582E+02  0.00000000000E+00 0.  1.
</event>
<event>
 7    1  0.2598019E-009  0.4778728E+02  0.7816164E-02  0.1312668E+00
        -11   -1    0    0    0    0  0.00000000000E+00  0.00000000000E+00  0.45593999997E+02  0.45594000000E+02  0.51100000000E-03 0.  1.
         11   -1    0    0    0    0 -0.00000000000E+00 -0.00000000000E+00 -0.45593999997E+02  0.45594000000E+02  0.51100000000E-03 0. -1.
    9900012    2    1    2    0    0  0.10145591271E+01  0.18293962771E+02 -0.39343662882E+02  0.47787283266E+02  0.20000055721E+02 0.  0.
        -12    1    1    2    0    0 -0.10145591271E+01 -0.18293962771E+02  0.39343662882E+02  0.43400716734E+02  0.00000000000E+00 0.  1.
         11    1    3    3    0    0 -0.71427776010E+01  0.53233227641E+01 -0.17248704921E+02  0.19413265022E+02  0.51100000000E-03 0. -1.
        -11    1    3    3    0    0  0.20281472260E+01  0.59292392876E+00  0.22612230160E+00  0.21251050591E+01  0.51100000000E-03 0.  1.
         12    1    3    3    0    0  0.61291895020E+01  0.12377716078E+02 -0.22321080263E+02  0.26248913184E+02  0.00000000000E+00 0. -1.
</event>
<event>
 7    1  0.2598019E-009  0.4778727E+02  0.7816164E-02  0.1312668E+00
        -11   -1    0    0    0    0  0.00000000000E+00  0.00000000000E+00  0.45593999997E+02  0.45594000000E+02  0.51100000000E-03 0. -1.
         11   -1    0    0    0    0 -0.00000000000E+00 -0.00000000000E+00 -0.45593999997E+02  0.45594000000E+02  0.51100000000E-03 0.  1.
    9900012    2    1    2    0    0  0.22430936021E+02 -0.78521989898E+01  0.36315549695E+02  0.47787273400E+02  0.20000010740E+02 0.  0.
        -12    1    1    2    0    0 -0.22430936021E+02  0.78521989898E+01 -0.36315549695E+02  0.43400726600E+02  0.00000000000E+00 0.  1.
         11    1    3    3    0    0  0.55718370390E+01 -0.26952011376E+01  0.11317374080E+02  0.12899319109E+02  0.51100000000E-03 0. -1.
        -11    1    3    3    0    0  0.14782720561E+02  0.34514705264E+01  0.18347468850E+02  0.23813254491E+02  0.51100000000E-03 0.  1.
        -12    1    3    3    0    0  0.20763784203E+01 -0.86084683787E+01  0.66507067658E+01  0.11074699800E+02  0.00000000000E+00 0.  1.
</event>
<event>
 7    1  0.2598019E-009  0.4778727E+02  0.7816164E-02  0.1312668E+00
        -11   -1    0    0    0    0  0.00000000000E+00  0.00000000000E+00  0.45593999997E+02  0.45594000000E+02  0.51100000000E-03 0. -1.
         11   -1    0    0    0    0 -0.00000000000E+00 -0.00000000000E+00 -0.45593999997E+02  0.45594000000E+02  0.51100000000E-03 0.  1.
    9900012    2    1    2    0    0 -0.39779887269E+02  0.13893465143E+02  0.10399780300E+02  0.47787271491E+02  0.20000002038E+02 0.  0.
        -12    1    1    2    0    0  0.39779887269E+02 -0.13893465143E+02 -0.10399780300E+02  0.43400728509E+02  0.00000000000E+00 0.  1.
         11    1    3    3    0    0 -0.27091914082E+02  0.40638385157E+01  0.67037956686E+01  0.28203323718E+02  0.51100000000E-03 0. -1.
        -11    1    3    3    0    0 -0.60604837002E+01  0.58489052658E+01 -0.34067592357E+01  0.90854369317E+01  0.51100000000E-03 0.  1.
        -12    1    3    3    0    0 -0.66274894861E+01  0.39807213617E+01  0.71027438669E+01  0.10498510841E+02  0.00000000000E+00 0.  1.
</event>
<event>
 7    1  0.2598019E-009  0.4778729E+02  0.7816164E-02  0.1312668E+00
        -11   -1    0    0    0    0  0.00000000000E+00  0.00000000000E+00  0.45593999997E+02  0.45594000000E+02  0.51100000000E-03 0. -1.
         11   -1    0    0    0    0 -0.00000000000E+00 -0.00000000000E+00 -0.45593999997E+02  0.45594000000E+02  0.51100000000E-03 0.  1.
    9900012    2    1    2    0    0 -0.14603695351E+02  0.37923347776E+02 -0.15237242512E+02  0.47787288211E+02  0.20000078268E+02 0.  0.
        -12    1    1    2    0    0  0.14603695351E+02 -0.37923347776E+02  0.15237242512E+02  0.43400711789E+02  0.00000000000E+00 0.  1.
         11    1    3    3    0    0 -0.11213229764E+01  0.13878743328E+02 -0.74286138827E+01  0.15781672474E+02  0.51100000000E-03 0. -1.
        -11    1    3    3    0    0 -0.61655083170E+01  0.34715893741E+01  0.29470720455E+01  0.76648978788E+01  0.51100000000E-03 0.  1.
        -12    1    3    3    0    0 -0.73168640581E+01  0.20573015073E+02 -0.10755700675E+02  0.24340717858E+02  0.00000000000E+00 0.  1.
</event>
<event>
 7    1  0.2598019E-009  0.4778727E+02  0.7816164E-02  0.1312668E+00
        -11   -1    0    0    0    0  0.00000000000E+00  0.00000000000E+00  0.45593999997E+02  0.45594000000E+02  0.51100000000E-03 0.  1.
         11   -1    0    0    0    0 -0.00000000000E+00 -0.00000000000E+00 -0.45593999997E+02  0.45594000000E+02  0.51100000000E-03 0. -1.
    9900012    2    1    2    0    0  0.10559011235E+02  0.68881610489E+01 -0.41529310679E+02  0.47787272743E+02  0.20000007746E+02 0.  0.
        -12    1    1    2    0    0 -0.10559011235E+02 -0.68881610489E+01  0.41529310679E+02  0.43400727257E+02  0.00000000000E+00 0.  1.
         11    1    3    3    0    0  0.49961106266E+00 -0.58654316458E+01 -0.11509595199E+02  0.12927632479E+02  0.51100000000E-03 0. -1.
        -11    1    3    3    0    0  0.14187465307E+01 -0.14025808770E+00 -0.50490129018E+00  0.15124283863E+01  0.51100000000E-03 0.  1.
         12    1    3    3    0    0  0.86406536419E+01  0.12893850782E+02 -0.29514814190E+02  0.33347211878E+02  0.00000000000E+00 0. -1.
</event>
<event>
 7    1  0.2598019E-009  0.4778727E+02  0.7816164E-02  0.1312668E+00
        -11   -1    0    0    0    0  0.00000000000E+00  0.00000000000E+00  0.45593999997E+02  0.45594000000E+02  0.51100000000E-03 0. -1.
         11   -1    0    0    0    0 -0.00000000000E+00 -0.00000000000E+00 -0.45593999997E+02  0.45594000000E+02  0.51100000000E-03 0.  1.
    9900012    2    1    2    0    0  0.35892538816E+02  0.24325177483E+02  0.19065888466E+01  0.47787266328E+02  0.19999978495E+02 0.  0.
        -12    1    1    2    0    0 -0.35892538816E+02 -0.24325177483E+02 -0.19065888466E+01  0.43400733672E+02  0.00000000000E+00 0.  1.
         11    1    3    3    0    0  0.85861170408E+01  0.10592767202E+02 -0.43406164378E+00  0.13642453321E+02  0.51100000000E-03 0. -1.
        -11    1    3    3    0    0  0.10260701142E+02 -0.47321741980E+00  0.56297787751E+01  0.11713254542E+02  0.51100000000E-03 0.  1.
        -12    1    3    3    0    0  0.17045720634E+02  0.14205627701E+02 -0.32891282848E+01  0.22431558465E+02  0.00000000000E+00 0.  1.
</event>
<event>
 7    1  0.2598019E-009  0.4778727E+02  0.7816164E-02  0.1312668E+00
        -11   -1    0    0    0    0  0.00000000000E+00  0.00000000000E+00  0.45593999997E+02  0.45594000000E+02  0.51100000000E-03 0. -1.
         11   -1    0    0    0    0 -0.00000000000E+00 -0.00000000000E+00 -0.45593999997E+02  0.45594000000E+02  0.51100000000E-03 0.  1.
    9900012    2    1    2    0    0 -0.19353129918E+02 -0.67073619660E+01  0.38263438240E+02  0.47787273645E+02  0.20000011859E+02 0.  0.
        -12    1    1    2    0    0  0.19353129918E+02  0.67073619660E+01 -0.38263438240E+02  0.43400726355E+02  0.00000000000E+00 0.  1.
         11    1    3    3    0    0 -0.79311371806E+01 -0.78284682243E+01  0.55402620724E+01  0.12445173997E+02  0.51100000000E-03 0. -1.
        -11    1    3    3    0    0 -0.18704887783E+01  0.24812220241E+01  0.13256355993E+02  0.13615658834E+02  0.51100000000E-03 0.  1.
         12    1    3    3    0    0 -0.95515039587E+01 -0.13601157658E+01  0.19466820175E+02  0.21726440815E+02  0.00000000000E+00 0. -1.
</event>
<event>
 7    1  0.2598019E-009  0.4778727E+02  0.7816164E-02  0.1312668E+00
        -11   -1    0    0    0    0  0.00000000000E+00  0.00000000000E+00  0.45593999997E+02  0.45594000000E+02  0.51100000000E-03 0.  1.
         11   -1    0    0    0    0 -0.00000000000E+00 -0.00000000000E+00 -0.45593999997E+02  0.45594000000E+02  0.51100000000E-03 0. -1.
    9900012    2    1    2    0    0  0.24430366073E+02 -0.18979946707E+02 -0.30439152274E+02  0.47787272418E+02  0.20000006263E+02 0.  0.
        -12    1    1    2    0    0 -0.24430366073E+02  0.18979946707E+02  0.30439152274E+02  0.43400727582E+02  0.00000000000E+00 0.  1.
         11    1    3    3    0    0  0.69019721909E+01 -0.66844162963E+01 -0.10612728664E+02  0.14316027777E+02  0.51100000000E-03 0. -1.
        -11    1    3    3    0    0  0.18276740050E+02 -0.69051629780E+01 -0.93369255579E+01  0.21654068480E+02  0.51100000000E-03 0.  1.
        -12    1    3    3    0    0 -0.74834616758E+00 -0.53903674327E+01 -0.10489498052E+02  0.11817176161E+02  0.00000000000E+00 0.  1.
</event>
<event>
 7    1  0.2598019E-009  0.4778727E+02  0.7816164E-02  0.1312668E+00
        -11   -1    0    0    0    0  0.00000000000E+00  0.00000000000E+00  0.45593999997E+02  0.45594000000E+02  0.51100000000E-03 0. -1.
         11   -1    0    0    0    0 -0.00000000000E+00 -0.00000000000E+00 -0.45593999997E+02  0.45594000000E+02  0.51100000000E-03 0.  1.
    9900012    2    1    2    0    0  0.41541408808E+02 -0.45869155143E+01 -0.11700207090E+02  0.47787270909E+02  0.19999999381E+02 0.  0.
        -12    1    1    2    0    0 -0.41541408808E+02  0.45869155143E+01  0.11700207090E+02  0.43400729091E+02  0.00000000000E+00 0.  1.
         11    1    3    3    0    0  0.98248915768E+01  0.14566110785E+01 -0.27555554235E+01  0.10307438881E+02  0.51100000000E-03 0. -1.
        -11    1    3    3    0    0  0.26625196447E+02 -0.87914925516E+01 -0.12489183848E+02  0.30694806411E+02  0.51100000000E-03 0.  1.
        -12    1    3    3    0    0  0.50913207842E+01  0.27479659588E+01  0.35445321817E+01  0.67850256172E+01  0.00000000000E+00 0.  1.
</event>
<event>
 7    1  0.2598019E-009  0.4778727E+02  0.7816164E-02  0.1312668E+00
        -11   -1    0    0    0    0  0.00000000000E+00  0.00000000000E+00  0.45593999997E+02  0.45594000000E+02  0.51100000000E-03 0. -1.
         11   -1    0    0    0    0 -0.00000000000E+00 -0.00000000000E+00 -0.45593999997E+02  0.45594000000E+02  0.51100000000E-03 0.  1.
    9900012    2    1    2    0    0 -0.69635271582E+00 -0.45658765988E+01  0.43154269688E+02  0.47787272719E+02  0.20000007634E+02 0.  0.
        -12    1    1    2    0    0  0.69635271582E+00  0.45658765988E+01 -0.43154269688E+02  0.43400727281E+02  0.00000000000E+00 0.  1.
         11    1    3    3    0    0 -0.20674538335E+01  0.18448254540E+01  0.36025159709E+02  0.36131563468E+02  0.51100000000E-03 0. -1.
        -11    1    3    3    0    0  0.27573828348E+01 -0.36250567709E+00  0.10606467476E+01  0.29764983198E+01  0.51100000000E-03 0.  1.
         12    1    3    3    0    0 -0.13862817171E+01 -0.60481963757E+01  0.60684632315E+01  0.86792109313E+01  0.00000000000E+00 0. -1.
</event>
<event>
 7    1  0.2598019E-009  0.4778727E+02  0.7816164E-02  0.1312668E+00
        -11   -1    0    0    0    0  0.00000000000E+00  0.00000000000E+00  0.45593999997E+02  0.45594000000E+02  0.51100000000E-03 0.  1.
         11   -1    0    0    0    0 -0.00000000000E+00 -0.00000000000E+00 -0.45593999997E+02  0.45594000000E+02  0.51100000000E-03 0. -1.
    9900012    2    1    2    0    0  0.43330456174E+02  0.24639597592E+01 -0.15518752696E+00  0.47787267136E+02  0.19999982179E+02 0.  0.
        -12    1    1    2    0    0 -0.43330456174E+02 -0.24639597592E+01  0.15518752696E+00  0.43400732864E+02  0.00000000000E+00 0.  1.
         11    1    3    3    0    0  0.16856554027E+02 -0.83540735144E+00 -0.27094686064E+01  0.17093347815E+02  0.51100000000E-03 0. -1.
        -11    1    3    3    0    0  0.23706230321E+02  0.61328860976E+01  0.62552584647E+01  0.25273027255E+02  0.51100000000E-03 0.  1.
        -12    1    3    3    0    0  0.27676718264E+01 -0.28335189869E+01 -0.37009773853E+01  0.54208920663E+01  0.00000000000E+00 0.  1.
</event>
<event>
 7    1  0.2598019E-009  0.4778727E+02  0.7816164E-02  0.1312668E+00
        -11   -1    0    0    0    0  0.00000000000E+00  0.00000000000E+00  0.45593999997E+02  0.45594000000E+02  0.51100000000E-03 0. -1.
         11   -1    0    0    0    0 -0.00000000000E+00 -0.00000000000E+00 -0.45593999997E+02  0.45594000000E+02  0.51100000000E-03 0.  1.
    9900012    2    1    2    0    0  0.42561761375E+02 -0.59352391457E+01  0.60739268827E+01  0.47787272094E+02  0.20000004784E+02 0.  0.
        -12    1    1    2    0    0 -0.42561761375E+02  0.59352391457E+01 -0.60739268827E+01  0.43400727906E+02  0.00000000000E+00 0.  1.
         11    1    3    3    0    0  0.11719914013E+02  0.44778883015E+00  0.71481414238E+01  0.13735094663E+02  0.51100000000E-03 0. -1.
        -11    1    3    3    0    0  0.31869984008E+02 -0.61342997585E+01 -0.21721461652E+01  0.32527584193E+02  0.51100000000E-03 0.  1.
        -12    1    3    3    0    0 -0.10281366468E+01 -0.24872821730E+00  0.10979316242E+01  0.15245932382E+01  0.00000000000E+00 0.  1.
</event>
<event>
 7    1  0.2598019E-009  0.4778728E+02  0.7816164E-02  0.1312668E+00
        -11   -1    0    0    0    0  0.00000000000E+00  0.00000000000E+00  0.45593999997E+02  0.45594000000E+02  0.51100000000E-03 0.  1.
         11   -1    0    0    0    0 -0.00000000000E+00 -0.00000000000E+00 -0.45593999997E+02  0.45594000000E+02  0.51100000000E-03 0. -1.
    9900012    2    1    2    0    0 -0.19321171891E+02 -0.14164867131E+02 -0.36189387721E+02  0.47787275032E+02  0.20000018182E+02 0.  0.
        -12    1    1    2    0    0  0.19321171891E+02  0.14164867131E+02  0.36189387721E+02  0.43400724968E+02  0.00000000000E+00 0.  1.
         11    1    3    3    0    0 -0.25762156922E+00 -0.91119643461E+01 -0.90893257862E+01  0.12872843766E+02  0.51100000000E-03 0. -1.
        -11    1    3    3    0    0 -0.47120312409E+01 -0.49851182847E+01 -0.47150497841E+01  0.83238415083E+01  0.51100000000E-03 0.  1.
         12    1    3    3    0    0 -0.14351519081E+02 -0.67784499813E-01 -0.22385012151E+02  0.26590589758E+02  0.00000000000E+00 0. -1.
</event>
<event>
 7    1  0.2598019E-009  0.4778726E+02  0.7816164E-02  0.1312668E+00
        -11   -1    0    0    0    0  0.00000000000E+00  0.00000000000E+00  0.45593999997E+02  0.45594000000E+02  0.51100000000E-03 0.  1.
         11   -1    0    0    0    0 -0.00000000000E+00 -0.00000000000E+00 -0.45593999997E+02  0.45594000000E+02  0.51100000000E-03 0. -1.
    9900012    2    1    2    0    0 -0.67983211870E+01  0.23220244503E+02 -0.36030920499E+02  0.47787260862E+02  0.19999953575E+02 0.  0.
        -12    1    1    2    0    0  0.67983211870E+01 -0.23220244503E+02  0.36030920499E+02  0.43400739138E+02  0.00000000000E+00 0.  1.
         11    1    3    3    0    0 -0.39298940860E+01  0.46673894561E+01 -0.67601791120E+01  0.91065149069E+01  0.51100000000E-03 0. -1.
        -11    1    3    3    0    0 -0.21260849646E+01  0.38511793950E+01 -0.21673566200E+02  0.22115498911E+02  0.51100000000E-03 0.  1.
        -12    1    3    3    0    0 -0.74234213643E+00  0.14701675652E+02 -0.75971751869E+01  0.16565247044E+02  0.00000000000E+00 0.  1.
</event>
<event>
 7    1  0.2598019E-009  0.4778727E+02  0.7816164E-02  0.1312668E+00
        -11   -1    0    0    0    0  0.00000000000E+00  0.00000000000E+00  0.45593999997E+02  0.45594000000E+02  0.51100000000E-03 0.  1.
         11   -1    0    0    0    0 -0.00000000000E+00 -0.00000000000E+00 -0.45593999997E+02  0.45594000000E+02  0.51100000000E-03 0. -1.
    9900012    2    1    2    0    0 -0.14980311391E+02  0.35325074499E+02 -0.20281837310E+02  0.47787267951E+02  0.19999985896E+02 0.  0.
        -12    1    1    2    0    0  0.14980311391E+02 -0.35325074499E+02  0.20281837310E+02  0.43400732049E+02  0.00000000000E+00 0.  1.
         11    1    3    3    0    0 -0.18703741860E+02  0.27528984417E+02 -0.18808455883E+02  0.38228692831E+02  0.51100000000E-03 0. -1.
        -11    1    3    3    0    0  0.28404616273E+01  0.78258169538E+01 -0.19557567375E+01  0.85519949677E+01  0.51100000000E-03 0.  1.
        -12    1    3    3    0    0  0.88296884203E+00 -0.29726872478E-01  0.48237530996E+00  0.10065801521E+01  0.00000000000E+00 0.  1.
</event>
<event>
 7    1  0.2598019E-009  0.4778727E+02  0.7816164E-02  0.1312668E+00
        -11   -1    0    0    0    0  0.00000000000E+00  0.00000000000E+00  0.45593999997E+02  0.45594000000E+02  0.51100000000E-03 0.  1.
         11   -1    0    0    0    0 -0.00000000000E+00 -0.00000000000E+00 -0.45593999997E+02  0.45594000000E+02  0.51100000000E-03 0. -1.
    9900012    2    1    2    0    0 -0.22835710659E+02  0.23188486901E+02 -0.28713200349E+02  0.47787268666E+02  0.19999989155E+02 0.  0.
        -12    1    1    2    0    0  0.22835710659E+02 -0.23188486901E+02  0.28713200349E+02  0.43400731334E+02  0.00000000000E+00 0.  1.
         11    1    3    3    0    0 -0.52010345041E-02  0.34230118535E+01 -0.60333365719E+01  0.69367274453E+01  0.51100000000E-03 0. -1.
        -11    1    3    3    0    0  0.17264577029E+01  0.41361991548E+01 -0.53276131062E+01  0.69622023325E+01  0.51100000000E-03 0.  1.
        -12    1    3    3    0    0 -0.24556967327E+02  0.15629275893E+02 -0.17352250671E+02  0.33888338888E+02  0.00000000000E+00 0.  1.
</event>
<event>
 7    1  0.2598019E-009  0.4778727E+02  0.7816164E-02  0.1312668E+00
        -11   -1    0    0    0    0  0.00000000000E+00  0.00000000000E+00  0.45593999997E+02  0.45594000000E+02  0.51100000000E-03 0.  1.
         11   -1    0    0    0    0 -0.00000000000E+00 -0.00000000000E+00 -0.45593999997E+02  0.45594000000E+02  0.51100000000E-03 0. -1.
    9900012    2    1    2    0    0 -0.11063783030E+02 -0.22815099104E+02 -0.35223390712E+02  0.47787270797E+02  0.19999998874E+02 0.  0.
        -12    1    1    2    0    0  0.11063783030E+02  0.22815099104E+02  0.35223390712E+02  0.43400729203E+02  0.00000000000E+00 0.  1.
         11    1    3    3    0    0  0.21384079316E+01 -0.10686707691E+02 -0.79334153559E+01  0.13480266660E+02  0.51100000000E-03 0. -1.
        -11    1    3    3    0    0 -0.12994703827E+02 -0.71332518033E+01 -0.24349564129E+02  0.28506961998E+02  0.51100000000E-03 0.  1.
        -12    1    3    3    0    0 -0.20748713532E+00 -0.49951396100E+01 -0.29404112270E+01  0.58000421394E+01  0.00000000000E+00 0.  1.
</event>
<event>
 7    1  0.2598019E-009  0.4778727E+02  0.7816164E-02  0.1312668E+00
        -11   -1    0    0    0    0  0.00000000000E+00  0.00000000000E+00  0.45593999997E+02  0.45594000000E+02  0.51100000000E-03 0. -1.
         11   -1    0    0    0    0 -0.00000000000E+00 -0.00000000000E+00 -0.45593999997E+02  0.45594000000E+02  0.51100000000E-03 0.  1.
    9900012    2    1    2    0    0  0.36460513312E+02 -0.23492583468E+02 -0.15338687220E+01  0.47787271179E+02  0.20000000614E+02 0.  0.
        -12    1    1    2    0    0 -0.36460513312E+02  0.23492583468E+02  0.15338687220E+01  0.43400728821E+02  0.00000000000E+00 0.  1.
         11    1    3    3    0    0  0.12284921402E+01 -0.56185385020E+01  0.42446850204E+01  0.71480430204E+01  0.51100000000E-03 0. -1.
        -11    1    3    3    0    0  0.32997737058E+02 -0.18229748031E+02 -0.65205751246E+01  0.38258231329E+02  0.51100000000E-03 0.  1.
         12    1    3    3    0    0  0.22342841138E+01  0.35570306550E+00  0.74202138221E+00  0.23809968298E+01  0.00000000000E+00 0. -1.
</event>
<event>
 7    1  0.2598019E-009  0.4778726E+02  0.7816164E-02  0.1312668E+00
        -11   -1    0    0    0    0  0.00000000000E+00  0.00000000000E+00  0.45593999997E+02  0.45594000000E+02  0.51100000000E-03 0.  1.
         11   -1    0    0    0    0 -0.00000000000E+00 -0.00000000000E+00 -0.45593999997E+02  0.45594000000E+02  0.51100000000E-03 0. -1.
    9900012    2    1    2    0    0 -0.26802210966E+02 -0.26823479014E+02 -0.21113193730E+02  0.47787257050E+02  0.19999936195E+02 0.  0.
        -12    1    1    2    0    0  0.26802210966E+02  0.26823479014E+02  0.21113193730E+02  0.43400742950E+02  0.00000000000E+00 0.  1.
         11    1    3    3    0    0 -0.15152588769E+02 -0.59937771032E+01 -0.12445614759E+02  0.20504137079E+02  0.51100000000E-03 0. -1.
        -11    1    3    3    0    0 -0.49799006088E+01 -0.15849601001E+02 -0.91103421820E+01  0.18947495795E+02  0.51100000000E-03 0.  1.
        -12    1    3    3    0    0 -0.66697215885E+01 -0.49801009097E+01  0.44276321109E+00  0.83356241758E+01  0.00000000000E+00 0.  1.
</event>
<event>
 7    1  0.2598019E-009  0.4778727E+02  0.7816164E-02  0.1312668E+00
        -11   -1    0    0    0    0  0.00000000000E+00  0.00000000000E+00  0.45593999997E+02  0.45594000000E+02  0.51100000000E-03 0.  1.
         11   -1    0    0    0    0 -0.00000000000E+00 -0.00000000000E+00 -0.45593999997E+02  0.45594000000E+02  0.51100000000E-03 0. -1.
    9900012    2    1    2    0    0  0.14332118820E+02  0.25522104688E+02 -0.32044278487E+02  0.47787271419E+02  0.20000001709E+02 0.  0.
        -12    1    1    2    0    0 -0.14332118820E+02 -0.25522104688E+02  0.32044278487E+02  0.43400728581E+02  0.00000000000E+00 0.  1.
         11    1    3    3    0    0  0.13863056158E+02  0.16042157308E+02 -0.30136139483E+02  0.36847279958E+02  0.51100000000E-03 0. -1.
        -11    1    3    3    0    0  0.77025883448E+00  0.33952115291E+01  0.16842744496E+01  0.38674979873E+01  0.51100000000E-03 0.  1.
         12    1    3    3    0    0 -0.30119617220E+00  0.60847358510E+01 -0.35924134536E+01  0.70724934735E+01  0.00000000000E+00 0. -1.
</event>
<event>
 7    1  0.2598019E-009  0.4778727E+02  0.7816164E-02  0.1312668E+00
        -11   -1    0    0    0    0  0.00000000000E+00  0.00000000000E+00  0.45593999997E+02  0.45594000000E+02  0.51100000000E-03 0.  1.
         11   -1    0    0    0    0 -0.00000000000E+00 -0.00000000000E+00 -0.45593999997E+02  0.45594000000E+02  0.51100000000E-03 0. -1.
    9900012    2    1    2    0    0 -0.21041904766E+02  0.23605910624E+02 -0.29725785861E+02  0.47787272845E+02  0.20000008210E+02 0.  0.
        -12    1    1    2    0    0  0.21041904766E+02 -0.23605910624E+02  0.29725785861E+02  0.43400727155E+02  0.00000000000E+00 0.  1.
         11    1    3    3    0    0 -0.20854561371E+02  0.17776600382E+02 -0.26121040872E+02  0.37858011406E+02  0.51100000000E-03 0. -1.
        -11    1    3    3    0    0  0.16604828511E+01  0.18456229279E+01  0.17252488729E+01  0.30232451481E+01  0.51100000000E-03 0.  1.
        -12    1    3    3    0    0 -0.18478262465E+01  0.39836873133E+01 -0.53299938615E+01  0.69060162909E+01  0.00000000000E+00 0.  1.
</event>
<event>
 7    1  0.2598019E-009  0.4778727E+02  0.7816164E-02  0.1312668E+00
        -11   -1    0    0    0    0  0.00000000000E+00  0.00000000000E+00  0.45593999997E+02  0.45594000000E+02  0.51100000000E-03 0.  1.
         11   -1    0    0    0    0 -0.00000000000E+00 -0.00000000000E+00 -0.45593999997E+02  0.45594000000E+02  0.51100000000E-03 0. -1.
    9900012    2    1    2    0    0  0.97631216054E+00  0.63287905304E+01 -0.42925708643E+02  0.47787271463E+02  0.20000001909E+02 0.  0.
        -12    1    1    2    0    0 -0.97631216054E+00 -0.63287905304E+01  0.42925708643E+02  0.43400728537E+02  0.00000000000E+00 0.  1.
         11    1    3    3    0    0  0.21964286100E+01  0.56396846836E+01 -0.20077943746E+02  0.20970316338E+02  0.51100000000E-03 0. -1.
        -11    1    3    3    0    0 -0.42894935543E+00 -0.57433224200E+01 -0.43522889625E+01  0.72188759127E+01  0.51100000000E-03 0.  1.
        -12    1    3    3    0    0 -0.79116709407E+00  0.64324282667E+01 -0.18495475934E+02  0.19598079212E+02  0.00000000000E+00 0.  1.
</event>
<event>
 7    1  0.2598019E-009  0.4778727E+02  0.7816164E-02  0.1312668E+00
        -11   -1    0    0    0    0  0.00000000000E+00  0.00000000000E+00  0.45593999997E+02  0.45594000000E+02  0.51100000000E-03 0.  1.
         11   -1    0    0    0    0 -0.00000000000E+00 -0.00000000000E+00 -0.45593999997E+02  0.45594000000E+02  0.51100000000E-03 0. -1.
    9900012    2    1    2    0    0  0.32245845918E+02  0.18786934347E+02 -0.22155805648E+02  0.47787271837E+02  0.20000003615E+02 0.  0.
        -12    1    1    2    0    0 -0.32245845918E+02 -0.18786934347E+02  0.22155805648E+02  0.43400728163E+02  0.00000000000E+00 0.  1.
         11    1    3    3    0    0  0.49911968561E+01  0.24891253501E+01 -0.11884281830E+02  0.13127983316E+02  0.51100000000E-03 0. -1.
        -11    1    3    3    0    0  0.51691662088E+01  0.56190631291E+01  0.92943794920E+00  0.76914241143E+01  0.51100000000E-03 0.  1.
         12    1    3    3    0    0  0.22085482853E+02  0.10678745868E+02 -0.11200961767E+02  0.26967864407E+02  0.00000000000E+00 0. -1.
</event>
<event>
 7    1  0.2598019E-009  0.4778727E+02  0.7816164E-02  0.1312668E+00
        -11   -1    0    0    0    0  0.00000000000E+00  0.00000000000E+00  0.45593999997E+02  0.45594000000E+02  0.51100000000E-03 0.  1.
         11   -1    0    0    0    0 -0.00000000000E+00 -0.00000000000E+00 -0.45593999997E+02  0.45594000000E+02  0.51100000000E-03 0. -1.
    9900012    2    1    2    0    0 -0.14746101131E+02 -0.75848181809E+01 -0.40107935584E+02  0.47787268875E+02  0.19999990107E+02 0.  0.
        -12    1    1    2    0    0  0.14746101131E+02  0.75848181809E+01  0.40107935584E+02  0.43400731125E+02  0.00000000000E+00 0.  1.
         11    1    3    3    0    0 -0.13111633397E+02  0.12886258213E+01 -0.33328381130E+02  0.35837919524E+02  0.51100000000E-03 0. -1.
        -11    1    3    3    0    0 -0.16266353291E+01 -0.65588286808E+01 -0.27364337705E+01  0.72905587029E+01  0.51100000000E-03 0.  1.
         12    1    3    3    0    0 -0.78324054288E-02 -0.23146153214E+01 -0.40431206838E+01  0.46587906474E+01  0.00000000000E+00 0. -1.
</event>
<event>
 7    1  0.2598019E-009  0.4778728E+02  0.7816164E-02  0.1312668E+00
        -11   -1    0    0    0    0  0.00000000000E+00  0.00000000000E+00  0.45593999997E+02  0.45594000000E+02  0.51100000000E-03 0. -1.
         11   -1    0    0    0    0 -0.00000000000E+00 -0.00000000000E+00 -0.45593999997E+02  0.45594000000E+02  0.51100000000E-03 0.  1.
    9900012    2    1    2    0    0 -0.24813680005E+02  0.19436025511E+02  0.29835295684E+02  0.47787277983E+02  0.20000031637E+02 0.  0.
        -12    1    1    2    0    0  0.24813680005E+02 -0.19436025511E+02 -0.29835295684E+02  0.43400722017E+02  0.00000000000E+00 0.  1.
         11    1    3    3    0    0 -0.13167407967E+02  0.94803187172E+01  0.10201743039E+02  0.19165923845E+02  0.51100000000E-03 0. -1.
        -11    1    3    3    0    0 -0.26092203149E+01  0.79538812723E+01  0.17077564567E+02  0.19018818831E+02  0.51100000000E-03 0.  1.
        -12    1    3    3    0    0 -0.90370517228E+01  0.20018255219E+01  0.25559880778E+01  0.96025353066E+01  0.00000000000E+00 0.  1.
</event>
<event>
 7    1  0.2598019E-009  0.4778727E+02  0.7816164E-02  0.1312668E+00
        -11   -1    0    0    0    0  0.00000000000E+00  0.00000000000E+00  0.45593999997E+02  0.45594000000E+02  0.51100000000E-03 0.  1.
         11   -1    0    0    0    0 -0.00000000000E+00 -0.00000000000E+00 -0.45593999997E+02  0.45594000000E+02  0.51100000000E-03 0. -1.
    9900012    2    1    2    0    0 -0.45150873780E+01  0.30522349222E+02 -0.30522502568E+02  0.47787274441E+02  0.20000015485E+02 0.  0.
        -12    1    1    2    0    0  0.45150873780E+01 -0.30522349222E+02  0.30522502568E+02  0.43400725559E+02  0.00000000000E+00 0.  1.
         11    1    3    3    0    0 -0.43654644588E+01  0.26412928226E+02 -0.29629277358E+02  0.39932369507E+02  0.51100000000E-03 0. -1.
        -11    1    3    3    0    0 -0.17397480203E+01  0.38312255117E+01  0.19093415758E+01  0.46206706883E+01  0.51100000000E-03 0.  1.
        -12    1    3    3    0    0  0.15901251011E+01  0.27819548403E+00 -0.28025667860E+01  0.32342342454E+01  0.00000000000E+00 0.  1.
</event>
<event>
 7    1  0.2598019E-009  0.4778723E+02  0.7816164E-02  0.1312668E+00
        -11   -1    0    0    0    0  0.00000000000E+00  0.00000000000E+00  0.45593999997E+02  0.45594000000E+02  0.51100000000E-03 0.  1.
         11   -1    0    0    0    0 -0.00000000000E+00 -0.00000000000E+00 -0.45593999997E+02  0.45594000000E+02  0.51100000000E-03 0. -1.
    9900012    2    1    2    0    0 -0.11750667522E+02  0.35614291866E+02 -0.21844237786E+02  0.47787231611E+02  0.19999820206E+02 0.  0.
        -12    1    1    2    0    0  0.11750667522E+02 -0.35614291866E+02  0.21844237786E+02  0.43400768389E+02  0.00000000000E+00 0.  1.
         11    1    3    3    0    0 -0.87587470815E+01  0.18515085041E+02 -0.14542556936E+02  0.25119912162E+02  0.51100000000E-03 0. -1.
        -11    1    3    3    0    0 -0.26687723797E+01  0.22759780829E+01  0.29980178271E+01  0.46141665987E+01  0.51100000000E-03 0.  1.
         12    1    3    3    0    0 -0.32314806074E+00  0.14823228742E+02 -0.10299698678E+02  0.18053152851E+02  0.00000000000E+00 0. -1.
</event>
<event>
 7    1  0.2598019E-009  0.4778727E+02  0.7816164E-02  0.1312668E+00
        -11   -1    0    0    0    0  0.00000000000E+00  0.00000000000E+00  0.45593999997E+02  0.45594000000E+02  0.51100000000E-03 0.  1.
         11   -1    0    0    0    0 -0.00000000000E+00 -0.00000000000E+00 -0.45593999997E+02  0.45594000000E+02  0.51100000000E-03 0. -1.
    9900012    2    1    2    0    0 -0.30489274146E+02 -0.11678060247E+02 -0.28594588849E+02  0.47787269125E+02  0.19999991248E+02 0.  0.
        -12    1    1    2    0    0  0.30489274146E+02  0.11678060247E+02  0.28594588849E+02  0.43400730875E+02  0.00000000000E+00 0.  1.
         11    1    3    3    0    0 -0.45589122873E+01  0.99448483444E+00 -0.51086830886E+00  0.46940034107E+01  0.51100000000E-03 0.  1.
        -11    1    3    3    0    0 -0.19542850423E+02 -0.21706418457E+01 -0.12724665195E+02  0.23421182577E+02  0.51100000000E-03 0. -1.
        -12    1    3    3    0    0 -0.63875114351E+01 -0.10501903236E+02 -0.15359055344E+02  0.19672083138E+02  0.00000000000E+00 0.  1.
</event>
<event>
 7    1  0.2598019E-009  0.4778725E+02  0.7816164E-02  0.1312668E+00
        -11   -1    0    0    0    0  0.00000000000E+00  0.00000000000E+00  0.45593999997E+02  0.45594000000E+02  0.51100000000E-03 0.  1.
         11   -1    0    0    0    0 -0.00000000000E+00 -0.00000000000E+00 -0.45593999997E+02  0.45594000000E+02  0.51100000000E-03 0. -1.
    9900012    2    1    2    0    0 -0.15003175539E+02  0.19279355589E+01 -0.40679392498E+02  0.47787249018E+02  0.19999899573E+02 0.  0.
        -12    1    1    2    0    0  0.15003175539E+02 -0.19279355589E+01  0.40679392498E+02  0.43400750982E+02  0.00000000000E+00 0.  1.
         11    1    3    3    0    0 -0.48119625066E+01 -0.12261111930E+01 -0.14184036837E+02  0.15028148025E+02  0.51100000000E-03 0. -1.
        -11    1    3    3    0    0 -0.25053315457E+01 -0.58224775380E+01 -0.14949025209E+02  0.16237342325E+02  0.51100000000E-03 0.  1.
        -12    1    3    3    0    0 -0.76858814863E+01  0.89765242899E+01 -0.11546330453E+02  0.16521758668E+02  0.00000000000E+00 0.  1.
</event>
<event>
 7    1  0.2598019E-009  0.4778727E+02  0.7816164E-02  0.1312668E+00
        -11   -1    0    0    0    0  0.00000000000E+00  0.00000000000E+00  0.45593999997E+02  0.45594000000E+02  0.51100000000E-03 0.  1.
         11   -1    0    0    0    0 -0.00000000000E+00 -0.00000000000E+00 -0.45593999997E+02  0.45594000000E+02  0.51100000000E-03 0. -1.
    9900012    2    1    2    0    0 -0.14185538408E+02 -0.34151040664E+02 -0.22717846301E+02  0.47787267069E+02  0.19999981875E+02 0.  0.
        -12    1    1    2    0    0  0.14185538408E+02  0.34151040664E+02  0.22717846301E+02  0.43400732931E+02  0.00000000000E+00 0.  1.
         11    1    3    3    0    0 -0.99274606965E+01 -0.33743956748E+02 -0.19326157771E+02  0.40133645079E+02  0.51100000000E-03 0. -1.
        -11    1    3    3    0    0 -0.32841118731E+01  0.19218968228E+01 -0.34387503867E+01  0.51287505959E+01  0.51100000000E-03 0.  1.
         12    1    3    3    0    0 -0.97396583875E+00 -0.23289807390E+01  0.47061856571E-01  0.25248713940E+01  0.00000000000E+00 0. -1.
</event>
<event>
 7    1  0.2598019E-009  0.4778727E+02  0.7816164E-02  0.1312668E+00
        -11   -1    0    0    0    0  0.00000000000E+00  0.00000000000E+00  0.45593999997E+02  0.45594000000E+02  0.51100000000E-03 0. -1.
         11   -1    0    0    0    0 -0.00000000000E+00 -0.00000000000E+00 -0.45593999997E+02  0.45594000000E+02  0.51100000000E-03 0.  1.
    9900012    2    1    2    0    0 -0.20633373971E+02  0.37547135631E+02  0.69353886808E+01  0.47787272682E+02  0.20000007468E+02 0.  0.
        -12    1    1    2    0    0  0.20633373971E+02 -0.37547135631E+02 -0.69353886808E+01  0.43400727318E+02  0.00000000000E+00 0.  1.
         11    1    3    3    0    0 -0.15568334392E+02  0.16953055861E+02  0.78353175077E+01  0.24314015289E+02  0.51100000000E-03 0. -1.
        -11    1    3    3    0    0  0.13859294810E+01  0.63397328995E+01 -0.38584397638E+01  0.75498722794E+01  0.51100000000E-03 0.  1.
        -12    1    3    3    0    0 -0.64509690605E+01  0.14254346870E+02  0.29585109368E+01  0.15923385114E+02  0.00000000000E+00 0.  1.
</event>
<event>
 7    1  0.2598019E-009  0.4778727E+02  0.7816164E-02  0.1312668E+00
        -11   -1    0    0    0    0  0.00000000000E+00  0.00000000000E+00  0.45593999997E+02  0.45594000000E+02  0.51100000000E-03 0. -1.
         11   -1    0    0    0    0 -0.00000000000E+00 -0.00000000000E+00 -0.45593999997E+02  0.45594000000E+02  0.51100000000E-03 0.  1.
    9900012    2    1    2    0    0  0.34758021750E+01  0.28132523333E+02  0.32864923396E+02  0.47787271208E+02  0.20000000747E+02 0.  0.
        -12    1    1    2    0    0 -0.34758021750E+01 -0.28132523333E+02 -0.32864923396E+02  0.43400728792E+02  0.00000000000E+00 0.  1.
         11    1    3    3    0    0 -0.35087457035E+01  0.23477614702E+00  0.70016218540E+01  0.78351212562E+01  0.51100000000E-03 0. -1.
        -11    1    3    3    0    0  0.30171295071E+01  0.25710078316E+02  0.21318984897E+02  0.33535210075E+02  0.51100000000E-03 0.  1.
        -12    1    3    3    0    0  0.39674183714E+01  0.21876688703E+01  0.45443166444E+01  0.64169398770E+01  0.00000000000E+00 0.  1.
</event>
<event>
 7    1  0.2598019E-009  0.4778727E+02  0.7816164E-02  0.1312668E+00
        -11   -1    0    0    0    0  0.00000000000E+00  0.00000000000E+00  0.45593999997E+02  0.45594000000E+02  0.51100000000E-03 0. -1.
         11   -1    0    0    0    0 -0.00000000000E+00 -0.00000000000E+00 -0.45593999997E+02  0.45594000000E+02  0.51100000000E-03 0.  1.
    9900012    2    1    2    0    0  0.13213594370E+02  0.35537011096E+01  0.41187323730E+02  0.47787268396E+02  0.19999987925E+02 0.  0.
        -12    1    1    2    0    0 -0.13213594370E+02 -0.35537011096E+01 -0.41187323730E+02  0.43400731604E+02  0.00000000000E+00 0.  1.
         11    1    3    3    0    0  0.18498533167E+01  0.54313212876E+00  0.33137401606E+02  0.33193438135E+02  0.51100000000E-03 0. -1.
        -11    1    3    3    0    0  0.10431000499E+02  0.19190598431E+01  0.77267129637E+01  0.13122143711E+02  0.51100000000E-03 0.  1.
         12    1    3    3    0    0  0.93274055374E+00  0.10915091377E+01  0.32320916009E+00  0.14716865493E+01  0.00000000000E+00 0. -1.
</event>
<event>
 7    1  0.2598019E-009  0.4778727E+02  0.7816164E-02  0.1312668E+00
        -11   -1    0    0    0    0  0.00000000000E+00  0.00000000000E+00  0.45593999997E+02  0.45594000000E+02  0.51100000000E-03 0.  1.
         11   -1    0    0    0    0 -0.00000000000E+00 -0.00000000000E+00 -0.45593999997E+02  0.45594000000E+02  0.51100000000E-03 0. -1.
    9900012    2    1    2    0    0 -0.11568090410E+02  0.37932104708E+02 -0.17633994627E+02  0.47787273626E+02  0.20000011771E+02 0.  0.
        -12    1    1    2    0    0  0.11568090410E+02 -0.37932104708E+02  0.17633994627E+02  0.43400726374E+02  0.00000000000E+00 0.  1.
         11    1    3    3    0    0 -0.78206155816E+01  0.21683779838E+02  0.48746602884E+00  0.23056147977E+02  0.51100000000E-03 0. -1.
        -11    1    3    3    0    0 -0.83557071989E+00  0.77522152358E+01 -0.74619139964E+01  0.10792366758E+02  0.51100000000E-03 0.  1.
         12    1    3    3    0    0 -0.29119041089E+01  0.84961096332E+01 -0.10659546659E+02  0.13938758891E+02  0.00000000000E+00 0. -1.
</event>
<event>
 7    1  0.2598019E-009  0.4778727E+02  0.7816164E-02  0.1312668E+00
        -11   -1    0    0    0    0  0.00000000000E+00  0.00000000000E+00  0.45593999997E+02  0.45594000000E+02  0.51100000000E-03 0. -1.
         11   -1    0    0    0    0 -0.00000000000E+00 -0.00000000000E+00 -0.45593999997E+02  0.45594000000E+02  0.51100000000E-03 0.  1.
    9900012    2    1    2    0    0 -0.17128893280E+02 -0.39493616873E+02  0.55207097419E+01  0.47787274260E+02  0.20000014663E+02 0.  0.
        -12    1    1    2    0    0  0.17128893280E+02  0.39493616873E+02 -0.55207097419E+01  0.43400725740E+02  0.00000000000E+00 0.  1.
         11    1    3    3    0    0 -0.51627107717E+01 -0.28799528484E+01  0.18708691094E+01  0.62006340326E+01  0.51100000000E-03 0. -1.
        -11    1    3    3    0    0  0.55182200165E+00 -0.25050038550E+01 -0.37150134554E+01  0.45145184760E+01  0.51100000000E-03 0.  1.
        -12    1    3    3    0    0 -0.12518004510E+02 -0.34108660169E+02  0.73648540878E+01  0.37072121752E+02  0.00000000000E+00 0.  1.
</event>
<event>
 7    1  0.2598019E-009  0.4778727E+02  0.7816164E-02  0.1312668E+00
        -11   -1    0    0    0    0  0.00000000000E+00  0.00000000000E+00  0.45593999997E+02  0.45594000000E+02  0.51100000000E-03 0.  1.
         11   -1    0    0    0    0 -0.00000000000E+00 -0.00000000000E+00 -0.45593999997E+02  0.45594000000E+02  0.51100000000E-03 0. -1.
    9900012    2    1    2    0    0  0.15944506864E+02 -0.32193237424E+02 -0.24351414142E+02  0.47787271830E+02  0.20000003582E+02 0.  0.
        -12    1    1    2    0    0 -0.15944506864E+02  0.32193237424E+02  0.24351414142E+02  0.43400728170E+02  0.00000000000E+00 0.  1.
         11    1    3    3    0    0  0.65052997090E+00 -0.93073094659E+01 -0.95180035037E+01  0.13328225302E+02  0.51100000000E-03 0. -1.
        -11    1    3    3    0    0  0.11470181748E+02 -0.18117278670E+02 -0.37024820808E+01  0.21760267221E+02  0.51100000000E-03 0.  1.
        -12    1    3    3    0    0  0.38237951453E+01 -0.47686492887E+01 -0.11130928557E+02  0.12698779307E+02  0.00000000000E+00 0.  1.
</event>
<event>
 7    1  0.2598019E-009  0.4778727E+02  0.7816164E-02  0.1312668E+00
        -11   -1    0    0    0    0  0.00000000000E+00  0.00000000000E+00  0.45593999997E+02  0.45594000000E+02  0.51100000000E-03 0. -1.
         11   -1    0    0    0    0 -0.00000000000E+00 -0.00000000000E+00 -0.45593999997E+02  0.45594000000E+02  0.51100000000E-03 0.  1.
    9900012    2    1    2    0    0  0.29250132104E+02 -0.30318877027E+02  0.10431640224E+02  0.47787266711E+02  0.19999980241E+02 0.  0.
        -12    1    1    2    0    0 -0.29250132104E+02  0.30318877027E+02 -0.10431640224E+02  0.43400733289E+02  0.00000000000E+00 0.  1.
         11    1    3    3    0    0  0.72996187972E+01 -0.14973297648E+02  0.10176974459E+02  0.19520627204E+02  0.51100000000E-03 0. -1.
        -11    1    3    3    0    0  0.63312958987E+01 -0.16611146096E+00  0.12833188911E+01  0.64621829448E+01  0.51100000000E-03 0.  1.
         12    1    3    3    0    0  0.15619217408E+02 -0.15179467918E+02 -0.10286531256E+01  0.21804456562E+02  0.00000000000E+00 0. -1.
</event>
<event>
 7    1  0.2598019E-009  0.4778727E+02  0.7816164E-02  0.1312668E+00
        -11   -1    0    0    0    0  0.00000000000E+00  0.00000000000E+00  0.45593999997E+02  0.45594000000E+02  0.51100000000E-03 0. -1.
         11   -1    0    0    0    0 -0.00000000000E+00 -0.00000000000E+00 -0.45593999997E+02  0.45594000000E+02  0.51100000000E-03 0.  1.
    9900012    2    1    2    0    0 -0.11717401991E+01 -0.28478404302E+02  0.32729664299E+02  0.47787269455E+02  0.19999992754E+02 0.  0.
        -12    1    1    2    0    0  0.11717401991E+01  0.28478404302E+02 -0.32729664299E+02  0.43400730545E+02  0.00000000000E+00 0.  1.
         11    1    3    3    0    0 -0.38222467546E+01 -0.12575368267E+00  0.66420564129E+01  0.76643524119E+01  0.51100000000E-03 0. -1.
        -11    1    3    3    0    0  0.67993457983E+01 -0.19548714795E+02  0.16611209430E+02  0.26538945579E+02  0.51100000000E-03 0.  1.
         12    1    3    3    0    0 -0.41488392428E+01 -0.88039358238E+01  0.94763984560E+01  0.13583971465E+02  0.00000000000E+00 0. -1.
</event>
<event>
 7    1  0.2598019E-009  0.4778727E+02  0.7816164E-02  0.1312668E+00
        -11   -1    0    0    0    0  0.00000000000E+00  0.00000000000E+00  0.45593999997E+02  0.45594000000E+02  0.51100000000E-03 0.  1.
         11   -1    0    0    0    0 -0.00000000000E+00 -0.00000000000E+00 -0.45593999997E+02  0.45594000000E+02  0.51100000000E-03 0. -1.
    9900012    2    1    2    0    0 -0.39269750605E+02  0.84364299894E+01 -0.16441911386E+02  0.47787272891E+02  0.20000008419E+02 0.  0.
        -12    1    1    2    0    0  0.39269750605E+02 -0.84364299894E+01  0.16441911386E+02  0.43400727109E+02  0.00000000000E+00 0.  1.
         11    1    3    3    0    0 -0.15560552563E+02 -0.55650838380E+01 -0.59964467970E+01  0.17580054853E+02  0.51100000000E-03 0. -1.
        -11    1    3    3    0    0 -0.16010327881E+02  0.84581449681E+01 -0.34819381971E+01  0.18438945442E+02  0.51100000000E-03 0.  1.
         12    1    3    3    0    0 -0.76988701618E+01  0.55433688593E+01 -0.69635263922E+01  0.11768272596E+02  0.00000000000E+00 0. -1.
</event>
<event>
 7    1  0.2598019E-009  0.4778727E+02  0.7816164E-02  0.1312668E+00
        -11   -1    0    0    0    0  0.00000000000E+00  0.00000000000E+00  0.45593999997E+02  0.45594000000E+02  0.51100000000E-03 0.  1.
         11   -1    0    0    0    0 -0.00000000000E+00 -0.00000000000E+00 -0.45593999997E+02  0.45594000000E+02  0.51100000000E-03 0. -1.
    9900012    2    1    2    0    0 -0.40842438051E+01 -0.36848684387E+02 -0.22563620314E+02  0.47787267861E+02  0.19999985486E+02 0.  0.
        -12    1    1    2    0    0  0.40842438051E+01  0.36848684387E+02  0.22563620314E+02  0.43400732139E+02  0.00000000000E+00 0.  1.
         11    1    3    3    0    0 -0.64451970085E+01 -0.33604904601E+02 -0.16038436994E+02  0.37789702819E+02  0.51100000000E-03 0. -1.
        -11    1    3    3    0    0 -0.18986856505E+00 -0.85208385325E-01 -0.58835355466E+01  0.58872150743E+01  0.51100000000E-03 0.  1.
         12    1    3    3    0    0  0.25508217684E+01 -0.31585714008E+01 -0.64164777361E+00  0.41103499673E+01  0.00000000000E+00 0. -1.
</event>
<event>
 7    1  0.2598019E-009  0.4778727E+02  0.7816164E-02  0.1312668E+00
        -11   -1    0    0    0    0  0.00000000000E+00  0.00000000000E+00  0.45593999997E+02  0.45594000000E+02  0.51100000000E-03 0.  1.
         11   -1    0    0    0    0 -0.00000000000E+00 -0.00000000000E+00 -0.45593999997E+02  0.45594000000E+02  0.51100000000E-03 0. -1.
    9900012    2    1    2    0    0  0.26221417285E+02  0.23413096798E+02 -0.25453633398E+02  0.47787270983E+02  0.19999999719E+02 0.  0.
        -12    1    1    2    0    0 -0.26221417285E+02 -0.23413096798E+02  0.25453633398E+02  0.43400729017E+02  0.00000000000E+00 0.  1.
         11    1    3    3    0    0  0.16592625366E+02  0.15902372734E+02 -0.71872613595E+01  0.24080228430E+02  0.51100000000E-03 0. -1.
        -11    1    3    3    0    0  0.26292935515E+01 -0.35132314308E+00 -0.32507591357E-01  0.26528606325E+01  0.51100000000E-03 0.  1.
         12    1    3    3    0    0  0.69994983670E+01  0.78620472065E+01 -0.18233864447E+02  0.21054181920E+02  0.00000000000E+00 0. -1.
</event>
<event>
 7    1  0.2598019E-009  0.4778729E+02  0.7816164E-02  0.1312668E+00
        -11   -1    0    0    0    0  0.00000000000E+00  0.00000000000E+00  0.45593999997E+02  0.45594000000E+02  0.51100000000E-03 0. -1.
         11   -1    0    0    0    0 -0.00000000000E+00 -0.00000000000E+00 -0.45593999997E+02  0.45594000000E+02  0.51100000000E-03 0.  1.
    9900012    2    1    2    0    0  0.52690923294E+01 -0.42826938091E+02  0.46596177922E+01  0.47787285741E+02  0.20000067005E+02 0.  0.
        -12    1    1    2    0    0 -0.52690923294E+01  0.42826938091E+02 -0.46596177922E+01  0.43400714259E+02  0.00000000000E+00 0.  1.
         11    1    3    3    0    0  0.48887925726E+01 -0.18057619537E+02  0.93466570649E+01  0.20912625725E+02  0.51100000000E-03 0. -1.
        -11    1    3    3    0    0  0.11081466516E+01 -0.47882546557E+00 -0.21179774645E+01  0.24378456943E+01  0.51100000000E-03 0.  1.
         12    1    3    3    0    0 -0.72784689477E+00 -0.24290493089E+02 -0.25690618082E+01  0.24436814321E+02  0.00000000000E+00 0. -1.
</event>
<event>
 7    1  0.2598019E-009  0.4778727E+02  0.7816164E-02  0.1312668E+00
        -11   -1    0    0    0    0  0.00000000000E+00  0.00000000000E+00  0.45593999997E+02  0.45594000000E+02  0.51100000000E-03 0. -1.
         11   -1    0    0    0    0 -0.00000000000E+00 -0.00000000000E+00 -0.45593999997E+02  0.45594000000E+02  0.51100000000E-03 0.  1.
    9900012    2    1    2    0    0 -0.23876950017E+02  0.24913277604E+02  0.26321917184E+02  0.47787268816E+02  0.19999989840E+02 0.  0.
        -12    1    1    2    0    0  0.23876950017E+02 -0.24913277604E+02 -0.26321917184E+02  0.43400731184E+02  0.00000000000E+00 0.  1.
         11    1    3    3    0    0  0.26457898470E+01  0.12539016747E+01  0.25428507044E+01  0.38779586499E+01  0.51100000000E-03 0. -1.
        -11    1    3    3    0    0 -0.31577906501E+01  0.35137813346E+01  0.79176975463E+01  0.92199910929E+01  0.51100000000E-03 0.  1.
         12    1    3    3    0    0 -0.23364949214E+02  0.20145594595E+02  0.15861368933E+02  0.34689319073E+02  0.00000000000E+00 0. -1.
</event>
<event>
 7    1  0.2598019E-009  0.4778727E+02  0.7816164E-02  0.1312668E+00
        -11   -1    0    0    0    0  0.00000000000E+00  0.00000000000E+00  0.45593999997E+02  0.45594000000E+02  0.51100000000E-03 0.  1.
         11   -1    0    0    0    0 -0.00000000000E+00 -0.00000000000E+00 -0.45593999997E+02  0.45594000000E+02  0.51100000000E-03 0. -1.
    9900012    2    1    2    0    0 -0.33227652879E+02  0.34157279858E+01 -0.27710634642E+02  0.47787269755E+02  0.19999994122E+02 0.  0.
        -12    1    1    2    0    0  0.33227652879E+02 -0.34157279858E+01  0.27710634642E+02  0.43400730245E+02  0.00000000000E+00 0.  1.
         11    1    3    3    0    0 -0.26149882225E+02  0.15653550438E+01 -0.18990698687E+02  0.32356039833E+02  0.51100000000E-03 0. -1.
        -11    1    3    3    0    0 -0.84496667888E+00  0.53673191567E+01 -0.49120758255E+01  0.73246551315E+01  0.51100000000E-03 0.  1.
        -12    1    3    3    0    0 -0.62328039752E+01 -0.35169462147E+01 -0.38078601291E+01  0.81065747904E+01  0.00000000000E+00 0.  1.
</event>
<event>
 7    1  0.2598019E-009  0.4778727E+02  0.7816164E-02  0.1312668E+00
        -11   -1    0    0    0    0  0.00000000000E+00  0.00000000000E+00  0.45593999997E+02  0.45594000000E+02  0.51100000000E-03 0.  1.
         11   -1    0    0    0    0 -0.00000000000E+00 -0.00000000000E+00 -0.45593999997E+02  0.45594000000E+02  0.51100000000E-03 0. -1.
    9900012    2    1    2    0    0 -0.33733798361E+02  0.26226242743E+01 -0.27180428605E+02  0.47787274095E+02  0.20000013908E+02 0.  0.
        -12    1    1    2    0    0  0.33733798361E+02 -0.26226242743E+01  0.27180428605E+02  0.43400725905E+02  0.00000000000E+00 0.  1.
         11    1    3    3    0    0 -0.28981674150E+02  0.69075220756E+01 -0.25361481020E+02  0.39126155159E+02  0.51100000000E-03 0. -1.
        -11    1    3    3    0    0 -0.31485974511E+01 -0.22728740614E+00 -0.27653050903E+01  0.41966936959E+01  0.51100000000E-03 0.  1.
         12    1    3    3    0    0 -0.16035267605E+01 -0.40576103952E+01  0.94635750605E+00  0.44644252396E+01  0.00000000000E+00 0. -1.
</event>
<event>
 7    1  0.2598019E-009  0.4778730E+02  0.7816164E-02  0.1312668E+00
        -11   -1    0    0    0    0  0.00000000000E+00  0.00000000000E+00  0.45593999997E+02  0.45594000000E+02  0.51100000000E-03 0.  1.
         11   -1    0    0    0    0 -0.00000000000E+00 -0.00000000000E+00 -0.45593999997E+02  0.45594000000E+02  0.51100000000E-03 0. -1.
    9900012    2    1    2    0    0  0.37050205445E+02  0.84391936427E+01  0.20968625405E+02  0.47787297653E+02  0.20000121320E+02 0.  0.
        -12    1    1    2    0    0 -0.37050205445E+02 -0.84391936427E+01 -0.20968625405E+02  0.43400702347E+02  0.00000000000E+00 0.  1.
         11    1    3    3    0    0  0.21071205449E+02  0.11210034997E+01  0.23840271642E+01  0.21235252146E+02  0.51100000000E-03 0. -1.
        -11    1    3    3    0    0  0.69369486333E+01  0.65258462941E+01  0.12091671341E+02  0.15392090250E+02  0.51100000000E-03 0.  1.
         12    1    3    3    0    0  0.90420513619E+01  0.79234384894E+00  0.64929268999E+01  0.11159955257E+02  0.00000000000E+00 0. -1.
</event>
<event>
 7    1  0.2598019E-009  0.4778727E+02  0.7816164E-02  0.1312668E+00
        -11   -1    0    0    0    0  0.00000000000E+00  0.00000000000E+00  0.45593999997E+02  0.45594000000E+02  0.51100000000E-03 0.  1.
         11   -1    0    0    0    0 -0.00000000000E+00 -0.00000000000E+00 -0.45593999997E+02  0.45594000000E+02  0.51100000000E-03 0. -1.
    9900012    2    1    2    0    0 -0.18059197297E+02 -0.37142953346E+02 -0.13337534208E+02  0.47787269487E+02  0.19999992899E+02 0.  0.
        -12    1    1    2    0    0  0.18059197297E+02  0.37142953346E+02  0.13337534208E+02  0.43400730513E+02  0.00000000000E+00 0.  1.
         11    1    3    3    0    0 -0.15089619510E+02 -0.32481380260E+02 -0.76529316773E+01  0.36623817989E+02  0.51100000000E-03 0. -1.
        -11    1    3    3    0    0 -0.29890592229E+01  0.15694791571E+01 -0.19398987926E+01  0.38937061329E+01  0.51100000000E-03 0.  1.
         12    1    3    3    0    0  0.19481435724E-01 -0.62310522431E+01 -0.37447037386E+01  0.72697453650E+01  0.00000000000E+00 0. -1.
</event>
<event>
 7    1  0.2598019E-009  0.4778724E+02  0.7816164E-02  0.1312668E+00
        -11   -1    0    0    0    0  0.00000000000E+00  0.00000000000E+00  0.45593999997E+02  0.45594000000E+02  0.51100000000E-03 0. -1.
         11   -1    0    0    0    0 -0.00000000000E+00 -0.00000000000E+00 -0.45593999997E+02  0.45594000000E+02  0.51100000000E-03 0.  1.
    9900012    2    1    2    0    0  0.53161559824E+01  0.40195280363E+02  0.15482373490E+02  0.47787240021E+02  0.19999858552E+02 0.  0.
        -12    1    1    2    0    0 -0.53161559824E+01 -0.40195280363E+02 -0.15482373490E+02  0.43400759979E+02  0.00000000000E+00 0.  1.
         11    1    3    3    0    0 -0.37124659414E+01  0.11453140977E+01  0.35875727203E+01  0.52881779502E+01  0.51100000000E-03 0. -1.
        -11    1    3    3    0    0 -0.11818095754E+01  0.47278312897E+01  0.39569714906E+00  0.48893393287E+01  0.51100000000E-03 0.  1.
         12    1    3    3    0    0  0.10210431499E+02  0.34322134975E+02  0.11499103621E+02  0.37609722742E+02  0.00000000000E+00 0. -1.
</event>
<event>
 7    1  0.2598019E-009  0.4778726E+02  0.7816164E-02  0.1312668E+00
        -11   -1    0    0    0    0  0.00000000000E+00  0.00000000000E+00  0.45593999997E+02  0.45594000000E+02  0.51100000000E-03 0. -1.
         11   -1    0    0    0    0 -0.00000000000E+00 -0.00000000000E+00 -0.45593999997E+02  0.45594000000E+02  0.51100000000E-03 0.  1.
    9900012    2    1    2    0    0  0.43397720919E+02 -0.41485275808E+00  0.30031586212E+00  0.47787257226E+02  0.19999936994E+02 0.  0.
        -12    1    1    2    0    0 -0.43397720919E+02  0.41485275808E+00 -0.30031586212E+00  0.43400742774E+02  0.00000000000E+00 0.  1.
         11    1    3    3    0    0  0.28695217038E+02 -0.67304654571E+01  0.32064434715E+01  0.29647865457E+02  0.51100000000E-03 0. -1.
        -11    1    3    3    0    0  0.44977015116E+01 -0.18192471919E+01 -0.64158015333E+00  0.48939354907E+01  0.51100000000E-03 0.  1.
         12    1    3    3    0    0  0.10204802369E+02  0.81348598910E+01 -0.22645474561E+01  0.13245456278E+02  0.00000000000E+00 0. -1.
</event>
<event>
 7    1  0.2598019E-009  0.4778727E+02  0.7816164E-02  0.1312668E+00
        -11   -1    0    0    0    0  0.00000000000E+00  0.00000000000E+00  0.45593999997E+02  0.45594000000E+02  0.51100000000E-03 0.  1.
         11   -1    0    0    0    0 -0.00000000000E+00 -0.00000000000E+00 -0.45593999997E+02  0.45594000000E+02  0.51100000000E-03 0. -1.
    9900012    2    1    2    0    0 -0.30211604294E+02 -0.15346688764E+01 -0.31121174648E+02  0.47787265513E+02  0.19999974778E+02 0.  0.
        -12    1    1    2    0    0  0.30211604294E+02  0.15346688764E+01  0.31121174648E+02  0.43400734487E+02  0.00000000000E+00 0.  1.
         11    1    3    3    0    0 -0.30811101279E+02 -0.35460416381E+01 -0.27755523420E+02  0.41620517223E+02  0.51100000000E-03 0. -1.
        -11    1    3    3    0    0  0.16200054256E+01 -0.69163375810E+00 -0.26637371546E+01  0.31934731444E+01  0.51100000000E-03 0.  1.
         12    1    3    3    0    0 -0.10205084409E+01  0.27030065198E+01 -0.70191407347E+00  0.29732751455E+01  0.00000000000E+00 0. -1.
</event>
<event>
 7    1  0.2598019E-009  0.4778727E+02  0.7816164E-02  0.1312668E+00
        -11   -1    0    0    0    0  0.00000000000E+00  0.00000000000E+00  0.45593999997E+02  0.45594000000E+02  0.51100000000E-03 0.  1.
         11   -1    0    0    0    0 -0.00000000000E+00 -0.00000000000E+00 -0.45593999997E+02  0.45594000000E+02  0.51100000000E-03 0. -1.
    9900012    2    1    2    0    0 -0.19977860896E+02  0.14428086120E+01 -0.38502295325E+02  0.47787269961E+02  0.19999995058E+02 0.  0.
        -12    1    1    2    0    0  0.19977860896E+02 -0.14428086120E+01  0.38502295325E+02  0.43400730039E+02  0.00000000000E+00 0.  1.
         11    1    3    3    0    0 -0.12826277265E+02  0.46184856102E+01 -0.72154007611E+01  0.15424195480E+02  0.51100000000E-03 0. -1.
        -11    1    3    3    0    0  0.11939055298E+00 -0.46385948535E+00 -0.26714416477E+01  0.27140413528E+01  0.51100000000E-03 0.  1.
         12    1    3    3    0    0 -0.72709741844E+01 -0.27118175128E+01 -0.28615452916E+02  0.29649033127E+02  0.00000000000E+00 0. -1.
</event>
<event>
 7    1  0.2598019E-009  0.4778725E+02  0.7816164E-02  0.1312668E+00
        -11   -1    0    0    0    0  0.00000000000E+00  0.00000000000E+00  0.45593999997E+02  0.45594000000E+02  0.51100000000E-03 0.  1.
         11   -1    0    0    0    0 -0.00000000000E+00 -0.00000000000E+00 -0.45593999997E+02  0.45594000000E+02  0.51100000000E-03 0. -1.
    9900012    2    1    2    0    0 -0.48240164452E+01  0.39300106271E+02 -0.17772327160E+02  0.47787250004E+02  0.19999904068E+02 0.  0.
        -12    1    1    2    0    0  0.48240164452E+01 -0.39300106271E+02  0.17772327160E+02  0.43400749996E+02  0.00000000000E+00 0.  1.
         11    1    3    3    0    0  0.13840808324E+01  0.25309780348E+02 -0.33074711155E+01  0.25562473012E+02  0.51100000000E-03 0. -1.
        -11    1    3    3    0    0 -0.11999714358E+01  0.10360674932E+02 -0.10898540291E+02  0.15085148234E+02  0.51100000000E-03 0.  1.
         12    1    3    3    0    0 -0.50081258418E+01  0.36296509906E+01 -0.35663157529E+01  0.71396287586E+01  0.00000000000E+00 0. -1.
</event>
<event>
 7    1  0.2598019E-009  0.4778726E+02  0.7816164E-02  0.1312668E+00
        -11   -1    0    0    0    0  0.00000000000E+00  0.00000000000E+00  0.45593999997E+02  0.45594000000E+02  0.51100000000E-03 0. -1.
         11   -1    0    0    0    0 -0.00000000000E+00 -0.00000000000E+00 -0.45593999997E+02  0.45594000000E+02  0.51100000000E-03 0.  1.
    9900012    2    1    2    0    0 -0.37713675159E+02  0.12891090861E+02  0.17179135423E+02  0.47787260243E+02  0.19999950752E+02 0.  0.
        -12    1    1    2    0    0  0.37713675159E+02 -0.12891090861E+02 -0.17179135423E+02  0.43400739757E+02  0.00000000000E+00 0.  1.
         11    1    3    3    0    0 -0.15238853874E+02  0.11131134580E+02  0.13957752216E+02  0.23472189323E+02  0.51100000000E-03 0. -1.
        -11    1    3    3    0    0 -0.30200194526E+01 -0.16589683913E+01 -0.18646564032E+01  0.39178613274E+01  0.51100000000E-03 0.  1.
         12    1    3    3    0    0 -0.19454801832E+02  0.34189246723E+01  0.50860396093E+01  0.20397209593E+02  0.00000000000E+00 0. -1.
</event>
<event>
 7    1  0.2598019E-009  0.4778727E+02  0.7816164E-02  0.1312668E+00
        -11   -1    0    0    0    0  0.00000000000E+00  0.00000000000E+00  0.45593999997E+02  0.45594000000E+02  0.51100000000E-03 0.  1.
         11   -1    0    0    0    0 -0.00000000000E+00 -0.00000000000E+00 -0.45593999997E+02  0.45594000000E+02  0.51100000000E-03 0. -1.
    9900012    2    1    2    0    0 -0.20291912255E+01  0.31545458993E+02 -0.29738693081E+02  0.47787268828E+02  0.19999989896E+02 0.  0.
        -12    1    1    2    0    0  0.20291912255E+01 -0.31545458993E+02  0.29738693081E+02  0.43400731172E+02  0.00000000000E+00 0.  1.
         11    1    3    3    0    0 -0.14708268989E+01  0.26004007603E+02 -0.16312193575E+02  0.30732058224E+02  0.51100000000E-03 0. -1.
        -11    1    3    3    0    0  0.41379572855E+01  0.20001907423E+01 -0.51651456289E+01  0.69139122883E+01  0.51100000000E-03 0.  1.
         12    1    3    3    0    0 -0.46963216121E+01  0.35412606473E+01 -0.82613538772E+01  0.10141298316E+02  0.00000000000E+00 0. -1.
</event>
<event>
 7    1  0.2598019E-009  0.4778727E+02  0.7816164E-02  0.1312668E+00
        -11   -1    0    0    0    0  0.00000000000E+00  0.00000000000E+00  0.45593999997E+02  0.45594000000E+02  0.51100000000E-03 0.  1.
         11   -1    0    0    0    0 -0.00000000000E+00 -0.00000000000E+00 -0.45593999997E+02  0.45594000000E+02  0.51100000000E-03 0. -1.
    9900012    2    1    2    0    0  0.20568615722E+02  0.95483005384E+00 -0.38205282731E+02  0.47787270955E+02  0.19999999590E+02 0.  0.
        -12    1    1    2    0    0 -0.20568615722E+02 -0.95483005384E+00  0.38205282731E+02  0.43400729045E+02  0.00000000000E+00 0.  1.
         11    1    3    3    0    0  0.14821611375E+02  0.63844855778E+00 -0.12108608792E+02  0.19149574081E+02  0.51100000000E-03 0. -1.
        -11    1    3    3    0    0  0.23110017474E+01  0.51596782739E+01 -0.15372672558E+02  0.16379318386E+02  0.51100000000E-03 0.  1.
         12    1    3    3    0    0  0.34360025989E+01 -0.48432967778E+01 -0.10724001381E+02  0.12258378488E+02  0.00000000000E+00 0. -1.
</event>
<event>
 7    1  0.2598019E-009  0.4778727E+02  0.7816164E-02  0.1312668E+00
        -11   -1    0    0    0    0  0.00000000000E+00  0.00000000000E+00  0.45593999997E+02  0.45594000000E+02  0.51100000000E-03 0. -1.
         11   -1    0    0    0    0 -0.00000000000E+00 -0.00000000000E+00 -0.45593999997E+02  0.45594000000E+02  0.51100000000E-03 0.  1.
    9900012    2    1    2    0    0 -0.26676281946E+02  0.21163698476E+02  0.26909048262E+02  0.47787273854E+02  0.20000012810E+02 0.  0.
        -12    1    1    2    0    0  0.26676281946E+02 -0.21163698476E+02 -0.26909048262E+02  0.43400726146E+02  0.00000000000E+00 0.  1.
         11    1    3    3    0    0  0.83351146025E+00  0.80968116346E+01  0.31005626968E+01  0.87101428977E+01  0.51100000000E-03 0. -1.
        -11    1    3    3    0    0 -0.26155202561E+02  0.12643889391E+02  0.20734783221E+02  0.35691648819E+02  0.51100000000E-03 0.  1.
         12    1    3    3    0    0 -0.13545908456E+01  0.42299744985E+00  0.30737023442E+01  0.33854821373E+01  0.00000000000E+00 0. -1.
</event>
<event>
 7    1  0.2598019E-009  0.4778727E+02  0.7816164E-02  0.1312668E+00
        -11   -1    0    0    0    0  0.00000000000E+00  0.00000000000E+00  0.45593999997E+02  0.45594000000E+02  0.51100000000E-03 0.  1.
         11   -1    0    0    0    0 -0.00000000000E+00 -0.00000000000E+00 -0.45593999997E+02  0.45594000000E+02  0.51100000000E-03 0. -1.
    9900012    2    1    2    0    0  0.38647180421E+02  0.15083817184E+02 -0.12747450958E+02  0.47787267273E+02  0.19999982804E+02 0.  0.
        -12    1    1    2    0    0 -0.38647180421E+02 -0.15083817184E+02  0.12747450958E+02  0.43400732727E+02  0.00000000000E+00 0.  1.
         11    1    3    3    0    0  0.12789886788E+02  0.12358677007E+01  0.28946175733E+01  0.13171460973E+02  0.51100000000E-03 0. -1.
        -11    1    3    3    0    0 -0.83676166375E+00  0.19697715359E+00 -0.74143346887E+00  0.11352065587E+01  0.51100000000E-03 0.  1.
         12    1    3    3    0    0  0.26694055297E+02  0.13650972330E+02 -0.14900635062E+02  0.33480599741E+02  0.00000000000E+00 0. -1.
</event>
<event>
 7    1  0.2598019E-009  0.4778733E+02  0.7816164E-02  0.1312668E+00
        -11   -1    0    0    0    0  0.00000000000E+00  0.00000000000E+00  0.45593999997E+02  0.45594000000E+02  0.51100000000E-03 0.  1.
         11   -1    0    0    0    0 -0.00000000000E+00 -0.00000000000E+00 -0.45593999997E+02  0.45594000000E+02  0.51100000000E-03 0. -1.
    9900012    2    1    2    0    0 -0.60995901946E+01 -0.26010993387E+02 -0.34202948875E+02  0.47787326166E+02  0.20000251320E+02 0.  0.
        -12    1    1    2    0    0  0.60995901946E+01  0.26010993387E+02  0.34202948875E+02  0.43400673834E+02  0.00000000000E+00 0.  1.
         11    1    3    3    0    0 -0.10319824339E+02 -0.14827445243E+02 -0.16357740082E+02  0.24370629201E+02  0.51100000000E-03 0. -1.
        -11    1    3    3    0    0  0.54405782810E+01 -0.76215880071E+01 -0.63336730652E+01  0.11305039166E+02  0.51100000000E-03 0.  1.
         12    1    3    3    0    0 -0.12203441362E+01 -0.35619601366E+01 -0.11511535728E+02  0.12111657799E+02  0.00000000000E+00 0. -1.
</event>
<event>
 7    1  0.2598019E-009  0.4778727E+02  0.7816164E-02  0.1312668E+00
        -11   -1    0    0    0    0  0.00000000000E+00  0.00000000000E+00  0.45593999997E+02  0.45594000000E+02  0.51100000000E-03 0.  1.
         11   -1    0    0    0    0 -0.00000000000E+00 -0.00000000000E+00 -0.45593999997E+02  0.45594000000E+02  0.51100000000E-03 0. -1.
    9900012    2    1    2    0    0 -0.30430659024E+02 -0.24946632680E+02 -0.18310219975E+02  0.47787266755E+02  0.19999980441E+02 0.  0.
        -12    1    1    2    0    0  0.30430659024E+02  0.24946632680E+02  0.18310219975E+02  0.43400733245E+02  0.00000000000E+00 0.  1.
         11    1    3    3    0    0 -0.26170375748E+02 -0.14705529213E+02 -0.16425211586E+02  0.34218835926E+02  0.51100000000E-03 0. -1.
        -11    1    3    3    0    0 -0.39448310002E+01 -0.12981548445E+01  0.79261650643E+00  0.42279000470E+01  0.51100000000E-03 0.  1.
         12    1    3    3    0    0 -0.31545227602E+00 -0.89429486223E+01 -0.26776248950E+01  0.93405307814E+01  0.00000000000E+00 0. -1.
</event>
<event>
 7    1  0.2598019E-009  0.4778727E+02  0.7816164E-02  0.1312668E+00
        -11   -1    0    0    0    0  0.00000000000E+00  0.00000000000E+00  0.45593999997E+02  0.45594000000E+02  0.51100000000E-03 0.  1.
         11   -1    0    0    0    0 -0.00000000000E+00 -0.00000000000E+00 -0.45593999997E+02  0.45594000000E+02  0.51100000000E-03 0. -1.
    9900012    2    1    2    0    0  0.34199034677E+02 -0.21372742164E+00 -0.26720844134E+02  0.47787272316E+02  0.20000005799E+02 0.  0.
        -12    1    1    2    0    0 -0.34199034677E+02  0.21372742164E+00  0.26720844134E+02  0.43400727684E+02  0.00000000000E+00 0.  1.
         11    1    3    3    0    0  0.52723806894E+01  0.47141486041E+01 -0.13625851131E+01  0.72026268574E+01  0.51100000000E-03 0.  1.
        -11    1    3    3    0    0  0.29954596363E+02 -0.55740275916E+01 -0.24509493671E+02  0.39103233973E+02  0.51100000000E-03 0. -1.
        -12    1    3    3    0    0 -0.10279423751E+01  0.64615156585E+00 -0.84876534917E+00  0.14814114859E+01  0.00000000000E+00 0.  1.
</event>
<event>
 7    1  0.2598019E-009  0.4778727E+02  0.7816164E-02  0.1312668E+00
        -11   -1    0    0    0    0  0.00000000000E+00  0.00000000000E+00  0.45593999997E+02  0.45594000000E+02  0.51100000000E-03 0.  1.
         11   -1    0    0    0    0 -0.00000000000E+00 -0.00000000000E+00 -0.45593999997E+02  0.45594000000E+02  0.51100000000E-03 0. -1.
    9900012    2    1    2    0    0  0.64577880402E-01  0.32440314263E+02 -0.28831321884E+02  0.47787270958E+02  0.19999999608E+02 0.  0.
        -12    1    1    2    0    0 -0.64577880402E-01 -0.32440314263E+02  0.28831321884E+02  0.43400729042E+02  0.00000000000E+00 0.  1.
         11    1    3    3    0    0  0.27215342310E+01  0.18282673579E+02 -0.91642788722E+01  0.20631212017E+02  0.51100000000E-03 0. -1.
        -11    1    3    3    0    0 -0.45035222460E+01  0.61281231041E+00 -0.79226739408E+01  0.91337842202E+01  0.51100000000E-03 0.  1.
         12    1    3    3    0    0  0.18465658954E+01  0.13544828373E+02 -0.11744369071E+02  0.18022274722E+02  0.00000000000E+00 0. -1.
</event>
<event>
 7    1  0.2598019E-009  0.4778728E+02  0.7816164E-02  0.1312668E+00
        -11   -1    0    0    0    0  0.00000000000E+00  0.00000000000E+00  0.45593999997E+02  0.45594000000E+02  0.51100000000E-03 0.  1.
         11   -1    0    0    0    0 -0.00000000000E+00 -0.00000000000E+00 -0.45593999997E+02  0.45594000000E+02  0.51100000000E-03 0. -1.
    9900012    2    1    2    0    0 -0.13325997124E+02 -0.33304640205E+02 -0.24430330644E+02  0.47787282104E+02  0.20000050425E+02 0.  0.
        -12    1    1    2    0    0  0.13325997124E+02  0.33304640205E+02  0.24430330644E+02  0.43400717896E+02  0.00000000000E+00 0.  1.
         11    1    3    3    0    0  0.13848006320E+01 -0.15005390889E+02 -0.96204700486E+01  0.17878279357E+02  0.51100000000E-03 0. -1.
        -11    1    3    3    0    0 -0.66964703847E+01 -0.49571089619E+01 -0.11152400719E+02  0.13920908265E+02  0.51100000000E-03 0.  1.
         12    1    3    3    0    0 -0.80143273710E+01 -0.13342140354E+02 -0.36574598766E+01  0.15988094482E+02  0.00000000000E+00 0. -1.
</event>
<event>
 7    1  0.2598019E-009  0.4778728E+02  0.7816164E-02  0.1312668E+00
        -11   -1    0    0    0    0  0.00000000000E+00  0.00000000000E+00  0.45593999997E+02  0.45594000000E+02  0.51100000000E-03 0.  1.
         11   -1    0    0    0    0 -0.00000000000E+00 -0.00000000000E+00 -0.45593999997E+02  0.45594000000E+02  0.51100000000E-03 0. -1.
    9900012    2    1    2    0    0  0.30231557828E+02 -0.31134529394E+02  0.56295009239E+00  0.47787275097E+02  0.20000018478E+02 0.  0.
        -12    1    1    2    0    0 -0.30231557828E+02  0.31134529394E+02 -0.56295009239E+00  0.43400724903E+02  0.00000000000E+00 0.  1.
         11    1    3    3    0    0  0.13713855249E+02 -0.26160729208E+02  0.14606160214E+01  0.29573416744E+02  0.51100000000E-03 0. -1.
        -11    1    3    3    0    0  0.12477888743E+02 -0.11829324361E+01 -0.15761147602E+01  0.12632544266E+02  0.51100000000E-03 0.  1.
        -12    1    3    3    0    0  0.40398138361E+01 -0.37908677502E+01  0.67844883126E+00  0.55813140878E+01  0.00000000000E+00 0.  1.
</event>
<event>
 7    1  0.2598019E-009  0.4778727E+02  0.7816164E-02  0.1312668E+00
        -11   -1    0    0    0    0  0.00000000000E+00  0.00000000000E+00  0.45593999997E+02  0.45594000000E+02  0.51100000000E-03 0. -1.
         11   -1    0    0    0    0 -0.00000000000E+00 -0.00000000000E+00 -0.45593999997E+02  0.45594000000E+02  0.51100000000E-03 0.  1.
    9900012    2    1    2    0    0  0.27457217094E+02  0.28611049141E+02  0.17638951230E+02  0.47787268394E+02  0.19999987915E+02 0.  0.
        -12    1    1    2    0    0 -0.27457217094E+02 -0.28611049141E+02 -0.17638951230E+02  0.43400731606E+02  0.00000000000E+00 0.  1.
         11    1    3    3    0    0  0.79207072994E+01  0.26727046100E+01  0.43136859757E+01  0.94068507490E+01  0.51100000000E-03 0. -1.
        -11    1    3    3    0    0  0.17528499657E+02  0.15264372937E+02  0.14594383232E+02  0.27445316605E+02  0.51100000000E-03 0.  1.
        -12    1    3    3    0    0  0.20080101377E+01  0.10673971594E+02 -0.12691179785E+01  0.10935101039E+02  0.00000000000E+00 0.  1.
</event>
<event>
 7    1  0.2598019E-009  0.4778727E+02  0.7816164E-02  0.1312668E+00
        -11   -1    0    0    0    0  0.00000000000E+00  0.00000000000E+00  0.45593999997E+02  0.45594000000E+02  0.51100000000E-03 0.  1.
         11   -1    0    0    0    0 -0.00000000000E+00 -0.00000000000E+00 -0.45593999997E+02  0.45594000000E+02  0.51100000000E-03 0. -1.
    9900012    2    1    2    0    0 -0.38493119532E+02 -0.70674993681E+01 -0.18760418251E+02  0.47787273145E+02  0.20000009578E+02 0.  0.
        -12    1    1    2    0    0  0.38493119532E+02  0.70674993681E+01  0.18760418251E+02  0.43400726855E+02  0.00000000000E+00 0.  1.
         11    1    3    3    0    0 -0.65887355825E+01 -0.38041751821E+00  0.30931174039E+01  0.72885889992E+01  0.51100000000E-03 0. -1.
        -11    1    3    3    0    0 -0.29499749787E+02 -0.68682846575E+01 -0.22796981418E+02  0.37909246018E+02  0.51100000000E-03 0.  1.
        -12    1    3    3    0    0 -0.24046341622E+01  0.18120280763E+00  0.94344576307E+00  0.25894381281E+01  0.00000000000E+00 0.  1.
</event>
<event>
 7    1  0.2598019E-009  0.4778727E+02  0.7816164E-02  0.1312668E+00
        -11   -1    0    0    0    0  0.00000000000E+00  0.00000000000E+00  0.45593999997E+02  0.45594000000E+02  0.51100000000E-03 0.  1.
         11   -1    0    0    0    0 -0.00000000000E+00 -0.00000000000E+00 -0.45593999997E+02  0.45594000000E+02  0.51100000000E-03 0. -1.
    9900012    2    1    2    0    0  0.22340269098E+02  0.14659833443E+02 -0.34199782402E+02  0.47787268943E+02  0.19999990419E+02 0.  0.
        -12    1    1    2    0    0 -0.22340269098E+02 -0.14659833443E+02  0.34199782402E+02  0.43400731057E+02  0.00000000000E+00 0.  1.
         11    1    3    3    0    0  0.22948854567E+02  0.94562845290E+01 -0.28778614984E+02  0.38003683028E+02  0.51100000000E-03 0. -1.
        -11    1    3    3    0    0 -0.99918159913E+00 -0.10989435594E+01 -0.37861361449E-01  0.14857572341E+01  0.51100000000E-03 0.  1.
         12    1    3    3    0    0  0.39059612966E+00  0.63024924739E+01 -0.53833060564E+01  0.82978286809E+01  0.00000000000E+00 0. -1.
</event>
<event>
 7    1  0.2598019E-009  0.4778728E+02  0.7816164E-02  0.1312668E+00
        -11   -1    0    0    0    0  0.00000000000E+00  0.00000000000E+00  0.45593999997E+02  0.45594000000E+02  0.51100000000E-03 0.  1.
         11   -1    0    0    0    0 -0.00000000000E+00 -0.00000000000E+00 -0.45593999997E+02  0.45594000000E+02  0.51100000000E-03 0. -1.
    9900012    2    1    2    0    0 -0.96918312603E+01  0.24284825746E+02 -0.34640128711E+02  0.47787275676E+02  0.20000021119E+02 0.  0.
        -12    1    1    2    0    0  0.96918312603E+01 -0.24284825746E+02  0.34640128711E+02  0.43400724324E+02  0.00000000000E+00 0.  1.
         11    1    3    3    0    0 -0.62057761040E+01  0.19266131598E+02 -0.16061701711E+02  0.25839383621E+02  0.51100000000E-03 0. -1.
        -11    1    3    3    0    0 -0.38869217855E+01  0.38495086440E+00 -0.13972842136E+01  0.41483432319E+01  0.51100000000E-03 0.  1.
         12    1    3    3    0    0  0.40086662922E+00  0.46337432838E+01 -0.17181142787E+02  0.17799548824E+02  0.00000000000E+00 0. -1.
</event>
<event>
 7    1  0.2598019E-009  0.4778727E+02  0.7816164E-02  0.1312668E+00
        -11   -1    0    0    0    0  0.00000000000E+00  0.00000000000E+00  0.45593999997E+02  0.45594000000E+02  0.51100000000E-03 0.  1.
         11   -1    0    0    0    0 -0.00000000000E+00 -0.00000000000E+00 -0.45593999997E+02  0.45594000000E+02  0.51100000000E-03 0. -1.
    9900012    2    1    2    0    0  0.11189379664E+02 -0.22121927076E+01 -0.41875144643E+02  0.47787265528E+02  0.19999974849E+02 0.  0.
        -12    1    1    2    0    0 -0.11189379664E+02  0.22121927076E+01  0.41875144643E+02  0.43400734472E+02  0.00000000000E+00 0.  1.
         11    1    3    3    0    0  0.63023427275E+01 -0.78015330792E+01 -0.25937007630E+02  0.27808484448E+02  0.51100000000E-03 0. -1.
        -11    1    3    3    0    0  0.15248021107E+01  0.39612691234E+01 -0.71551768286E+00  0.43044907203E+01  0.51100000000E-03 0.  1.
         12    1    3    3    0    0  0.33622348263E+01  0.16280712482E+01 -0.15222619330E+02  0.15674290360E+02  0.00000000000E+00 0. -1.
</event>
<event>
 7    1  0.2598019E-009  0.4778727E+02  0.7816164E-02  0.1312668E+00
        -11   -1    0    0    0    0  0.00000000000E+00  0.00000000000E+00  0.45593999997E+02  0.45594000000E+02  0.51100000000E-03 0.  1.
         11   -1    0    0    0    0 -0.00000000000E+00 -0.00000000000E+00 -0.45593999997E+02  0.45594000000E+02  0.51100000000E-03 0. -1.
    9900012    2    1    2    0    0 -0.21402411829E+02  0.37488155460E+02 -0.44942267136E+01  0.47787272983E+02  0.20000008836E+02 0.  0.
        -12    1    1    2    0    0  0.21402411829E+02 -0.37488155460E+02  0.44942267136E+01  0.43400727017E+02  0.00000000000E+00 0.  1.
         11    1    3    3    0    0 -0.62850302784E+01  0.19275852137E+02  0.47672521163E+01  0.20827548445E+02  0.51100000000E-03 0. -1.
        -11    1    3    3    0    0 -0.15089655012E+02  0.18726038389E+02 -0.10011831647E+02  0.26049932347E+02  0.51100000000E-03 0.  1.
        -12    1    3    3    0    0 -0.27726538672E-01 -0.51373506579E+00  0.75035281755E+00  0.90979219032E+00  0.00000000000E+00 0.  1.
</event>
<event>
 7    1  0.2598019E-009  0.4778727E+02  0.7816164E-02  0.1312668E+00
        -11   -1    0    0    0    0  0.00000000000E+00  0.00000000000E+00  0.45593999997E+02  0.45594000000E+02  0.51100000000E-03 0. -1.
         11   -1    0    0    0    0 -0.00000000000E+00 -0.00000000000E+00 -0.45593999997E+02  0.45594000000E+02  0.51100000000E-03 0.  1.
    9900012    2    1    2    0    0 -0.10097841471E+02 -0.24698931398E+02  0.34228931846E+02  0.47787269708E+02  0.19999993905E+02 0.  0.
        -12    1    1    2    0    0  0.10097841471E+02  0.24698931398E+02 -0.34228931846E+02  0.43400730292E+02  0.00000000000E+00 0.  1.
         11    1    3    3    0    0 -0.68398977433E+01 -0.14462472278E+02  0.73725274671E+01  0.17615375870E+02  0.51100000000E-03 0.  1.
        -11    1    3    3    0    0 -0.61017237834E+00 -0.63833873386E+01  0.23647341426E+02  0.24501361207E+02  0.51100000000E-03 0. -1.
         12    1    3    3    0    0 -0.26477713496E+01 -0.38530717814E+01  0.32090629533E+01  0.56705326302E+01  0.00000000000E+00 0. -1.
</event>
<event>
 7    1  0.2598019E-009  0.4778727E+02  0.7816164E-02  0.1312668E+00
        -11   -1    0    0    0    0  0.00000000000E+00  0.00000000000E+00  0.45593999997E+02  0.45594000000E+02  0.51100000000E-03 0.  1.
         11   -1    0    0    0    0 -0.00000000000E+00 -0.00000000000E+00 -0.45593999997E+02  0.45594000000E+02  0.51100000000E-03 0. -1.
    9900012    2    1    2    0    0  0.30562606499E+02  0.25001727400E+02 -0.18012886402E+02  0.47787269989E+02  0.19999995188E+02 0.  0.
        -12    1    1    2    0    0 -0.30562606499E+02 -0.25001727400E+02  0.18012886402E+02  0.43400730011E+02  0.00000000000E+00 0.  1.
         11    1    3    3    0    0  0.16005633012E+02  0.39578160823E+01 -0.11683164086E+02  0.20207447132E+02  0.51100000000E-03 0. -1.
        -11    1    3    3    0    0  0.13671052919E+02  0.19265737247E+02 -0.31528111599E+01  0.23832887741E+02  0.51100000000E-03 0.  1.
        -12    1    3    3    0    0  0.88592056793E+00  0.17781740702E+01 -0.31769111556E+01  0.37469351165E+01  0.00000000000E+00 0.  1.
</event>
<event>
 7    1  0.2598019E-009  0.4778727E+02  0.7816164E-02  0.1312668E+00
        -11   -1    0    0    0    0  0.00000000000E+00  0.00000000000E+00  0.45593999997E+02  0.45594000000E+02  0.51100000000E-03 0. -1.
         11   -1    0    0    0    0 -0.00000000000E+00 -0.00000000000E+00 -0.45593999997E+02  0.45594000000E+02  0.51100000000E-03 0.  1.
    9900012    2    1    2    0    0  0.24907028815E+02  0.25095282546E+02  0.25169227134E+02  0.47787270917E+02  0.19999999419E+02 0.  0.
        -12    1    1    2    0    0 -0.24907028815E+02 -0.25095282546E+02 -0.25169227134E+02  0.43400729083E+02  0.00000000000E+00 0.  1.
         11    1    3    3    0    0  0.43250929660E+01 -0.20378267731E+01  0.19971955488E+01  0.51815014661E+01  0.51100000000E-03 0. -1.
        -11    1    3    3    0    0  0.42786900973E+01  0.24742394967E+00  0.33102534944E+01  0.54153657326E+01  0.51100000000E-03 0.  1.
         12    1    3    3    0    0  0.16303245752E+02  0.26885685369E+02  0.19861778090E+02  0.37190403718E+02  0.00000000000E+00 0. -1.
</event>
<event>
 7    1  0.2598019E-009  0.4778727E+02  0.7816164E-02  0.1312668E+00
        -11   -1    0    0    0    0  0.00000000000E+00  0.00000000000E+00  0.45593999997E+02  0.45594000000E+02  0.51100000000E-03 0.  1.
         11   -1    0    0    0    0 -0.00000000000E+00 -0.00000000000E+00 -0.45593999997E+02  0.45594000000E+02  0.51100000000E-03 0. -1.
    9900012    2    1    2    0    0 -0.37047300852E+02 -0.12876992622E+02 -0.18582351653E+02  0.47787271523E+02  0.20000002181E+02 0.  0.
        -12    1    1    2    0    0  0.37047300852E+02  0.12876992622E+02  0.18582351653E+02  0.43400728477E+02  0.00000000000E+00 0.  1.
         11    1    3    3    0    0 -0.31177038104E+02 -0.11022643885E+02 -0.20919932181E+02  0.39129911140E+02  0.51100000000E-03 0. -1.
        -11    1    3    3    0    0 -0.59458979335E+01 -0.29867444193E+01  0.30476218316E+01  0.73186298958E+01  0.51100000000E-03 0.  1.
         12    1    3    3    0    0  0.75635185628E-01  0.11323956823E+01 -0.71004130405E+00  0.13387304867E+01  0.00000000000E+00 0. -1.
</event>
<event>
 7    1  0.2598019E-009  0.4778721E+02  0.7816164E-02  0.1312668E+00
        -11   -1    0    0    0    0  0.00000000000E+00  0.00000000000E+00  0.45593999997E+02  0.45594000000E+02  0.51100000000E-03 0.  1.
         11   -1    0    0    0    0 -0.00000000000E+00 -0.00000000000E+00 -0.45593999997E+02  0.45594000000E+02  0.51100000000E-03 0. -1.
    9900012    2    1    2    0    0 -0.19721793555E+02 -0.19244403367E+02 -0.33531059731E+02  0.47787214654E+02  0.19999742890E+02 0.  0.
        -12    1    1    2    0    0  0.19721793555E+02  0.19244403367E+02  0.33531059731E+02  0.43400785346E+02  0.00000000000E+00 0.  1.
         11    1    3    3    0    0 -0.75238689759E+01 -0.71831657425E+01 -0.29038982217E+01  0.10799958314E+02  0.51100000000E-03 0. -1.
        -11    1    3    3    0    0 -0.24647082156E+01 -0.70699308731E+01 -0.21416093074E+02  0.22687171528E+02  0.51100000000E-03 0.  1.
        -12    1    3    3    0    0 -0.97332163637E+01 -0.49913067517E+01 -0.92110684352E+01  0.14300084811E+02  0.00000000000E+00 0.  1.
</event>
<event>
 7    1  0.2598019E-009  0.4778729E+02  0.7816164E-02  0.1312668E+00
        -11   -1    0    0    0    0  0.00000000000E+00  0.00000000000E+00  0.45593999997E+02  0.45594000000E+02  0.51100000000E-03 0. -1.
         11   -1    0    0    0    0 -0.00000000000E+00 -0.00000000000E+00 -0.45593999997E+02  0.45594000000E+02  0.51100000000E-03 0.  1.
    9900012    2    1    2    0    0  0.32715681966E+02 -0.25927490714E+02  0.11877346164E+02  0.47787286030E+02  0.20000068325E+02 0.  0.
        -12    1    1    2    0    0 -0.32715681966E+02  0.25927490714E+02 -0.11877346164E+02  0.43400713970E+02  0.00000000000E+00 0.  1.
         11    1    3    3    0    0  0.38280491886E+01 -0.13647311330E+02  0.56852269585E+01  0.15271701705E+02  0.51100000000E-03 0. -1.
        -11    1    3    3    0    0  0.95250840311E+01 -0.27196745015E+01 -0.47035529649E+00  0.99169092745E+01  0.51100000000E-03 0.  1.
         12    1    3    3    0    0  0.19362548746E+02 -0.95605048820E+01  0.66624745022E+01  0.22598675051E+02  0.00000000000E+00 0. -1.
</event>
<event>
 7    1  0.2598019E-009  0.4778727E+02  0.7816164E-02  0.1312668E+00
        -11   -1    0    0    0    0  0.00000000000E+00  0.00000000000E+00  0.45593999997E+02  0.45594000000E+02  0.51100000000E-03 0. -1.
         11   -1    0    0    0    0 -0.00000000000E+00 -0.00000000000E+00 -0.45593999997E+02  0.45594000000E+02  0.51100000000E-03 0.  1.
    9900012    2    1    2    0    0 -0.24426862420E+02  0.29441050510E+02  0.20498196902E+02  0.47787272598E+02  0.20000007083E+02 0.  0.
        -12    1    1    2    0    0  0.24426862420E+02 -0.29441050510E+02 -0.20498196902E+02  0.43400727402E+02  0.00000000000E+00 0.  1.
         11    1    3    3    0    0 -0.35972955277E+01 -0.10673320530E+01  0.15578855318E+01  0.40628488055E+01  0.51100000000E-03 0.  1.
        -11    1    3    3    0    0 -0.94577655378E+01  0.25077178466E+02  0.13227409877E+02  0.29887766412E+02  0.51100000000E-03 0. -1.
        -12    1    3    3    0    0 -0.11371801355E+02  0.54312040964E+01  0.57129014927E+01  0.13836657380E+02  0.00000000000E+00 0.  1.
</event>
<event>
 7    1  0.2598019E-009  0.4778727E+02  0.7816164E-02  0.1312668E+00
        -11   -1    0    0    0    0  0.00000000000E+00  0.00000000000E+00  0.45593999997E+02  0.45594000000E+02  0.51100000000E-03 0.  1.
         11   -1    0    0    0    0 -0.00000000000E+00 -0.00000000000E+00 -0.45593999997E+02  0.45594000000E+02  0.51100000000E-03 0. -1.
    9900012    2    1    2    0    0  0.25909726675E+01  0.15760855141E+01 -0.43294641986E+02  0.47787271784E+02  0.20000003374E+02 0.  0.
        -12    1    1    2    0    0 -0.25909726675E+01 -0.15760855141E+01  0.43294641986E+02  0.43400728216E+02  0.00000000000E+00 0.  1.
         11    1    3    3    0    0  0.11275853926E+01  0.62934104515E+00 -0.12579259424E+02  0.12645366222E+02  0.51100000000E-03 0. -1.
        -11    1    3    3    0    0  0.52764526383E+01 -0.47460690356E+01 -0.54058035449E+01  0.89212575325E+01  0.51100000000E-03 0.  1.
        -12    1    3    3    0    0 -0.38130653634E+01  0.56928135045E+01 -0.25309579017E+02  0.26220648029E+02  0.00000000000E+00 0.  1.
</event>
<event>
 7    1  0.2598019E-009  0.4778727E+02  0.7816164E-02  0.1312668E+00
        -11   -1    0    0    0    0  0.00000000000E+00  0.00000000000E+00  0.45593999997E+02  0.45594000000E+02  0.51100000000E-03 0.  1.
         11   -1    0    0    0    0 -0.00000000000E+00 -0.00000000000E+00 -0.45593999997E+02  0.45594000000E+02  0.51100000000E-03 0. -1.
    9900012    2    1    2    0    0  0.32675111567E+02 -0.19078714217E+02 -0.21259415734E+02  0.47787274091E+02  0.20000013890E+02 0.  0.
        -12    1    1    2    0    0 -0.32675111567E+02  0.19078714217E+02  0.21259415734E+02  0.43400725909E+02  0.00000000000E+00 0.  1.
         11    1    3    3    0    0  0.48035525535E+01 -0.90866423891E+01 -0.93445674037E+01  0.13891080853E+02  0.51100000000E-03 0. -1.
        -11    1    3    3    0    0  0.23040319806E+02 -0.31537493137E+01 -0.75246612973E+01  0.24442238019E+02  0.51100000000E-03 0.  1.
        -12    1    3    3    0    0  0.48312392079E+01 -0.68383225142E+01 -0.43901870330E+01  0.94539552186E+01  0.00000000000E+00 0.  1.
</event>
<event>
 7    1  0.2598019E-009  0.4778728E+02  0.7816164E-02  0.1312668E+00
        -11   -1    0    0    0    0  0.00000000000E+00  0.00000000000E+00  0.45593999997E+02  0.45594000000E+02  0.51100000000E-03 0. -1.
         11   -1    0    0    0    0 -0.00000000000E+00 -0.00000000000E+00 -0.45593999997E+02  0.45594000000E+02  0.51100000000E-03 0.  1.
    9900012    2    1    2    0    0 -0.23883287513E+02 -0.30203460952E+01  0.36112166539E+02  0.47787280132E+02  0.20000041432E+02 0.  0.
        -12    1    1    2    0    0  0.23883287513E+02  0.30203460952E+01 -0.36112166539E+02  0.43400719868E+02  0.00000000000E+00 0.  1.
         11    1    3    3    0    0 -0.95403994554E+00 -0.50346014258E+01  0.16033752891E+01  0.53691914022E+01  0.51100000000E-03 0. -1.
        -11    1    3    3    0    0  0.63480680302E+00 -0.60558173492E+00  0.68935991578E+00  0.11157626403E+01  0.51100000000E-03 0.  1.
         12    1    3    3    0    0 -0.23564054370E+02  0.26198370655E+01  0.33819431334E+02  0.41302326089E+02  0.00000000000E+00 0. -1.
</event>
<event>
 7    1  0.2598019E-009  0.4778727E+02  0.7816164E-02  0.1312668E+00
        -11   -1    0    0    0    0  0.00000000000E+00  0.00000000000E+00  0.45593999997E+02  0.45594000000E+02  0.51100000000E-03 0.  1.
         11   -1    0    0    0    0 -0.00000000000E+00 -0.00000000000E+00 -0.45593999997E+02  0.45594000000E+02  0.51100000000E-03 0. -1.
    9900012    2    1    2    0    0 -0.43312016414E+02 -0.19312606092E+01 -0.19905871934E+01  0.47787274536E+02  0.20000015921E+02 0.  0.
        -12    1    1    2    0    0  0.43312016414E+02  0.19312606092E+01  0.19905871934E+01  0.43400725464E+02  0.00000000000E+00 0.  1.
         11    1    3    3    0    0 -0.26841739530E+02  0.35908077813E+01 -0.60880716489E+01  0.27756755902E+02  0.51100000000E-03 0. -1.
        -11    1    3    3    0    0 -0.20353918952E+01  0.19539779851E+01  0.23666484630E+01  0.36826451556E+01  0.51100000000E-03 0.  1.
         12    1    3    3    0    0 -0.14434884988E+02 -0.74760463756E+01  0.17308359925E+01  0.16347873479E+02  0.00000000000E+00 0. -1.
</event>
<event>
 7    1  0.2598019E-009  0.4778727E+02  0.7816164E-02  0.1312668E+00
        -11   -1    0    0    0    0  0.00000000000E+00  0.00000000000E+00  0.45593999997E+02  0.45594000000E+02  0.51100000000E-03 0.  1.
         11   -1    0    0    0    0 -0.00000000000E+00 -0.00000000000E+00 -0.45593999997E+02  0.45594000000E+02  0.51100000000E-03 0. -1.
    9900012    2    1    2    0    0 -0.25876762901E+02 -0.34271919866E+02 -0.62810810610E+01  0.47787270411E+02  0.19999997114E+02 0.  0.
        -12    1    1    2    0    0  0.25876762901E+02  0.34271919866E+02  0.62810810610E+01  0.43400729589E+02  0.00000000000E+00 0.  1.
         11    1    3    3    0    0 -0.70242138445E+01 -0.32712479497E+01 -0.76671236938E+01  0.10900707742E+02  0.51100000000E-03 0. -1.
        -11    1    3    3    0    0 -0.92653639115E+00 -0.80701116558E+00  0.12772379608E+01  0.17723074720E+01  0.51100000000E-03 0.  1.
         12    1    3    3    0    0 -0.17926012665E+02 -0.30193660751E+02  0.10880467202E+00  0.35114255197E+02  0.00000000000E+00 0. -1.
</event>
<event>
 7    1  0.2598019E-009  0.4778724E+02  0.7816164E-02  0.1312668E+00
        -11   -1    0    0    0    0  0.00000000000E+00  0.00000000000E+00  0.45593999997E+02  0.45594000000E+02  0.51100000000E-03 0.  1.
         11   -1    0    0    0    0 -0.00000000000E+00 -0.00000000000E+00 -0.45593999997E+02  0.45594000000E+02  0.51100000000E-03 0. -1.
    9900012    2    1    2    0    0 -0.41722582059E+02 -0.29504728900E+01 -0.11582170775E+02  0.47787241667E+02  0.19999866058E+02 0.  0.
        -12    1    1    2    0    0  0.41722582059E+02  0.29504728900E+01  0.11582170775E+02  0.43400758333E+02  0.00000000000E+00 0.  1.
         11    1    3    3    0    0 -0.53306854365E+01  0.41998791904E-01 -0.48746172407E+01  0.72235631530E+01  0.51100000000E-03 0. -1.
        -11    1    3    3    0    0 -0.52989782552E+01  0.55082566742E+01 -0.25772495868E+01  0.80661191308E+01  0.51100000000E-03 0.  1.
        -12    1    3    3    0    0 -0.31092918368E+02 -0.85007283561E+01 -0.41303039479E+01  0.32497559384E+02  0.00000000000E+00 0.  1.
</event>
<event>
 7    1  0.2598019E-009  0.4778727E+02  0.7816164E-02  0.1312668E+00
        -11   -1    0    0    0    0  0.00000000000E+00  0.00000000000E+00  0.45593999997E+02  0.45594000000E+02  0.51100000000E-03 0. -1.
         11   -1    0    0    0    0 -0.00000000000E+00 -0.00000000000E+00 -0.45593999997E+02  0.45594000000E+02  0.51100000000E-03 0.  1.
    9900012    2    1    2    0    0  0.37353246932E+02  0.50892631702E+01 -0.21504829602E+02  0.47787270143E+02  0.19999995888E+02 0.  0.
        -12    1    1    2    0    0 -0.37353246932E+02 -0.50892631702E+01  0.21504829602E+02  0.43400729857E+02  0.00000000000E+00 0.  1.
         11    1    3    3    0    0  0.18132777104E+02  0.46722801262E+01 -0.45281536264E+01  0.19264786077E+02  0.51100000000E-03 0. -1.
        -11    1    3    3    0    0  0.76358796390E+01  0.33018021726E+01 -0.13891266486E+02  0.16191844870E+02  0.51100000000E-03 0.  1.
        -12    1    3    3    0    0  0.11584590189E+02 -0.28848191286E+01 -0.30854094892E+01  0.12330639195E+02  0.00000000000E+00 0.  1.
</event>
<event>
 7    1  0.2598019E-009  0.4778727E+02  0.7816164E-02  0.1312668E+00
        -11   -1    0    0    0    0  0.00000000000E+00  0.00000000000E+00  0.45593999997E+02  0.45594000000E+02  0.51100000000E-03 0.  1.
         11   -1    0    0    0    0 -0.00000000000E+00 -0.00000000000E+00 -0.45593999997E+02  0.45594000000E+02  0.51100000000E-03 0. -1.
    9900012    2    1    2    0    0  0.70326556296E+01  0.20034869383E+02 -0.37851935463E+02  0.47787271266E+02  0.20000001009E+02 0.  0.
        -12    1    1    2    0    0 -0.70326556296E+01 -0.20034869383E+02  0.37851935463E+02  0.43400728734E+02  0.00000000000E+00 0.  1.
         11    1    3    3    0    0  0.76230137625E+01  0.15406747736E+02 -0.35851180786E+02  0.39759091773E+02  0.51100000000E-03 0. -1.
        -11    1    3    3    0    0  0.27847035764E+01  0.22717161769E+01 -0.41762798667E+00  0.36179665274E+01  0.51100000000E-03 0.  1.
         12    1    3    3    0    0 -0.33750617093E+01  0.23564054703E+01 -0.15831266905E+01  0.44102129654E+01  0.00000000000E+00 0. -1.
</event>
<event>
 7    1  0.2598019E-009  0.4778726E+02  0.7816164E-02  0.1312668E+00
        -11   -1    0    0    0    0  0.00000000000E+00  0.00000000000E+00  0.45593999997E+02  0.45594000000E+02  0.51100000000E-03 0. -1.
         11   -1    0    0    0    0 -0.00000000000E+00 -0.00000000000E+00 -0.45593999997E+02  0.45594000000E+02  0.51100000000E-03 0.  1.
    9900012    2    1    2    0    0  0.63961524765E+01  0.25040734136E+01  0.42853737230E+02  0.47787263316E+02  0.19999964762E+02 0.  0.
        -12    1    1    2    0    0 -0.63961524765E+01 -0.25040734136E+01 -0.42853737230E+02  0.43400736684E+02  0.00000000000E+00 0.  1.
         11    1    3    3    0    0  0.28144127838E+01 -0.59801618194E+01  0.25266603667E+02  0.26116747804E+02  0.51100000000E-03 0. -1.
        -11    1    3    3    0    0  0.20001949830E+01  0.71300387898E+01  0.50538611674E+01  0.89654752286E+01  0.51100000000E-03 0.  1.
         12    1    3    3    0    0  0.15815447098E+01  0.13541964431E+01  0.12533272395E+02  0.12705040284E+02  0.00000000000E+00 0. -1.
</event>
<event>
 7    1  0.2598019E-009  0.4778727E+02  0.7816164E-02  0.1312668E+00
        -11   -1    0    0    0    0  0.00000000000E+00  0.00000000000E+00  0.45593999997E+02  0.45594000000E+02  0.51100000000E-03 0.  1.
         11   -1    0    0    0    0 -0.00000000000E+00 -0.00000000000E+00 -0.45593999997E+02  0.45594000000E+02  0.51100000000E-03 0. -1.
    9900012    2    1    2    0    0  0.17706587034E+02 -0.38805929415E+02  0.80124942818E+01  0.47787269053E+02  0.19999990920E+02 0.  0.
        -12    1    1    2    0    0 -0.17706587034E+02  0.38805929415E+02 -0.80124942818E+01  0.43400730947E+02  0.00000000000E+00 0.  1.
         11    1    3    3    0    0  0.70556041393E+01 -0.16045589195E+02  0.35483006346E+01  0.17883873183E+02  0.51100000000E-03 0. -1.
        -11    1    3    3    0    0  0.91630782131E+01 -0.12010674288E+02 -0.45699865826E+01  0.15782999614E+02  0.51100000000E-03 0.  1.
        -12    1    3    3    0    0  0.14879046813E+01 -0.10749665932E+02  0.90341802297E+01  0.14120396256E+02  0.00000000000E+00 0.  1.
</event>
<event>
 7    1  0.2598019E-009  0.4778727E+02  0.7816164E-02  0.1312668E+00
        -11   -1    0    0    0    0  0.00000000000E+00  0.00000000000E+00  0.45593999997E+02  0.45594000000E+02  0.51100000000E-03 0. -1.
         11   -1    0    0    0    0 -0.00000000000E+00 -0.00000000000E+00 -0.45593999997E+02  0.45594000000E+02  0.51100000000E-03 0.  1.
    9900012    2    1    2    0    0 -0.24601871125E+02 -0.10915672194E+02  0.34047312920E+02  0.47787268677E+02  0.19999989208E+02 0.  0.
        -12    1    1    2    0    0  0.24601871125E+02  0.10915672194E+02 -0.34047312920E+02  0.43400731323E+02  0.00000000000E+00 0.  1.
         11    1    3    3    0    0 -0.10177078074E+02 -0.23144290806E+01  0.18754795954E+02  0.21463267962E+02  0.51100000000E-03 0. -1.
        -11    1    3    3    0    0 -0.27217389002E+00 -0.61888414860E+01  0.14105387989E+01  0.63533815822E+01  0.51100000000E-03 0.  1.
        -12    1    3    3    0    0 -0.14152619161E+02 -0.24124016274E+01  0.13881978167E+02  0.19970619133E+02  0.00000000000E+00 0.  1.
</event>
<event>
 7    1  0.2598019E-009  0.4778727E+02  0.7816164E-02  0.1312668E+00
        -11   -1    0    0    0    0  0.00000000000E+00  0.00000000000E+00  0.45593999997E+02  0.45594000000E+02  0.51100000000E-03 0. -1.
         11   -1    0    0    0    0 -0.00000000000E+00 -0.00000000000E+00 -0.45593999997E+02  0.45594000000E+02  0.51100000000E-03 0.  1.
    9900012    2    1    2    0    0 -0.16644597548E+02  0.35743996963E+02  0.18136905402E+02  0.47787270928E+02  0.19999999467E+02 0.  0.
        -12    1    1    2    0    0  0.16644597548E+02 -0.35743996963E+02 -0.18136905402E+02  0.43400729072E+02  0.00000000000E+00 0.  1.
         11    1    3    3    0    0 -0.96307969496E+01  0.23756448264E+02  0.15095280873E+02  0.29748757771E+02  0.51100000000E-03 0. -1.
        -11    1    3    3    0    0  0.64755951342E-02 -0.72656922635E+00 -0.24163853479E+01  0.25232643905E+01  0.51100000000E-03 0.  1.
        -12    1    3    3    0    0 -0.70202761939E+01  0.12714117925E+02  0.54580098775E+01  0.15515248766E+02  0.00000000000E+00 0.  1.
</event>
<event>
 7    1  0.2598019E-009  0.4778727E+02  0.7816164E-02  0.1312668E+00
        -11   -1    0    0    0    0  0.00000000000E+00  0.00000000000E+00  0.45593999997E+02  0.45594000000E+02  0.51100000000E-03 0.  1.
         11   -1    0    0    0    0 -0.00000000000E+00 -0.00000000000E+00 -0.45593999997E+02  0.45594000000E+02  0.51100000000E-03 0. -1.
    9900012    2    1    2    0    0  0.12705694076E+02 -0.11941007925E+02 -0.39744199569E+02  0.47787265771E+02  0.19999975958E+02 0.  0.
        -12    1    1    2    0    0 -0.12705694076E+02  0.11941007925E+02  0.39744199569E+02  0.43400734229E+02  0.00000000000E+00 0.  1.
         11    1    3    3    0    0  0.81490831355E+01 -0.14550350797E+02 -0.23085616650E+02  0.28479219804E+02  0.51100000000E-03 0. -1.
        -11    1    3    3    0    0  0.16685446010E+00  0.48359062391E+01 -0.81313233969E+01  0.94621482767E+01  0.51100000000E-03 0.  1.
        -12    1    3    3    0    0  0.43897564807E+01 -0.22265633680E+01 -0.85272595216E+01  0.98458976909E+01  0.00000000000E+00 0.  1.
</event>
<event>
 7    1  0.2598019E-009  0.4778727E+02  0.7816164E-02  0.1312668E+00
        -11   -1    0    0    0    0  0.00000000000E+00  0.00000000000E+00  0.45593999997E+02  0.45594000000E+02  0.51100000000E-03 0. -1.
         11   -1    0    0    0    0 -0.00000000000E+00 -0.00000000000E+00 -0.45593999997E+02  0.45594000000E+02  0.51100000000E-03 0.  1.
    9900012    2    1    2    0    0 -0.18043379098E+01 -0.39161353243E+02  0.18621386648E+02  0.47787271160E+02  0.20000000528E+02 0.  0.
        -12    1    1    2    0    0  0.18043379098E+01  0.39161353243E+02 -0.18621386648E+02  0.43400728840E+02  0.00000000000E+00 0.  1.
         11    1    3    3    0    0  0.74920685852E+00 -0.49501881801E+01  0.56161966694E+01  0.75237849003E+01  0.51100000000E-03 0. -1.
        -11    1    3    3    0    0  0.32214936634E+01 -0.29788112280E+00  0.30604436724E+01  0.44534335428E+01  0.51100000000E-03 0.  1.
        -12    1    3    3    0    0 -0.57750384318E+01 -0.33913283940E+02  0.99447463060E+01  0.35810052717E+02  0.00000000000E+00 0.  1.
</event>
<event>
 7    1  0.2598019E-009  0.4778727E+02  0.7816164E-02  0.1312668E+00
        -11   -1    0    0    0    0  0.00000000000E+00  0.00000000000E+00  0.45593999997E+02  0.45594000000E+02  0.51100000000E-03 0.  1.
         11   -1    0    0    0    0 -0.00000000000E+00 -0.00000000000E+00 -0.45593999997E+02  0.45594000000E+02  0.51100000000E-03 0. -1.
    9900012    2    1    2    0    0  0.38880677354E+02  0.58928604860E+01 -0.18362744542E+02  0.47787271166E+02  0.20000000553E+02 0.  0.
        -12    1    1    2    0    0 -0.38880677354E+02 -0.58928604860E+01  0.18362744542E+02  0.43400728834E+02  0.00000000000E+00 0.  1.
         11    1    3    3    0    0  0.11906068959E+02 -0.15164461395E+01 -0.34604540220E+01  0.12491150038E+02  0.51100000000E-03 0. -1.
        -11    1    3    3    0    0  0.14861722023E+02  0.11777468746E+02 -0.71479331404E+01  0.20265056132E+02  0.51100000000E-03 0.  1.
        -12    1    3    3    0    0  0.12112886372E+02 -0.43681621208E+01 -0.77543573792E+01  0.15031064997E+02  0.00000000000E+00 0.  1.
</event>
<event>
 7    1  0.2598019E-009  0.4778727E+02  0.7816164E-02  0.1312668E+00
        -11   -1    0    0    0    0  0.00000000000E+00  0.00000000000E+00  0.45593999997E+02  0.45594000000E+02  0.51100000000E-03 0.  1.
         11   -1    0    0    0    0 -0.00000000000E+00 -0.00000000000E+00 -0.45593999997E+02  0.45594000000E+02  0.51100000000E-03 0. -1.
    9900012    2    1    2    0    0  0.23484573692E+02 -0.27903130260E+02 -0.23526867608E+02  0.47787269831E+02  0.19999994466E+02 0.  0.
        -12    1    1    2    0    0 -0.23484573692E+02  0.27903130260E+02  0.23526867608E+02  0.43400730169E+02  0.00000000000E+00 0.  1.
         11    1    3    3    0    0 -0.13860198541E+01 -0.47252535987E+01 -0.53361991056E+01  0.72611358453E+01  0.51100000000E-03 0. -1.
        -11    1    3    3    0    0  0.20531749731E+02 -0.11013440488E+02 -0.11700522444E+02  0.26072031837E+02  0.51100000000E-03 0.  1.
        -12    1    3    3    0    0  0.43388438152E+01 -0.12164436173E+02 -0.64901460582E+01  0.14454102148E+02  0.00000000000E+00 0.  1.
</event>
<event>
 7    1  0.2598019E-009  0.4778727E+02  0.7816164E-02  0.1312668E+00
        -11   -1    0    0    0    0  0.00000000000E+00  0.00000000000E+00  0.45593999997E+02  0.45594000000E+02  0.51100000000E-03 0.  1.
         11   -1    0    0    0    0 -0.00000000000E+00 -0.00000000000E+00 -0.45593999997E+02  0.45594000000E+02  0.51100000000E-03 0. -1.
    9900012    2    1    2    0    0 -0.86390458948E+01 -0.34247571026E+02 -0.25220912203E+02  0.47787266740E+02  0.19999980374E+02 0.  0.
        -12    1    1    2    0    0  0.86390458948E+01  0.34247571026E+02  0.25220912203E+02  0.43400733260E+02  0.00000000000E+00 0.  1.
         11    1    3    3    0    0 -0.65702554190E+01 -0.18058055777E+02 -0.70962317024E+01  0.20484582967E+02  0.51100000000E-03 0. -1.
        -11    1    3    3    0    0 -0.17431809894E+01 -0.15564207703E+02 -0.19940033655E+02  0.25355239770E+02  0.51100000000E-03 0.  1.
        -12    1    3    3    0    0 -0.32560948640E+00 -0.62530754624E+00  0.18153531547E+01  0.19474440020E+01  0.00000000000E+00 0.  1.
</event>
<event>
 7    1  0.2598019E-009  0.4778727E+02  0.7816164E-02  0.1312668E+00
        -11   -1    0    0    0    0  0.00000000000E+00  0.00000000000E+00  0.45593999997E+02  0.45594000000E+02  0.51100000000E-03 0.  1.
         11   -1    0    0    0    0 -0.00000000000E+00 -0.00000000000E+00 -0.45593999997E+02  0.45594000000E+02  0.51100000000E-03 0. -1.
    9900012    2    1    2    0    0 -0.29369955840E+02  0.30770180607E+02 -0.86153933664E+01  0.47787270473E+02  0.19999997394E+02 0.  0.
        -12    1    1    2    0    0  0.29369955840E+02 -0.30770180607E+02  0.86153933664E+01  0.43400729527E+02  0.00000000000E+00 0.  1.
         11    1    3    3    0    0 -0.13268991479E+02  0.99908126802E+01  0.33036012920E+01  0.16935059924E+02  0.51100000000E-03 0. -1.
        -11    1    3    3    0    0 -0.35670967065E+01  0.26160074050E+00  0.78094667846E+00  0.36609413867E+01  0.51100000000E-03 0.  1.
         12    1    3    3    0    0 -0.12533867655E+02  0.20517767186E+02 -0.12699941337E+02  0.27191269162E+02  0.00000000000E+00 0. -1.
</event>
<event>
 7    1  0.2598019E-009  0.4778727E+02  0.7816164E-02  0.1312668E+00
        -11   -1    0    0    0    0  0.00000000000E+00  0.00000000000E+00  0.45593999997E+02  0.45594000000E+02  0.51100000000E-03 0. -1.
         11   -1    0    0    0    0 -0.00000000000E+00 -0.00000000000E+00 -0.45593999997E+02  0.45594000000E+02  0.51100000000E-03 0.  1.
    9900012    2    1    2    0    0  0.13149182644E+02  0.28524299884E+01  0.41262403859E+02  0.47787270360E+02  0.19999996879E+02 0.  0.
        -12    1    1    2    0    0 -0.13149182644E+02 -0.28524299884E+01 -0.41262403859E+02  0.43400729640E+02  0.00000000000E+00 0.  1.
         11    1    3    3    0    0  0.87788082404E+01  0.13387472409E+00  0.34311834870E+02  0.35417332042E+02  0.51100000000E-03 0. -1.
        -11    1    3    3    0    0  0.19269613417E+00  0.49577512041E+01  0.55128950751E+01  0.74167675690E+01  0.51100000000E-03 0.  1.
         12    1    3    3    0    0  0.41776782699E+01 -0.22391959398E+01  0.14376739138E+01  0.49531707487E+01  0.00000000000E+00 0. -1.
</event>
<event>
 7    1  0.2598019E-009  0.4778726E+02  0.7816164E-02  0.1312668E+00
        -11   -1    0    0    0    0  0.00000000000E+00  0.00000000000E+00  0.45593999997E+02  0.45594000000E+02  0.51100000000E-03 0.  1.
         11   -1    0    0    0    0 -0.00000000000E+00 -0.00000000000E+00 -0.45593999997E+02  0.45594000000E+02  0.51100000000E-03 0. -1.
    9900012    2    1    2    0    0 -0.22665614867E+02 -0.32304656224E+02 -0.18063856116E+02  0.47787264882E+02  0.19999971903E+02 0.  0.
        -12    1    1    2    0    0  0.22665614867E+02  0.32304656224E+02  0.18063856116E+02  0.43400735118E+02  0.00000000000E+00 0.  1.
         11    1    3    3    0    0 -0.38285108985E+00 -0.38525105649E+01 -0.15031708182E+00  0.38744042246E+01  0.51100000000E-03 0. -1.
        -11    1    3    3    0    0 -0.15734666309E+02 -0.18169494359E+02 -0.23599758460E+01  0.24151184968E+02  0.51100000000E-03 0.  1.
        -12    1    3    3    0    0 -0.65480974678E+01 -0.10282651300E+02 -0.15553563188E+02  0.19761675689E+02  0.00000000000E+00 0.  1.
</event>
<event>
 7    1  0.2598019E-009  0.4778727E+02  0.7816164E-02  0.1312668E+00
        -11   -1    0    0    0    0  0.00000000000E+00  0.00000000000E+00  0.45593999997E+02  0.45594000000E+02  0.51100000000E-03 0.  1.
         11   -1    0    0    0    0 -0.00000000000E+00 -0.00000000000E+00 -0.45593999997E+02  0.45594000000E+02  0.51100000000E-03 0. -1.
    9900012    2    1    2    0    0  0.43143770528E+02  0.46924466385E+01 -0.46795540091E+00  0.47787274509E+02  0.20000015799E+02 0.  0.
        -12    1    1    2    0    0 -0.43143770528E+02 -0.46924466385E+01  0.46795540091E+00  0.43400725491E+02  0.00000000000E+00 0.  1.
         11    1    3    3    0    0  0.24891281217E+02  0.70135348369E+01 -0.12236637340E+01  0.25889436161E+02  0.51100000000E-03 0. -1.
        -11    1    3    3    0    0  0.11058588739E+02 -0.17177506898E+01  0.62568943155E+01  0.12821535753E+02  0.51100000000E-03 0.  1.
        -12    1    3    3    0    0  0.71939005715E+01 -0.60333750862E+00 -0.55011859824E+01  0.90763025949E+01  0.00000000000E+00 0.  1.
</event>
<event>
 7    1  0.2598019E-009  0.4778728E+02  0.7816164E-02  0.1312668E+00
        -11   -1    0    0    0    0  0.00000000000E+00  0.00000000000E+00  0.45593999997E+02  0.45594000000E+02  0.51100000000E-03 0.  1.
         11   -1    0    0    0    0 -0.00000000000E+00 -0.00000000000E+00 -0.45593999997E+02  0.45594000000E+02  0.51100000000E-03 0. -1.
    9900012    2    1    2    0    0 -0.23769721408E+02  0.22496715186E+02 -0.28504748017E+02  0.47787279851E+02  0.20000040151E+02 0.  0.
        -12    1    1    2    0    0  0.23769721408E+02 -0.22496715186E+02  0.28504748017E+02  0.43400720149E+02  0.00000000000E+00 0.  1.
         11    1    3    3    0    0 -0.15356356654E+02  0.16102440500E+02 -0.27031333725E+02  0.35011416466E+02  0.51100000000E-03 0. -1.
        -11    1    3    3    0    0 -0.46569616330E+01 -0.62809588209E+00 -0.95415152148E+00  0.47950184020E+01  0.51100000000E-03 0.  1.
         12    1    3    3    0    0 -0.37564031211E+01  0.70223705687E+01 -0.51926276987E+00  0.79808449826E+01  0.00000000000E+00 0. -1.
</event>
<event>
 7    1  0.2598019E-009  0.4778727E+02  0.7816164E-02  0.1312668E+00
        -11   -1    0    0    0    0  0.00000000000E+00  0.00000000000E+00  0.45593999997E+02  0.45594000000E+02  0.51100000000E-03 0.  1.
         11   -1    0    0    0    0 -0.00000000000E+00 -0.00000000000E+00 -0.45593999997E+02  0.45594000000E+02  0.51100000000E-03 0. -1.
    9900012    2    1    2    0    0 -0.12823700296E+02  0.21048762839E+02 -0.35722906336E+02  0.47787265635E+02  0.19999975337E+02 0.  0.
        -12    1    1    2    0    0  0.12823700296E+02 -0.21048762839E+02  0.35722906336E+02  0.43400734365E+02  0.00000000000E+00 0.  1.
         11    1    3    3    0    0  0.43588662729E+01  0.72506865628E+01 -0.12421220322E+02  0.15028602243E+02  0.51100000000E-03 0.  1.
        -11    1    3    3    0    0 -0.12000291494E+01  0.29758454759E+01 -0.12267432754E+01  0.34352038631E+01  0.51100000000E-03 0. -1.
         12    1    3    3    0    0 -0.15982537420E+02  0.10822230800E+02 -0.22074942738E+02  0.29323459529E+02  0.00000000000E+00 0. -1.
</event>
<event>
 7    1  0.2598019E-009  0.4778727E+02  0.7816164E-02  0.1312668E+00
        -11   -1    0    0    0    0  0.00000000000E+00  0.00000000000E+00  0.45593999997E+02  0.45594000000E+02  0.51100000000E-03 0. -1.
         11   -1    0    0    0    0 -0.00000000000E+00 -0.00000000000E+00 -0.45593999997E+02  0.45594000000E+02  0.51100000000E-03 0.  1.
    9900012    2    1    2    0    0 -0.30025608964E+02 -0.17078438397E+02  0.26275716306E+02  0.47787268220E+02  0.19999987120E+02 0.  0.
        -12    1    1    2    0    0  0.30025608964E+02  0.17078438397E+02 -0.26275716306E+02  0.43400731780E+02  0.00000000000E+00 0.  1.
         11    1    3    3    0    0 -0.18891473716E+02 -0.82729196255E+01  0.82161294146E+01  0.22199859484E+02  0.51100000000E-03 0. -1.
        -11    1    3    3    0    0 -0.50421981379E+01 -0.10805075189E+01  0.15621056395E+00  0.51590367862E+01  0.51100000000E-03 0.  1.
         12    1    3    3    0    0 -0.60919371099E+01 -0.77250112523E+01  0.17903376327E+02  0.20428371950E+02  0.00000000000E+00 0. -1.
</event>
<event>
 7    1  0.2598019E-009  0.4778727E+02  0.7816164E-02  0.1312668E+00
        -11   -1    0    0    0    0  0.00000000000E+00  0.00000000000E+00  0.45593999997E+02  0.45594000000E+02  0.51100000000E-03 0. -1.
         11   -1    0    0    0    0 -0.00000000000E+00 -0.00000000000E+00 -0.45593999997E+02  0.45594000000E+02  0.51100000000E-03 0.  1.
    9900012    2    1    2    0    0 -0.99440655019E+01 -0.66926120922E+01  0.41712680768E+02  0.47787271525E+02  0.20000002191E+02 0.  0.
        -12    1    1    2    0    0  0.99440655019E+01  0.66926120922E+01 -0.41712680768E+02  0.43400728475E+02  0.00000000000E+00 0.  1.
         11    1    3    3    0    0 -0.35421569918E+01 -0.40263628652E+01  0.25858316792E+02  0.26408540695E+02  0.51100000000E-03 0. -1.
        -11    1    3    3    0    0 -0.23517190671E+01  0.26481043485E+01 -0.62493824338E+00  0.35963296958E+01  0.51100000000E-03 0.  1.
        -12    1    3    3    0    0 -0.40501894430E+01 -0.53143535755E+01  0.16479302219E+02  0.17782401134E+02  0.00000000000E+00 0.  1.
</event>
<event>
 7    1  0.2598019E-009  0.4778731E+02  0.7816164E-02  0.1312668E+00
        -11   -1    0    0    0    0  0.00000000000E+00  0.00000000000E+00  0.45593999997E+02  0.45594000000E+02  0.51100000000E-03 0.  1.
         11   -1    0    0    0    0 -0.00000000000E+00 -0.00000000000E+00 -0.45593999997E+02  0.45594000000E+02  0.51100000000E-03 0. -1.
    9900012    2    1    2    0    0 -0.24031822500E+02 -0.17266075655E+02 -0.31748602898E+02  0.47787312826E+02  0.20000190498E+02 0.  0.
        -12    1    1    2    0    0  0.24031822500E+02  0.17266075655E+02  0.31748602898E+02  0.43400687174E+02  0.00000000000E+00 0.  1.
         11    1    3    3    0    0 -0.55367373430E+01  0.37713018088E+00 -0.23355341703E+01  0.60209972347E+01  0.51100000000E-03 0. -1.
        -11    1    3    3    0    0 -0.58612585897E+01 -0.15587395297E+02 -0.14203886789E+02  0.21887705330E+02  0.51100000000E-03 0.  1.
        -12    1    3    3    0    0 -0.12633826567E+02 -0.20558105384E+01 -0.15209181939E+02  0.19878610262E+02  0.00000000000E+00 0.  1.
</event>
<event>
 7    1  0.2598019E-009  0.4778727E+02  0.7816164E-02  0.1312668E+00
        -11   -1    0    0    0    0  0.00000000000E+00  0.00000000000E+00  0.45593999997E+02  0.45594000000E+02  0.51100000000E-03 0. -1.
         11   -1    0    0    0    0 -0.00000000000E+00 -0.00000000000E+00 -0.45593999997E+02  0.45594000000E+02  0.51100000000E-03 0.  1.
    9900012    2    1    2    0    0 -0.83901877423E+01  0.37876265420E+02  0.19458069360E+02  0.47787271944E+02  0.20000004103E+02 0.  0.
        -12    1    1    2    0    0  0.83901877423E+01 -0.37876265420E+02 -0.19458069360E+02  0.43400728056E+02  0.00000000000E+00 0.  1.
         11    1    3    3    0    0  0.17425455753E+01  0.48620517147E+01  0.87613075494E+01  0.10170374732E+02  0.51100000000E-03 0. -1.
        -11    1    3    3    0    0 -0.89021543261E+01  0.15729914684E+02  0.18714407942E+01  0.18170879410E+02  0.51100000000E-03 0.  1.
        -12    1    3    3    0    0 -0.12305789915E+01  0.17284299021E+02  0.88253210167E+01  0.19446017802E+02  0.00000000000E+00 0.  1.
</event>
<event>
 7    1  0.2598019E-009  0.4778728E+02  0.7816164E-02  0.1312668E+00
        -11   -1    0    0    0    0  0.00000000000E+00  0.00000000000E+00  0.45593999997E+02  0.45594000000E+02  0.51100000000E-03 0.  1.
         11   -1    0    0    0    0 -0.00000000000E+00 -0.00000000000E+00 -0.45593999997E+02  0.45594000000E+02  0.51100000000E-03 0. -1.
    9900012    2    1    2    0    0 -0.39283890742E+01  0.22763947333E+02 -0.36742252931E+02  0.47787277779E+02  0.20000030704E+02 0.  0.
        -12    1    1    2    0    0  0.39283890742E+01 -0.22763947333E+02  0.36742252931E+02  0.43400722221E+02  0.00000000000E+00 0.  1.
         11    1    3    3    0    0 -0.28283647888E+01  0.20799137407E+02 -0.23435692162E+02  0.31461650173E+02  0.51100000000E-03 0. -1.
        -11    1    3    3    0    0  0.37324589263E+01  0.20848529900E+01 -0.40811464138E+01  0.59104668122E+01  0.51100000000E-03 0.  1.
         12    1    3    3    0    0 -0.48324832116E+01 -0.12004306349E+00 -0.92254143550E+01  0.10415160793E+02  0.00000000000E+00 0. -1.
</event>
<event>
 7    1  0.2598019E-009  0.4778727E+02  0.7816164E-02  0.1312668E+00
        -11   -1    0    0    0    0  0.00000000000E+00  0.00000000000E+00  0.45593999997E+02  0.45594000000E+02  0.51100000000E-03 0.  1.
         11   -1    0    0    0    0 -0.00000000000E+00 -0.00000000000E+00 -0.45593999997E+02  0.45594000000E+02  0.51100000000E-03 0. -1.
    9900012    2    1    2    0    0 -0.27662353604E+02 -0.28706406299E+02 -0.17156916277E+02  0.47787270218E+02  0.19999996232E+02 0.  0.
        -12    1    1    2    0    0  0.27662353604E+02  0.28706406299E+02  0.17156916277E+02  0.43400729782E+02  0.00000000000E+00 0.  1.
         11    1    3    3    0    0 -0.39745270437E+01 -0.97521289665E+00  0.28022551018E+01  0.49598930766E+01  0.51100000000E-03 0.  1.
        -11    1    3    3    0    0 -0.23658513007E+02 -0.23728236957E+02 -0.19573878902E+02  0.38805814028E+02  0.51100000000E-03 0. -1.
         12    1    3    3    0    0 -0.29313552420E-01 -0.40029564447E+01 -0.38529247635E+00  0.40215631133E+01  0.00000000000E+00 0. -1.
</event>
<event>
 7    1  0.2598019E-009  0.4778727E+02  0.7816164E-02  0.1312668E+00
        -11   -1    0    0    0    0  0.00000000000E+00  0.00000000000E+00  0.45593999997E+02  0.45594000000E+02  0.51100000000E-03 0. -1.
         11   -1    0    0    0    0 -0.00000000000E+00 -0.00000000000E+00 -0.45593999997E+02  0.45594000000E+02  0.51100000000E-03 0.  1.
    9900012    2    1    2    0    0  0.24909544098E+02  0.35365623489E+02 -0.35228722126E+01  0.47787270276E+02  0.19999996495E+02 0.  0.
        -12    1    1    2    0    0 -0.24909544098E+02 -0.35365623489E+02  0.35228722126E+01  0.43400729724E+02  0.00000000000E+00 0.  1.
         11    1    3    3    0    0  0.44633995286E+01  0.47043700159E+01 -0.30347542084E+01  0.71598020898E+01  0.51100000000E-03 0. -1.
        -11    1    3    3    0    0  0.12715251306E+01  0.72837285760E+01 -0.64478050478E+01  0.98103857377E+01  0.51100000000E-03 0.  1.
        -12    1    3    3    0    0  0.19174619439E+02  0.23377524897E+02  0.59596870436E+01  0.30817082448E+02  0.00000000000E+00 0.  1.
</event>
<event>
 7    1  0.2598019E-009  0.4778727E+02  0.7816164E-02  0.1312668E+00
        -11   -1    0    0    0    0  0.00000000000E+00  0.00000000000E+00  0.45593999997E+02  0.45594000000E+02  0.51100000000E-03 0.  1.
         11   -1    0    0    0    0 -0.00000000000E+00 -0.00000000000E+00 -0.45593999997E+02  0.45594000000E+02  0.51100000000E-03 0. -1.
    9900012    2    1    2    0    0 -0.32935734115E+02 -0.16461339722E+02 -0.22975744746E+02  0.47787272658E+02  0.20000007357E+02 0.  0.
        -12    1    1    2    0    0  0.32935734115E+02  0.16461339722E+02  0.22975744746E+02  0.43400727342E+02  0.00000000000E+00 0.  1.
         11    1    3    3    0    0 -0.30660466176E+02 -0.10732827584E+02 -0.16325435215E+02  0.36356259562E+02  0.51100000000E-03 0. -1.
        -11    1    3    3    0    0 -0.13275561317E+01 -0.70879357317E+01 -0.38435280009E+01  0.81715326576E+01  0.51100000000E-03 0.  1.
        -12    1    3    3    0    0 -0.94771180743E+00  0.13594235929E+01 -0.28067815300E+01  0.32594804390E+01  0.00000000000E+00 0.  1.
</event>
<event>
 7    1  0.2598019E-009  0.4778727E+02  0.7816164E-02  0.1312668E+00
        -11   -1    0    0    0    0  0.00000000000E+00  0.00000000000E+00  0.45593999997E+02  0.45594000000E+02  0.51100000000E-03 0.  1.
         11   -1    0    0    0    0 -0.00000000000E+00 -0.00000000000E+00 -0.45593999997E+02  0.45594000000E+02  0.51100000000E-03 0. -1.
    9900012    2    1    2    0    0 -0.24627414613E+02 -0.20978791744E+02 -0.28931024286E+02  0.47787269363E+02  0.19999992335E+02 0.  0.
        -12    1    1    2    0    0  0.24627414613E+02  0.20978791744E+02  0.28931024286E+02  0.43400730637E+02  0.00000000000E+00 0.  1.
         11    1    3    3    0    0 -0.10456653946E+02 -0.15692592408E+02 -0.22351790217E+02  0.29243830023E+02  0.51100000000E-03 0. -1.
        -11    1    3    3    0    0 -0.59877759353E+01  0.77162443804E+00 -0.57353420306E+01  0.83272452464E+01  0.51100000000E-03 0.  1.
         12    1    3    3    0    0 -0.81829847313E+01 -0.60578237742E+01 -0.84389203814E+00  0.10216194094E+02  0.00000000000E+00 0. -1.
</event>
<event>
 7    1  0.2598019E-009  0.4778727E+02  0.7816164E-02  0.1312668E+00
        -11   -1    0    0    0    0  0.00000000000E+00  0.00000000000E+00  0.45593999997E+02  0.45594000000E+02  0.51100000000E-03 0. -1.
         11   -1    0    0    0    0 -0.00000000000E+00 -0.00000000000E+00 -0.45593999997E+02  0.45594000000E+02  0.51100000000E-03 0.  1.
    9900012    2    1    2    0    0  0.34711389084E+01 -0.38946305316E+02  0.18835064766E+02  0.47787272267E+02  0.20000005572E+02 0.  0.
        -12    1    1    2    0    0 -0.34711389084E+01  0.38946305316E+02 -0.18835064766E+02  0.43400727733E+02  0.00000000000E+00 0.  1.
         11    1    3    3    0    0  0.27105043976E+01 -0.27895364856E+02  0.53851874358E+01  0.28539419380E+02  0.51100000000E-03 0. -1.
        -11    1    3    3    0    0 -0.30123367101E+01 -0.55971166737E+01  0.97923357383E+01  0.11674404781E+02  0.51100000000E-03 0.  1.
        -12    1    3    3    0    0  0.37729712210E+01 -0.54538237857E+01  0.36575415918E+01  0.75734481060E+01  0.00000000000E+00 0.  1.
</event>
<event>
 7    1  0.2598019E-009  0.4778727E+02  0.7816164E-02  0.1312668E+00
        -11   -1    0    0    0    0  0.00000000000E+00  0.00000000000E+00  0.45593999997E+02  0.45594000000E+02  0.51100000000E-03 0.  1.
         11   -1    0    0    0    0 -0.00000000000E+00 -0.00000000000E+00 -0.45593999997E+02  0.45594000000E+02  0.51100000000E-03 0. -1.
    9900012    2    1    2    0    0  0.73511646041E+01 -0.36300520813E+02 -0.22624226393E+02  0.47787273598E+02  0.20000011645E+02 0.  0.
        -12    1    1    2    0    0 -0.73511646041E+01  0.36300520813E+02  0.22624226393E+02  0.43400726402E+02  0.00000000000E+00 0.  1.
         11    1    3    3    0    0  0.21138119857E+01 -0.30322741800E+02 -0.17607426005E+02  0.35127742913E+02  0.51100000000E-03 0. -1.
        -11    1    3    3    0    0  0.35235901569E+01 -0.41068915025E+01  0.15423135658E+01  0.56268087584E+01  0.51100000000E-03 0.  1.
        -12    1    3    3    0    0  0.17137624615E+01 -0.18708875104E+01 -0.65591139531E+01  0.70327219269E+01  0.00000000000E+00 0.  1.
</event>
<event>
 7    1  0.2598019E-009  0.4778727E+02  0.7816164E-02  0.1312668E+00
        -11   -1    0    0    0    0  0.00000000000E+00  0.00000000000E+00  0.45593999997E+02  0.45594000000E+02  0.51100000000E-03 0. -1.
         11   -1    0    0    0    0 -0.00000000000E+00 -0.00000000000E+00 -0.45593999997E+02  0.45594000000E+02  0.51100000000E-03 0.  1.
    9900012    2    1    2    0    0  0.35622216217E+02 -0.11307013971E+02 -0.22064278786E+02  0.47787271302E+02  0.20000001176E+02 0.  0.
        -12    1    1    2    0    0 -0.35622216217E+02  0.11307013971E+02  0.22064278786E+02  0.43400728698E+02  0.00000000000E+00 0.  1.
         11    1    3    3    0    0  0.27559987914E+02 -0.40818712862E+01 -0.23795368101E+02  0.36639243310E+02  0.51100000000E-03 0. -1.
        -11    1    3    3    0    0  0.74485378688E+01 -0.60720434732E+01  0.10284101230E+01  0.96647843207E+01  0.51100000000E-03 0.  1.
         12    1    3    3    0    0  0.61369043438E+00 -0.11530992118E+01  0.70267919235E+00  0.14832436714E+01  0.00000000000E+00 0. -1.
</event>
<event>
 7    1  0.2598019E-009  0.4778728E+02  0.7816164E-02  0.1312668E+00
        -11   -1    0    0    0    0  0.00000000000E+00  0.00000000000E+00  0.45593999997E+02  0.45594000000E+02  0.51100000000E-03 0.  1.
         11   -1    0    0    0    0 -0.00000000000E+00 -0.00000000000E+00 -0.45593999997E+02  0.45594000000E+02  0.51100000000E-03 0. -1.
    9900012    2    1    2    0    0  0.30378134724E+01 -0.42563625811E+02  0.79203715156E+01  0.47787276068E+02  0.20000022905E+02 0.  0.
        -12    1    1    2    0    0 -0.30378134724E+01  0.42563625811E+02 -0.79203715156E+01  0.43400723932E+02  0.00000000000E+00 0.  1.
         11    1    3    3    0    0 -0.43819988881E+01 -0.24296682915E+02  0.30064481132E+01  0.24871056380E+02  0.51100000000E-03 0. -1.
        -11    1    3    3    0    0  0.83493696009E+01 -0.19060570147E+02  0.55526073041E+01  0.21537148260E+02  0.51100000000E-03 0.  1.
        -12    1    3    3    0    0 -0.92955724041E+00  0.79362725116E+00 -0.63868390163E+00  0.13790714279E+01  0.00000000000E+00 0.  1.
</event>
<event>
 7    1  0.2598019E-009  0.4778726E+02  0.7816164E-02  0.1312668E+00
        -11   -1    0    0    0    0  0.00000000000E+00  0.00000000000E+00  0.45593999997E+02  0.45594000000E+02  0.51100000000E-03 0.  1.
         11   -1    0    0    0    0 -0.00000000000E+00 -0.00000000000E+00 -0.45593999997E+02  0.45594000000E+02  0.51100000000E-03 0. -1.
    9900012    2    1    2    0    0 -0.12109740253E+02  0.29455538644E+02 -0.29484734037E+02  0.47787261446E+02  0.19999956237E+02 0.  0.
        -12    1    1    2    0    0  0.12109740253E+02 -0.29455538644E+02  0.29484734037E+02  0.43400738554E+02  0.00000000000E+00 0.  1.
         11    1    3    3    0    0 -0.81765538344E+00  0.15639191495E+01 -0.76917972230E+01  0.78916505380E+01  0.51100000000E-03 0. -1.
        -11    1    3    3    0    0 -0.29823693331E+01  0.19961020837E+02 -0.74356701815E+01  0.21508744059E+02  0.51100000000E-03 0.  1.
        -12    1    3    3    0    0 -0.83097155365E+01  0.79305986578E+01 -0.14357266632E+02  0.18386866849E+02  0.00000000000E+00 0.  1.
</event>
<event>
 7    1  0.2598019E-009  0.4778727E+02  0.7816164E-02  0.1312668E+00
        -11   -1    0    0    0    0  0.00000000000E+00  0.00000000000E+00  0.45593999997E+02  0.45594000000E+02  0.51100000000E-03 0.  1.
         11   -1    0    0    0    0 -0.00000000000E+00 -0.00000000000E+00 -0.45593999997E+02  0.45594000000E+02  0.51100000000E-03 0. -1.
    9900012    2    1    2    0    0 -0.22820213806E+02 -0.35830805297E+02 -0.88890101255E+01  0.47787271119E+02  0.20000000340E+02 0.  0.
        -12    1    1    2    0    0  0.22820213806E+02  0.35830805297E+02  0.88890101255E+01  0.43400728881E+02  0.00000000000E+00 0.  1.
         11    1    3    3    0    0 -0.17010312199E+02 -0.33252723737E+02 -0.52854843416E+01  0.37723079170E+02  0.51100000000E-03 0. -1.
        -11    1    3    3    0    0  0.83322803001E+00  0.71190183659E+00  0.87573110350E+00  0.14028465353E+01  0.51100000000E-03 0.  1.
         12    1    3    3    0    0 -0.66431296368E+01 -0.32899833967E+01 -0.44792568873E+01  0.86613454142E+01  0.00000000000E+00 0. -1.
</event>
<event>
 7    1  0.2598019E-009  0.4778727E+02  0.7816164E-02  0.1312668E+00
        -11   -1    0    0    0    0  0.00000000000E+00  0.00000000000E+00  0.45593999997E+02  0.45594000000E+02  0.51100000000E-03 0.  1.
         11   -1    0    0    0    0 -0.00000000000E+00 -0.00000000000E+00 -0.45593999997E+02  0.45594000000E+02  0.51100000000E-03 0. -1.
    9900012    2    1    2    0    0  0.15819262687E+02 -0.35039163368E+02 -0.20140291479E+02  0.47787269795E+02  0.19999994302E+02 0.  0.
        -12    1    1    2    0    0 -0.15819262687E+02  0.35039163368E+02  0.20140291479E+02  0.43400730205E+02  0.00000000000E+00 0.  1.
         11    1    3    3    0    0  0.75571114648E+01 -0.46661972017E+01 -0.82564412756E+01  0.12126506208E+02  0.51100000000E-03 0. -1.
        -11    1    3    3    0    0  0.93399316366E+01 -0.20694784602E+02 -0.38338195459E+01  0.23026215609E+02  0.51100000000E-03 0.  1.
        -12    1    3    3    0    0 -0.10777804142E+01 -0.96781815646E+01 -0.80500306572E+01  0.12634547978E+02  0.00000000000E+00 0.  1.
</event>
<event>
 7    1  0.2598019E-009  0.4778727E+02  0.7816164E-02  0.1312668E+00
        -11   -1    0    0    0    0  0.00000000000E+00  0.00000000000E+00  0.45593999997E+02  0.45594000000E+02  0.51100000000E-03 0.  1.
         11   -1    0    0    0    0 -0.00000000000E+00 -0.00000000000E+00 -0.45593999997E+02  0.45594000000E+02  0.51100000000E-03 0. -1.
    9900012    2    1    2    0    0  0.24149690873E+02  0.16421530606E+02 -0.32105278234E+02  0.47787272734E+02  0.20000007705E+02 0.  0.
        -12    1    1    2    0    0 -0.24149690873E+02 -0.16421530606E+02  0.32105278234E+02  0.43400727266E+02  0.00000000000E+00 0.  1.
         11    1    3    3    0    0  0.48147926542E+01 -0.17930593042E+01 -0.10212300549E+02  0.11431901536E+02  0.51100000000E-03 0. -1.
        -11    1    3    3    0    0  0.37820260082E+01  0.74550983618E+01 -0.14113490939E+01  0.84778605106E+01  0.51100000000E-03 0.  1.
        -12    1    3    3    0    0  0.15552872210E+02  0.10759491549E+02 -0.20481628591E+02  0.27877510687E+02  0.00000000000E+00 0.  1.
</event>
<event>
 7    1  0.2598019E-009  0.4778727E+02  0.7816164E-02  0.1312668E+00
        -11   -1    0    0    0    0  0.00000000000E+00  0.00000000000E+00  0.45593999997E+02  0.45594000000E+02  0.51100000000E-03 0.  1.
         11   -1    0    0    0    0 -0.00000000000E+00 -0.00000000000E+00 -0.45593999997E+02  0.45594000000E+02  0.51100000000E-03 0. -1.
    9900012    2    1    2    0    0 -0.14826684016E+02  0.37152581813E+02 -0.16836818152E+02  0.47787270286E+02  0.19999996540E+02 0.  0.
        -12    1    1    2    0    0  0.14826684016E+02 -0.37152581813E+02  0.16836818152E+02  0.43400729714E+02  0.00000000000E+00 0.  1.
         11    1    3    3    0    0 -0.74099489097E+01  0.34672346519E+02 -0.15035752357E+02  0.38511722958E+02  0.51100000000E-03 0. -1.
        -11    1    3    3    0    0 -0.17759266744E+01  0.10090278016E+01  0.15385637834E+01  0.25571920995E+01  0.51100000000E-03 0.  1.
         12    1    3    3    0    0 -0.56408084316E+01  0.14712074919E+01 -0.33396295786E+01  0.67183552279E+01  0.00000000000E+00 0. -1.
</event>
<event>
 7    1  0.2598019E-009  0.4778727E+02  0.7816164E-02  0.1312668E+00
        -11   -1    0    0    0    0  0.00000000000E+00  0.00000000000E+00  0.45593999997E+02  0.45594000000E+02  0.51100000000E-03 0.  1.
         11   -1    0    0    0    0 -0.00000000000E+00 -0.00000000000E+00 -0.45593999997E+02  0.45594000000E+02  0.51100000000E-03 0. -1.
    9900012    2    1    2    0    0 -0.26389099215E+02 -0.44790987586E+01 -0.34163962182E+02  0.47787271953E+02  0.20000004140E+02 0.  0.
        -12    1    1    2    0    0  0.26389099215E+02  0.44790987586E+01  0.34163962182E+02  0.43400728047E+02  0.00000000000E+00 0.  1.
         11    1    3    3    0    0 -0.99284992103E+01 -0.13818282650E+01 -0.13725368813E+01  0.10117727199E+02  0.51100000000E-03 0. -1.
        -11    1    3    3    0    0 -0.71385404708E+00 -0.24070550824E+01 -0.70734836343E+01  0.75058425747E+01  0.51100000000E-03 0.  1.
         12    1    3    3    0    0 -0.15746745958E+02 -0.69021541124E+00 -0.25717941667E+02  0.30163702179E+02  0.00000000000E+00 0. -1.
</event>
<event>
 7    1  0.2598019E-009  0.4778727E+02  0.7816164E-02  0.1312668E+00
        -11   -1    0    0    0    0  0.00000000000E+00  0.00000000000E+00  0.45593999997E+02  0.45594000000E+02  0.51100000000E-03 0.  1.
         11   -1    0    0    0    0 -0.00000000000E+00 -0.00000000000E+00 -0.45593999997E+02  0.45594000000E+02  0.51100000000E-03 0. -1.
    9900012    2    1    2    0    0  0.67406204165E+01  0.39530145561E+02 -0.16599851952E+02  0.47787268941E+02  0.19999990409E+02 0.  0.
        -12    1    1    2    0    0 -0.67406204165E+01 -0.39530145561E+02  0.16599851952E+02  0.43400731059E+02  0.00000000000E+00 0.  1.
         11    1    3    3    0    0 -0.10883845823E+01  0.24124200644E+02 -0.75703701569E+01  0.25307551092E+02  0.51100000000E-03 0. -1.
        -11    1    3    3    0    0  0.50813162053E+01  0.45399070510E+00 -0.39474293728E+01  0.64504326097E+01  0.51100000000E-03 0.  1.
         12    1    3    3    0    0  0.27476887935E+01  0.14951954211E+02 -0.50820524222E+01  0.16029285239E+02  0.00000000000E+00 0. -1.
</event>
<event>
 7    1  0.2598019E-009  0.4778727E+02  0.7816164E-02  0.1312668E+00
        -11   -1    0    0    0    0  0.00000000000E+00  0.00000000000E+00  0.45593999997E+02  0.45594000000E+02  0.51100000000E-03 0. -1.
         11   -1    0    0    0    0 -0.00000000000E+00 -0.00000000000E+00 -0.45593999997E+02  0.45594000000E+02  0.51100000000E-03 0.  1.
    9900012    2    1    2    0    0 -0.26375150003E+02  0.27581953764E+02  0.20669069380E+02  0.47787272585E+02  0.20000007024E+02 0.  0.
        -12    1    1    2    0    0  0.26375150003E+02 -0.27581953764E+02 -0.20669069380E+02  0.43400727415E+02  0.00000000000E+00 0.  1.
         11    1    3    3    0    0 -0.12833041207E+02  0.10244480530E+02  0.78648959179E+01  0.18206946916E+02  0.51100000000E-03 0. -1.
        -11    1    3    3    0    0  0.10833108160E+01 -0.44630213830E+00 -0.19202703050E+01  0.22494857697E+01  0.51100000000E-03 0.  1.
        -12    1    3    3    0    0 -0.14625419612E+02  0.17783775372E+02  0.14724443768E+02  0.27330839899E+02  0.00000000000E+00 0.  1.
</event>
<event>
 7    1  0.2598019E-009  0.4778727E+02  0.7816164E-02  0.1312668E+00
        -11   -1    0    0    0    0  0.00000000000E+00  0.00000000000E+00  0.45593999997E+02  0.45594000000E+02  0.51100000000E-03 0.  1.
         11   -1    0    0    0    0 -0.00000000000E+00 -0.00000000000E+00 -0.45593999997E+02  0.45594000000E+02  0.51100000000E-03 0. -1.
    9900012    2    1    2    0    0 -0.18683504729E+02  0.21407007663E+01 -0.39114801462E+02  0.47787266802E+02  0.19999980657E+02 0.  0.
        -12    1    1    2    0    0  0.18683504729E+02 -0.21407007663E+01  0.39114801462E+02  0.43400733198E+02  0.00000000000E+00 0.  1.
         11    1    3    3    0    0 -0.84543066059E+01 -0.10974890645E+01 -0.29987587592E+02  0.31175875165E+02  0.51100000000E-03 0. -1.
        -11    1    3    3    0    0 -0.22062075773E+01 -0.27510128744E+01 -0.41009132654E+01  0.54085962671E+01  0.51100000000E-03 0.  1.
         12    1    3    3    0    0 -0.80229905455E+01  0.59892027053E+01 -0.50263006043E+01  0.11202795370E+02  0.00000000000E+00 0. -1.
</event>
<event>
 7    1  0.2598019E-009  0.4778728E+02  0.7816164E-02  0.1312668E+00
        -11   -1    0    0    0    0  0.00000000000E+00  0.00000000000E+00  0.45593999997E+02  0.45594000000E+02  0.51100000000E-03 0. -1.
         11   -1    0    0    0    0 -0.00000000000E+00 -0.00000000000E+00 -0.45593999997E+02  0.45594000000E+02  0.51100000000E-03 0.  1.
    9900012    2    1    2    0    0  0.26495413697E+02  0.31363422308E+02  0.14069526819E+02  0.47787276611E+02  0.20000025378E+02 0.  0.
        -12    1    1    2    0    0 -0.26495413697E+02 -0.31363422308E+02 -0.14069526819E+02  0.43400723389E+02  0.00000000000E+00 0.  1.
         11    1    3    3    0    0  0.24693800438E+02  0.30480955429E+02  0.15940917327E+02  0.42343656779E+02  0.51100000000E-03 0. -1.
        -11    1    3    3    0    0  0.17085764140E+01  0.16166328248E+01 -0.31709512942E+01  0.39481220123E+01  0.51100000000E-03 0.  1.
        -12    1    3    3    0    0  0.93036845303E-01 -0.73416594618E+00  0.12995607858E+01  0.14954978192E+01  0.00000000000E+00 0.  1.
</event>
<event>
 7    1  0.2598019E-009  0.4778727E+02  0.7816164E-02  0.1312668E+00
        -11   -1    0    0    0    0  0.00000000000E+00  0.00000000000E+00  0.45593999997E+02  0.45594000000E+02  0.51100000000E-03 0. -1.
         11   -1    0    0    0    0 -0.00000000000E+00 -0.00000000000E+00 -0.45593999997E+02  0.45594000000E+02  0.51100000000E-03 0.  1.
    9900012    2    1    2    0    0  0.24891978440E+02 -0.45824413910E+01  0.35256399906E+02  0.47787273116E+02  0.20000009445E+02 0.  0.
        -12    1    1    2    0    0 -0.24891978440E+02  0.45824413910E+01 -0.35256399906E+02  0.43400726884E+02  0.00000000000E+00 0.  1.
         11    1    3    3    0    0  0.73262032717E+01  0.53408813827E+01  0.17803904067E+02  0.19979421128E+02  0.51100000000E-03 0. -1.
        -11    1    3    3    0    0  0.61644955528E+01 -0.27602875085E+01  0.14751159456E+01  0.69134766843E+01  0.51100000000E-03 0.  1.
         12    1    3    3    0    0  0.11401279615E+02 -0.71630352652E+01  0.15977379894E+02  0.20894375304E+02  0.00000000000E+00 0. -1.
</event>
<event>
 7    1  0.2598019E-009  0.4778726E+02  0.7816164E-02  0.1312668E+00
        -11   -1    0    0    0    0  0.00000000000E+00  0.00000000000E+00  0.45593999997E+02  0.45594000000E+02  0.51100000000E-03 0.  1.
         11   -1    0    0    0    0 -0.00000000000E+00 -0.00000000000E+00 -0.45593999997E+02  0.45594000000E+02  0.51100000000E-03 0. -1.
    9900012    2    1    2    0    0  0.16263671988E+02  0.28308941185E+02 -0.28595825024E+02  0.47787258228E+02  0.19999941566E+02 0.  0.
        -12    1    1    2    0    0 -0.16263671988E+02 -0.28308941185E+02  0.28595825024E+02  0.43400741772E+02  0.00000000000E+00 0.  1.
         11    1    3    3    0    0  0.65413722536E+01  0.10664160990E+02 -0.71034848540E+01  0.14386569359E+02  0.51100000000E-03 0. -1.
        -11    1    3    3    0    0  0.44329882896E+01  0.17666203995E+02 -0.21411830988E+02  0.28110721358E+02  0.51100000000E-03 0.  1.
        -12    1    3    3    0    0  0.52893114453E+01 -0.21423800007E-01 -0.80509182082E-01  0.52899675115E+01  0.00000000000E+00 0.  1.
</event>
<event>
 7    1  0.2598019E-009  0.4778727E+02  0.7816164E-02  0.1312668E+00
        -11   -1    0    0    0    0  0.00000000000E+00  0.00000000000E+00  0.45593999997E+02  0.45594000000E+02  0.51100000000E-03 0. -1.
         11   -1    0    0    0    0 -0.00000000000E+00 -0.00000000000E+00 -0.45593999997E+02  0.45594000000E+02  0.51100000000E-03 0.  1.
    9900012    2    1    2    0    0  0.16381754693E+02 -0.31910767241E+02  0.24432853679E+02  0.47787270840E+02  0.19999999068E+02 0.  0.
        -12    1    1    2    0    0 -0.16381754693E+02  0.31910767241E+02 -0.24432853679E+02  0.43400729160E+02  0.00000000000E+00 0.  1.
         11    1    3    3    0    0 -0.10517820992E+01 -0.13057732272E+02  0.35158854349E+01  0.13563630352E+02  0.51100000000E-03 0. -1.
        -11    1    3    3    0    0  0.13522402844E+02 -0.10645605167E+02  0.95981052658E+01  0.19705530010E+02  0.51100000000E-03 0.  1.
        -12    1    3    3    0    0  0.39111339484E+01 -0.82074298016E+01  0.11318862978E+02  0.14518110477E+02  0.00000000000E+00 0.  1.
</event>
<event>
 7    1  0.2598019E-009  0.4778728E+02  0.7816164E-02  0.1312668E+00
        -11   -1    0    0    0    0  0.00000000000E+00  0.00000000000E+00  0.45593999997E+02  0.45594000000E+02  0.51100000000E-03 0.  1.
         11   -1    0    0    0    0 -0.00000000000E+00 -0.00000000000E+00 -0.45593999997E+02  0.45594000000E+02  0.51100000000E-03 0. -1.
    9900012    2    1    2    0    0 -0.36860426492E+02 -0.43616897042E+01 -0.22492374214E+02  0.47787282540E+02  0.20000052413E+02 0.  0.
        -12    1    1    2    0    0  0.36860426492E+02  0.43616897042E+01  0.22492374214E+02  0.43400717460E+02  0.00000000000E+00 0.  1.
         11    1    3    3    0    0 -0.11488267126E+02  0.34533715932E+01 -0.37339242385E+01  0.12563767246E+02  0.51100000000E-03 0.  1.
        -11    1    3    3    0    0 -0.11151970017E+02 -0.97617061783E+01 -0.13150726620E+02  0.19814109964E+02  0.51100000000E-03 0. -1.
         12    1    3    3    0    0 -0.14220189348E+02  0.19466448809E+01 -0.56077233556E+01  0.15409405330E+02  0.00000000000E+00 0. -1.
</event>
<event>
 7    1  0.2598019E-009  0.4778727E+02  0.7816164E-02  0.1312668E+00
        -11   -1    0    0    0    0  0.00000000000E+00  0.00000000000E+00  0.45593999997E+02  0.45594000000E+02  0.51100000000E-03 0. -1.
         11   -1    0    0    0    0 -0.00000000000E+00 -0.00000000000E+00 -0.45593999997E+02  0.45594000000E+02  0.51100000000E-03 0.  1.
    9900012    2    1    2    0    0  0.72479724556E+01  0.38004422738E+02  0.19666054641E+02  0.47787274689E+02  0.20000016618E+02 0.  0.
        -12    1    1    2    0    0 -0.72479724556E+01 -0.38004422738E+02 -0.19666054641E+02  0.43400725311E+02  0.00000000000E+00 0.  1.
         11    1    3    3    0    0  0.30179130189E+01  0.23955745838E+02  0.12342898941E+02  0.27117018866E+02  0.51100000000E-03 0. -1.
        -11    1    3    3    0    0  0.58445859613E+01  0.57909350026E+01 -0.16259790008E+01  0.83867706082E+01  0.51100000000E-03 0.  1.
        -12    1    3    3    0    0 -0.16145265246E+01  0.82577418977E+01  0.89491347000E+01  0.12283485215E+02  0.00000000000E+00 0.  1.
</event>
<event>
 7    1  0.2598019E-009  0.4778727E+02  0.7816164E-02  0.1312668E+00
        -11   -1    0    0    0    0  0.00000000000E+00  0.00000000000E+00  0.45593999997E+02  0.45594000000E+02  0.51100000000E-03 0.  1.
         11   -1    0    0    0    0 -0.00000000000E+00 -0.00000000000E+00 -0.45593999997E+02  0.45594000000E+02  0.51100000000E-03 0. -1.
    9900012    2    1    2    0    0 -0.23454589741E+02 -0.36318164149E+02 -0.38074282094E+01  0.47787270322E+02  0.19999996705E+02 0.  0.
        -12    1    1    2    0    0  0.23454589741E+02  0.36318164149E+02  0.38074282094E+01  0.43400729678E+02  0.00000000000E+00 0.  1.
         11    1    3    3    0    0 -0.54667540831E+01 -0.12363950994E+02 -0.16811502939E-01  0.13518615582E+02  0.51100000000E-03 0. -1.
        -11    1    3    3    0    0 -0.20017062576E+02 -0.24254392533E+02 -0.19425676472E+01  0.31507648605E+02  0.51100000000E-03 0.  1.
        -12    1    3    3    0    0  0.20292269187E+01  0.30017937752E+00 -0.18480490593E+01  0.27610061339E+01  0.00000000000E+00 0.  1.
</event>
<event>
 7    1  0.2598019E-009  0.4778727E+02  0.7816164E-02  0.1312668E+00
        -11   -1    0    0    0    0  0.00000000000E+00  0.00000000000E+00  0.45593999997E+02  0.45594000000E+02  0.51100000000E-03 0. -1.
         11   -1    0    0    0    0 -0.00000000000E+00 -0.00000000000E+00 -0.45593999997E+02  0.45594000000E+02  0.51100000000E-03 0.  1.
    9900012    2    1    2    0    0 -0.13883981179E+02  0.31302103406E+02  0.26665275775E+02  0.47787267942E+02  0.19999985853E+02 0.  0.
        -12    1    1    2    0    0  0.13883981179E+02 -0.31302103406E+02 -0.26665275775E+02  0.43400732058E+02  0.00000000000E+00 0.  1.
         11    1    3    3    0    0 -0.12520211682E+02  0.30354161928E+02  0.29320398891E+02  0.44020638776E+02  0.51100000000E-03 0. -1.
        -11    1    3    3    0    0 -0.63646380781E+00 -0.61528376134E+00 -0.13042796335E+01  0.15763267139E+01  0.51100000000E-03 0.  1.
         12    1    3    3    0    0 -0.72730568917E+00  0.15632252397E+01 -0.13508434820E+01  0.21903024513E+01  0.00000000000E+00 0. -1.
</event>
<event>
 7    1  0.2598019E-009  0.4778728E+02  0.7816164E-02  0.1312668E+00
        -11   -1    0    0    0    0  0.00000000000E+00  0.00000000000E+00  0.45593999997E+02  0.45594000000E+02  0.51100000000E-03 0. -1.
         11   -1    0    0    0    0 -0.00000000000E+00 -0.00000000000E+00 -0.45593999997E+02  0.45594000000E+02  0.51100000000E-03 0.  1.
    9900012    2    1    2    0    0 -0.30048058476E+01  0.41263660930E+02  0.13111227093E+02  0.47787275958E+02  0.20000022401E+02 0.  0.
        -12    1    1    2    0    0  0.30048058476E+01 -0.41263660930E+02 -0.13111227093E+02  0.43400724042E+02  0.00000000000E+00 0.  1.
         11    1    3    3    0    0  0.16433600758E+01  0.12988723997E+02  0.87076843589E+01  0.15723592165E+02  0.51100000000E-03 0. -1.
        -11    1    3    3    0    0 -0.67348973586E+01  0.17707057791E+02 -0.27350954748E+01  0.19141041914E+02  0.51100000000E-03 0.  1.
        -12    1    3    3    0    0  0.20867314352E+01  0.10567879142E+02  0.71386382094E+01  0.12922641879E+02  0.00000000000E+00 0.  1.
</event>
<event>
 7    1  0.2598019E-009  0.4778728E+02  0.7816164E-02  0.1312668E+00
        -11   -1    0    0    0    0  0.00000000000E+00  0.00000000000E+00  0.45593999997E+02  0.45594000000E+02  0.51100000000E-03 0.  1.
         11   -1    0    0    0    0 -0.00000000000E+00 -0.00000000000E+00 -0.45593999997E+02  0.45594000000E+02  0.51100000000E-03 0. -1.
    9900012    2    1    2    0    0 -0.20276205256E+02 -0.17764978941E+02 -0.34013283538E+02  0.47787280727E+02  0.20000044148E+02 0.  0.
        -12    1    1    2    0    0  0.20276205256E+02  0.17764978941E+02  0.34013283538E+02  0.43400719273E+02  0.00000000000E+00 0.  1.
         11    1    3    3    0    0 -0.49195215337E+01 -0.32212577960E+01 -0.50168723672E+01  0.77296314607E+01  0.51100000000E-03 0. -1.
        -11    1    3    3    0    0 -0.87298939160E+01 -0.13472283761E+02 -0.29221741975E+02  0.33341021007E+02  0.51100000000E-03 0.  1.
        -12    1    3    3    0    0 -0.66267898061E+01 -0.10714373840E+01  0.22533080390E+00  0.67166282592E+01  0.00000000000E+00 0.  1.
</event>
<event>
 7    1  0.2598019E-009  0.4778732E+02  0.7816164E-02  0.1312668E+00
        -11   -1    0    0    0    0  0.00000000000E+00  0.00000000000E+00  0.45593999997E+02  0.45594000000E+02  0.51100000000E-03 0.  1.
         11   -1    0    0    0    0 -0.00000000000E+00 -0.00000000000E+00 -0.45593999997E+02  0.45594000000E+02  0.51100000000E-03 0. -1.
    9900012    2    1    2    0    0 -0.36115182111E+02 -0.16949915097E+02 -0.17088394776E+02  0.47787317555E+02  0.20000212059E+02 0.  0.
        -12    1    1    2    0    0  0.36115182111E+02  0.16949915097E+02  0.17088394776E+02  0.43400682445E+02  0.00000000000E+00 0.  1.
         11    1    3    3    0    0 -0.68231810811E+00 -0.43491784864E+01 -0.57844614047E+01  0.72691750227E+01  0.51100000000E-03 0. -1.
        -11    1    3    3    0    0 -0.34553694615E+02 -0.12449240218E+02 -0.12699722304E+02  0.38861604964E+02  0.51100000000E-03 0.  1.
        -12    1    3    3    0    0 -0.87916938826E+00 -0.15149639178E+00  0.13957889327E+01  0.16565375682E+01  0.00000000000E+00 0.  1.
</event>
<event>
 7    1  0.2598019E-009  0.4778728E+02  0.7816164E-02  0.1312668E+00
        -11   -1    0    0    0    0  0.00000000000E+00  0.00000000000E+00  0.45593999997E+02  0.45594000000E+02  0.51100000000E-03 0. -1.
         11   -1    0    0    0    0 -0.00000000000E+00 -0.00000000000E+00 -0.45593999997E+02  0.45594000000E+02  0.51100000000E-03 0.  1.
    9900012    2    1    2    0    0 -0.67957297604E+01 -0.35416169105E+02  0.24148207880E+02  0.47787275111E+02  0.20000018541E+02 0.  0.
        -12    1    1    2    0    0  0.67957297604E+01  0.35416169105E+02 -0.24148207880E+02  0.43400724889E+02  0.00000000000E+00 0.  1.
         11    1    3    3    0    0  0.45109336936E+00  0.20403333571E+00  0.64498687562E+01  0.64688424052E+01  0.51100000000E-03 0.  1.
        -11    1    3    3    0    0 -0.20922483279E+01 -0.26852798137E+02  0.10745403839E+02  0.28998516769E+02  0.51100000000E-03 0. -1.
         12    1    3    3    0    0 -0.51545748018E+01 -0.87674043040E+01  0.69529352851E+01  0.12319915937E+02  0.00000000000E+00 0. -1.
</event>
<event>
 7    1  0.2598019E-009  0.4778727E+02  0.7816164E-02  0.1312668E+00
        -11   -1    0    0    0    0  0.00000000000E+00  0.00000000000E+00  0.45593999997E+02  0.45594000000E+02  0.51100000000E-03 0.  1.
         11   -1    0    0    0    0 -0.00000000000E+00 -0.00000000000E+00 -0.45593999997E+02  0.45594000000E+02  0.51100000000E-03 0. -1.
    9900012    2    1    2    0    0  0.91184989734E+01  0.32734275216E+02 -0.26998962794E+02  0.47787265105E+02  0.19999972920E+02 0.  0.
        -12    1    1    2    0    0 -0.91184989734E+01 -0.32734275216E+02  0.26998962794E+02  0.43400734895E+02  0.00000000000E+00 0.  1.
         11    1    3    3    0    0  0.10316630202E+02  0.13797823294E+02 -0.16050841369E+02  0.23546598380E+02  0.51100000000E-03 0.  1.
        -11    1    3    3    0    0  0.30591976265E+01  0.12397472689E+02 -0.10309824790E+02  0.16411840441E+02  0.51100000000E-03 0. -1.
         12    1    3    3    0    0 -0.42573288552E+01  0.65389792333E+01 -0.63829663608E+00  0.78288262844E+01  0.00000000000E+00 0. -1.
</event>
<event>
 7    1  0.2598019E-009  0.4778727E+02  0.7816164E-02  0.1312668E+00
        -11   -1    0    0    0    0  0.00000000000E+00  0.00000000000E+00  0.45593999997E+02  0.45594000000E+02  0.51100000000E-03 0.  1.
         11   -1    0    0    0    0 -0.00000000000E+00 -0.00000000000E+00 -0.45593999997E+02  0.45594000000E+02  0.51100000000E-03 0. -1.
    9900012    2    1    2    0    0 -0.28229417036E+02  0.96660048439E+01 -0.31516537240E+02  0.47787265497E+02  0.19999974705E+02 0.  0.
        -12    1    1    2    0    0  0.28229417036E+02 -0.96660048439E+01  0.31516537240E+02  0.43400734503E+02  0.00000000000E+00 0.  1.
         11    1    3    3    0    0 -0.22284444507E+02  0.53808114945E+01 -0.14623960701E+02  0.27192091243E+02  0.51100000000E-03 0. -1.
        -11    1    3    3    0    0 -0.41981934202E+01  0.51578331081E+01 -0.44536934346E+01  0.80039650071E+01  0.51100000000E-03 0.  1.
         12    1    3    3    0    0 -0.17467791092E+01 -0.87263975875E+00 -0.12438883104E+02  0.12591209246E+02  0.00000000000E+00 0. -1.
</event>
<event>
 7    1  0.2598019E-009  0.4778727E+02  0.7816164E-02  0.1312668E+00
        -11   -1    0    0    0    0  0.00000000000E+00  0.00000000000E+00  0.45593999997E+02  0.45594000000E+02  0.51100000000E-03 0. -1.
         11   -1    0    0    0    0 -0.00000000000E+00 -0.00000000000E+00 -0.45593999997E+02  0.45594000000E+02  0.51100000000E-03 0.  1.
    9900012    2    1    2    0    0  0.22266855191E+01 -0.43018767880E+02 -0.52963103677E+01  0.47787269340E+02  0.19999992231E+02 0.  0.
        -12    1    1    2    0    0 -0.22266855191E+01  0.43018767880E+02  0.52963103677E+01  0.43400730660E+02  0.00000000000E+00 0.  1.
         11    1    3    3    0    0  0.61737424131E+01 -0.13644516326E+02  0.57942460065E+01  0.16058057423E+02  0.51100000000E-03 0. -1.
        -11    1    3    3    0    0 -0.17972413077E+01 -0.19786501525E+02 -0.81306413735E+01  0.21467255258E+02  0.51100000000E-03 0.  1.
        -12    1    3    3    0    0 -0.21498155862E+01 -0.95877500290E+01 -0.29599150008E+01  0.10261956660E+02  0.00000000000E+00 0.  1.
</event>
<event>
 7    1  0.2598019E-009  0.4778727E+02  0.7816164E-02  0.1312668E+00
        -11   -1    0    0    0    0  0.00000000000E+00  0.00000000000E+00  0.45593999997E+02  0.45594000000E+02  0.51100000000E-03 0.  1.
         11   -1    0    0    0    0 -0.00000000000E+00 -0.00000000000E+00 -0.45593999997E+02  0.45594000000E+02  0.51100000000E-03 0. -1.
    9900012    2    1    2    0    0  0.30304228040E+02 -0.21930766891E+02 -0.22007246599E+02  0.47787266407E+02  0.19999978858E+02 0.  0.
        -12    1    1    2    0    0 -0.30304228040E+02  0.21930766891E+02  0.22007246599E+02  0.43400733593E+02  0.00000000000E+00 0.  1.
         11    1    3    3    0    0  0.20732350857E+02 -0.13247612800E+02 -0.17181867059E+02  0.30009101500E+02  0.51100000000E-03 0. -1.
        -11    1    3    3    0    0  0.61378530409E+01 -0.34497979649E+00  0.20044127571E+01  0.64660592151E+01  0.51100000000E-03 0.  1.
        -12    1    3    3    0    0  0.34340241418E+01 -0.83381742942E+01 -0.68297922972E+01  0.11312105692E+02  0.00000000000E+00 0.  1.
</event>
<event>
 7    1  0.2598019E-009  0.4778727E+02  0.7816164E-02  0.1312668E+00
        -11   -1    0    0    0    0  0.00000000000E+00  0.00000000000E+00  0.45593999997E+02  0.45594000000E+02  0.51100000000E-03 0. -1.
         11   -1    0    0    0    0 -0.00000000000E+00 -0.00000000000E+00 -0.45593999997E+02  0.45594000000E+02  0.51100000000E-03 0.  1.
    9900012    2    1    2    0    0  0.35414133604E+02  0.23112768082E+02  0.97602555949E+01  0.47787268478E+02  0.19999988300E+02 0.  0.
        -12    1    1    2    0    0 -0.35414133604E+02 -0.23112768082E+02 -0.97602555949E+01  0.43400731522E+02  0.00000000000E+00 0.  1.
         11    1    3    3    0    0  0.29613615352E+02  0.16629548045E+02  0.12371846633E+02  0.36146516731E+02  0.51100000000E-03 0. -1.
        -11    1    3    3    0    0  0.33589882806E+01  0.67110571259E+01  0.68077663592E+00  0.75355522097E+01  0.51100000000E-03 0.  1.
         12    1    3    3    0    0  0.24415299712E+01 -0.22783708968E+00 -0.32923676740E+01  0.41051995373E+01  0.00000000000E+00 0. -1.
</event>
<event>
 7    1  0.2598019E-009  0.4778727E+02  0.7816164E-02  0.1312668E+00
        -11   -1    0    0    0    0  0.00000000000E+00  0.00000000000E+00  0.45593999997E+02  0.45594000000E+02  0.51100000000E-03 0.  1.
         11   -1    0    0    0    0 -0.00000000000E+00 -0.00000000000E+00 -0.45593999997E+02  0.45594000000E+02  0.51100000000E-03 0. -1.
    9900012    2    1    2    0    0  0.13854044036E+02 -0.20803957809E+02 -0.35480759643E+02  0.47787268422E+02  0.19999988042E+02 0.  0.
        -12    1    1    2    0    0 -0.13854044036E+02  0.20803957809E+02  0.35480759643E+02  0.43400731578E+02  0.00000000000E+00 0.  1.
         11    1    3    3    0    0  0.61908243864E+01 -0.81072623021E+01 -0.18852696979E+02  0.21435442432E+02  0.51100000000E-03 0. -1.
        -11    1    3    3    0    0  0.90550032877E+01 -0.76426201242E+01 -0.37191937210E+01  0.12419143654E+02  0.51100000000E-03 0.  1.
        -12    1    3    3    0    0 -0.13917836380E+01 -0.50540753826E+01 -0.12908868943E+02  0.13932682336E+02  0.00000000000E+00 0.  1.
</event>
<event>
 7    1  0.2598019E-009  0.4778727E+02  0.7816164E-02  0.1312668E+00
        -11   -1    0    0    0    0  0.00000000000E+00  0.00000000000E+00  0.45593999997E+02  0.45594000000E+02  0.51100000000E-03 0. -1.
         11   -1    0    0    0    0 -0.00000000000E+00 -0.00000000000E+00 -0.45593999997E+02  0.45594000000E+02  0.51100000000E-03 0.  1.
    9900012    2    1    2    0    0  0.24584969739E+02  0.30058330024E+02  0.19382967753E+02  0.47787269824E+02  0.19999994435E+02 0.  0.
        -12    1    1    2    0    0 -0.24584969739E+02 -0.30058330024E+02 -0.19382967753E+02  0.43400730176E+02  0.00000000000E+00 0.  1.
         11    1    3    3    0    0  0.13945612317E+02  0.42391322141E+01  0.80781614018E+01  0.16664544300E+02  0.51100000000E-03 0.  1.
        -11    1    3    3    0    0  0.11885292705E+02  0.22917043063E+02  0.96790069881E+01  0.27570531768E+02  0.51100000000E-03 0. -1.
        -12    1    3    3    0    0 -0.12459352840E+01  0.29021547474E+01  0.16257993633E+01  0.35521937559E+01  0.00000000000E+00 0.  1.
</event>
<event>
 7    1  0.2598019E-009  0.4778727E+02  0.7816164E-02  0.1312668E+00
        -11   -1    0    0    0    0  0.00000000000E+00  0.00000000000E+00  0.45593999997E+02  0.45594000000E+02  0.51100000000E-03 0.  1.
         11   -1    0    0    0    0 -0.00000000000E+00 -0.00000000000E+00 -0.45593999997E+02  0.45594000000E+02  0.51100000000E-03 0. -1.
    9900012    2    1    2    0    0  0.11371784996E+02 -0.66482275208E+01 -0.41353437465E+02  0.47787271742E+02  0.20000003181E+02 0.  0.
        -12    1    1    2    0    0 -0.11371784996E+02  0.66482275208E+01  0.41353437465E+02  0.43400728258E+02  0.00000000000E+00 0.  1.
         11    1    3    3    0    0  0.76647804585E+01 -0.11185381043E+02 -0.22868766333E+02  0.26586501884E+02  0.51100000000E-03 0. -1.
        -11    1    3    3    0    0  0.39888575410E+01  0.68608834897E+01 -0.12904729063E+02  0.15149743865E+02  0.51100000000E-03 0.  1.
        -12    1    3    3    0    0 -0.28185300322E+00 -0.23237299672E+01 -0.55799420688E+01  0.60510259930E+01  0.00000000000E+00 0.  1.
</event>
<event>
 7    1  0.2598019E-009  0.4778728E+02  0.7816164E-02  0.1312668E+00
        -11   -1    0    0    0    0  0.00000000000E+00  0.00000000000E+00  0.45593999997E+02  0.45594000000E+02  0.51100000000E-03 0. -1.
         11   -1    0    0    0    0 -0.00000000000E+00 -0.00000000000E+00 -0.45593999997E+02  0.45594000000E+02  0.51100000000E-03 0.  1.
    9900012    2    1    2    0    0  0.41932400952E+02  0.10644848551E+02 -0.34616650164E+01  0.47787283705E+02  0.20000057723E+02 0.  0.
        -12    1    1    2    0    0 -0.41932400952E+02 -0.10644848551E+02  0.34616650164E+01  0.43400716295E+02  0.00000000000E+00 0.  1.
         11    1    3    3    0    0  0.84992498777E+01  0.90270778020E+00 -0.10252275094E+01  0.86083228057E+01  0.51100000000E-03 0. -1.
        -11    1    3    3    0    0  0.13700966852E+02 -0.36211375114E+01 -0.53970664113E+01  0.15164348178E+02  0.51100000000E-03 0.  1.
        -12    1    3    3    0    0  0.19732184222E+02  0.13363278282E+02  0.29606289043E+01  0.24014612721E+02  0.00000000000E+00 0.  1.
</event>
<event>
 7    1  0.2598019E-009  0.4778724E+02  0.7816164E-02  0.1312668E+00
        -11   -1    0    0    0    0  0.00000000000E+00  0.00000000000E+00  0.45593999997E+02  0.45594000000E+02  0.51100000000E-03 0.  1.
         11   -1    0    0    0    0 -0.00000000000E+00 -0.00000000000E+00 -0.45593999997E+02  0.45594000000E+02  0.51100000000E-03 0. -1.
    9900012    2    1    2    0    0  0.21251512537E+02  0.27772827374E+02 -0.25703487010E+02  0.47787239985E+02  0.19999858387E+02 0.  0.
        -12    1    1    2    0    0 -0.21251512537E+02 -0.27772827374E+02  0.25703487010E+02  0.43400760015E+02  0.00000000000E+00 0.  1.
         11    1    3    3    0    0  0.13485550024E+02  0.14278861703E+02 -0.22960823284E+02  0.30214985639E+02  0.51100000000E-03 0. -1.
        -11    1    3    3    0    0  0.87316243948E+01  0.91825141338E+01 -0.66179150269E+00  0.12688490795E+02  0.51100000000E-03 0.  1.
        -12    1    3    3    0    0 -0.96566188194E+00  0.43114515366E+01 -0.20808722225E+01  0.48837635518E+01  0.00000000000E+00 0.  1.
</event>
<event>
 7    1  0.2598019E-009  0.4778727E+02  0.7816164E-02  0.1312668E+00
        -11   -1    0    0    0    0  0.00000000000E+00  0.00000000000E+00  0.45593999997E+02  0.45594000000E+02  0.51100000000E-03 0.  1.
         11   -1    0    0    0    0 -0.00000000000E+00 -0.00000000000E+00 -0.45593999997E+02  0.45594000000E+02  0.51100000000E-03 0. -1.
    9900012    2    1    2    0    0 -0.16750977934E+02  0.29781854044E+02 -0.26759467107E+02  0.47787272220E+02  0.20000005358E+02 0.  0.
        -12    1    1    2    0    0  0.16750977934E+02 -0.29781854044E+02  0.26759467107E+02  0.43400727780E+02  0.00000000000E+00 0.  1.
         11    1    3    3    0    0 -0.11754883355E+01  0.44300785262E+01 -0.14120772219E+02  0.14845995316E+02  0.51100000000E-03 0. -1.
        -11    1    3    3    0    0 -0.45600985416E+01  0.54172703486E+01 -0.41589532736E+00  0.70932563695E+01  0.51100000000E-03 0.  1.
         12    1    3    3    0    0 -0.11015391057E+02  0.19934505169E+02 -0.12222799560E+02  0.25848020535E+02  0.00000000000E+00 0. -1.
</event>
<event>
 7    1  0.2598019E-009  0.4778727E+02  0.7816164E-02  0.1312668E+00
        -11   -1    0    0    0    0  0.00000000000E+00  0.00000000000E+00  0.45593999997E+02  0.45594000000E+02  0.51100000000E-03 0.  1.
         11   -1    0    0    0    0 -0.00000000000E+00 -0.00000000000E+00 -0.45593999997E+02  0.45594000000E+02  0.51100000000E-03 0. -1.
    9900012    2    1    2    0    0 -0.14801456837E+02 -0.34607802204E+02 -0.21606482607E+02  0.47787272028E+02  0.20000004482E+02 0.  0.
        -12    1    1    2    0    0  0.14801456837E+02  0.34607802204E+02  0.21606482607E+02  0.43400727972E+02  0.00000000000E+00 0.  1.
         11    1    3    3    0    0 -0.14022653991E+02 -0.13285706868E+02 -0.13902317207E+02  0.23799564196E+02  0.51100000000E-03 0. -1.
        -11    1    3    3    0    0  0.23849108124E+01 -0.26193778805E+01 -0.76996915611E-01  0.35432850365E+01  0.51100000000E-03 0.  1.
         12    1    3    3    0    0 -0.31637136589E+01 -0.18702717456E+02 -0.76271684843E+01  0.20444422795E+02  0.00000000000E+00 0. -1.
</event>
<event>
 7    1  0.2598019E-009  0.4778728E+02  0.7816164E-02  0.1312668E+00
        -11   -1    0    0    0    0  0.00000000000E+00  0.00000000000E+00  0.45593999997E+02  0.45594000000E+02  0.51100000000E-03 0. -1.
         11   -1    0    0    0    0 -0.00000000000E+00 -0.00000000000E+00 -0.45593999997E+02  0.45594000000E+02  0.51100000000E-03 0.  1.
    9900012    2    1    2    0    0 -0.11447574070E+02 -0.41858595696E+02  0.65855673898E+00  0.47787277855E+02  0.20000031051E+02 0.  0.
        -12    1    1    2    0    0  0.11447574070E+02  0.41858595696E+02 -0.65855673898E+00  0.43400722145E+02  0.00000000000E+00 0.  1.
         11    1    3    3    0    0 -0.35110546990E+01 -0.34772695241E+02  0.17528879265E+01  0.34993434467E+02  0.51100000000E-03 0. -1.
        -11    1    3    3    0    0 -0.50128237809E+01 -0.50829877658E+01 -0.40246653671E+01  0.81953095405E+01  0.51100000000E-03 0.  1.
        -12    1    3    3    0    0 -0.29236955901E+01 -0.20029126894E+01  0.29303341796E+01  0.45985338478E+01  0.00000000000E+00 0.  1.
</event>
<event>
 7    1  0.2598019E-009  0.4778727E+02  0.7816164E-02  0.1312668E+00
        -11   -1    0    0    0    0  0.00000000000E+00  0.00000000000E+00  0.45593999997E+02  0.45594000000E+02  0.51100000000E-03 0.  1.
         11   -1    0    0    0    0 -0.00000000000E+00 -0.00000000000E+00 -0.45593999997E+02  0.45594000000E+02  0.51100000000E-03 0. -1.
    9900012    2    1    2    0    0 -0.67265877789E+01 -0.42474892430E+01 -0.42665386164E+02  0.47787270461E+02  0.19999997338E+02 0.  0.
        -12    1    1    2    0    0  0.67265877789E+01  0.42474892430E+01  0.42665386164E+02  0.43400729539E+02  0.00000000000E+00 0.  1.
         11    1    3    3    0    0 -0.18998605196E+01 -0.28534895510E+01 -0.13848753093E+02  0.14266738769E+02  0.51100000000E-03 0. -1.
        -11    1    3    3    0    0 -0.67216010322E-03  0.24977797585E+01 -0.26922189898E+02  0.27037810809E+02  0.51100000000E-03 0.  1.
        -12    1    3    3    0    0 -0.48260550992E+01 -0.38917794505E+01 -0.18944431737E+01  0.64827208833E+01  0.00000000000E+00 0.  1.
</event>
<event>
 7    1  0.2598019E-009  0.4778727E+02  0.7816164E-02  0.1312668E+00
        -11   -1    0    0    0    0  0.00000000000E+00  0.00000000000E+00  0.45593999997E+02  0.45594000000E+02  0.51100000000E-03 0.  1.
         11   -1    0    0    0    0 -0.00000000000E+00 -0.00000000000E+00 -0.45593999997E+02  0.45594000000E+02  0.51100000000E-03 0. -1.
    9900012    2    1    2    0    0  0.12225342722E+02  0.16153708387E+02 -0.38382571004E+02  0.47787273553E+02  0.20000011435E+02 0.  0.
        -12    1    1    2    0    0 -0.12225342722E+02 -0.16153708387E+02  0.38382571004E+02  0.43400726447E+02  0.00000000000E+00 0.  1.
         11    1    3    3    0    0  0.36326409621E+01 -0.64898528700E+00 -0.57154311890E+01  0.68031916186E+01  0.51100000000E-03 0. -1.
        -11    1    3    3    0    0  0.32031664514E+01  0.15030983642E+01  0.94515129848E+00  0.36623614303E+01  0.51100000000E-03 0.  1.
        -12    1    3    3    0    0  0.53895353087E+01  0.15299595310E+02 -0.33612291113E+02  0.37321720504E+02  0.00000000000E+00 0.  1.
</event>
<event>
 7    1  0.2598019E-009  0.4778726E+02  0.7816164E-02  0.1312668E+00
        -11   -1    0    0    0    0  0.00000000000E+00  0.00000000000E+00  0.45593999997E+02  0.45594000000E+02  0.51100000000E-03 0. -1.
         11   -1    0    0    0    0 -0.00000000000E+00 -0.00000000000E+00 -0.45593999997E+02  0.45594000000E+02  0.51100000000E-03 0.  1.
    9900012    2    1    2    0    0 -0.25349908213E+02 -0.33392338964E+02  0.11223088312E+02  0.47787264302E+02  0.19999969258E+02 0.  0.
        -12    1    1    2    0    0  0.25349908213E+02  0.33392338964E+02 -0.11223088312E+02  0.43400735698E+02  0.00000000000E+00 0.  1.
         11    1    3    3    0    0 -0.19334599854E+02 -0.14343973278E+02  0.19628063992E+01  0.24154273538E+02  0.51100000000E-03 0. -1.
        -11    1    3    3    0    0  0.33266408176E+00 -0.78156187662E+01  0.12448601223E+00  0.78236857758E+01  0.51100000000E-03 0.  1.
        -12    1    3    3    0    0 -0.63479724406E+01 -0.11232746919E+02  0.91357959010E+01  0.15809304988E+02  0.00000000000E+00 0.  1.
</event>
<event>
 7    1  0.2598019E-009  0.4778727E+02  0.7816164E-02  0.1312668E+00
        -11   -1    0    0    0    0  0.00000000000E+00  0.00000000000E+00  0.45593999997E+02  0.45594000000E+02  0.51100000000E-03 0.  1.
         11   -1    0    0    0    0 -0.00000000000E+00 -0.00000000000E+00 -0.45593999997E+02  0.45594000000E+02  0.51100000000E-03 0. -1.
    9900012    2    1    2    0    0  0.10652709085E+01 -0.71472078550E+01 -0.42794925596E+02  0.47787273750E+02  0.20000012336E+02 0.  0.
        -12    1    1    2    0    0 -0.10652709085E+01  0.71472078550E+01  0.42794925596E+02  0.43400726250E+02  0.00000000000E+00 0.  1.
         11    1    3    3    0    0 -0.10986370489E+00 -0.10032266652E+02 -0.11148813242E+02  0.14998482629E+02  0.51100000000E-03 0. -1.
        -11    1    3    3    0    0 -0.23349891464E+01  0.41211036934E+01 -0.20411293284E+02  0.20953676616E+02  0.51100000000E-03 0.  1.
        -12    1    3    3    0    0  0.35101237598E+01 -0.12360448968E+01 -0.11234819070E+02  0.11835114505E+02  0.00000000000E+00 0.  1.
</event>
<event>
 7    1  0.2598019E-009  0.4778727E+02  0.7816164E-02  0.1312668E+00
        -11   -1    0    0    0    0  0.00000000000E+00  0.00000000000E+00  0.45593999997E+02  0.45594000000E+02  0.51100000000E-03 0. -1.
         11   -1    0    0    0    0 -0.00000000000E+00 -0.00000000000E+00 -0.45593999997E+02  0.45594000000E+02  0.51100000000E-03 0.  1.
    9900012    2    1    2    0    0 -0.32744798363E+02  0.99673065060E+01  0.26684345995E+02  0.47787270282E+02  0.19999996525E+02 0.  0.
        -12    1    1    2    0    0  0.32744798363E+02 -0.99673065060E+01 -0.26684345995E+02  0.43400729718E+02  0.00000000000E+00 0.  1.
         11    1    3    3    0    0 -0.32587337785E+02  0.10670459722E+02  0.18931407151E+02  0.39168756319E+02  0.51100000000E-03 0. -1.
        -11    1    3    3    0    0 -0.15381969593E+00 -0.10286852434E+00  0.79759765267E+01  0.79781228523E+01  0.51100000000E-03 0.  1.
        -12    1    3    3    0    0 -0.36408821399E-02 -0.60028469136E+00 -0.22303768301E+00  0.64039111076E+00  0.00000000000E+00 0.  1.
</event>
<event>
 7    1  0.2598019E-009  0.4778726E+02  0.7816164E-02  0.1312668E+00
        -11   -1    0    0    0    0  0.00000000000E+00  0.00000000000E+00  0.45593999997E+02  0.45594000000E+02  0.51100000000E-03 0.  1.
         11   -1    0    0    0    0 -0.00000000000E+00 -0.00000000000E+00 -0.45593999997E+02  0.45594000000E+02  0.51100000000E-03 0. -1.
    9900012    2    1    2    0    0 -0.29800051676E+01  0.38264331840E+02 -0.20262891429E+02  0.47787259327E+02  0.19999946574E+02 0.  0.
        -12    1    1    2    0    0  0.29800051676E+01 -0.38264331840E+02  0.20262891429E+02  0.43400740673E+02  0.00000000000E+00 0.  1.
         11    1    3    3    0    0  0.18849073467E+01  0.17357122248E+02 -0.61530144727E+01  0.18511676201E+02  0.51100000000E-03 0. -1.
        -11    1    3    3    0    0 -0.83893191986E+01  0.61486095329E+01 -0.68533591579E+01  0.12456107250E+02  0.51100000000E-03 0.  1.
         12    1    3    3    0    0  0.35244066843E+01  0.14758600059E+02 -0.72565177983E+01  0.16819475876E+02  0.00000000000E+00 0. -1.
</event>
<event>
 7    1  0.2598019E-009  0.4778727E+02  0.7816164E-02  0.1312668E+00
        -11   -1    0    0    0    0  0.00000000000E+00  0.00000000000E+00  0.45593999997E+02  0.45594000000E+02  0.51100000000E-03 0.  1.
         11   -1    0    0    0    0 -0.00000000000E+00 -0.00000000000E+00 -0.45593999997E+02  0.45594000000E+02  0.51100000000E-03 0. -1.
    9900012    2    1    2    0    0 -0.81817587589E+01  0.31326243629E+02 -0.28902399512E+02  0.47787269432E+02  0.19999992647E+02 0.  0.
        -12    1    1    2    0    0  0.81817587589E+01 -0.31326243629E+02  0.28902399512E+02  0.43400730568E+02  0.00000000000E+00 0.  1.
         11    1    3    3    0    0  0.44514873893E+00  0.22435739944E+02 -0.23932353564E+02  0.32807287781E+02  0.51100000000E-03 0. -1.
        -11    1    3    3    0    0 -0.57854177575E+01  0.63668817975E+01  0.14943720335E+00  0.86041021723E+01  0.51100000000E-03 0.  1.
         12    1    3    3    0    0 -0.28414897404E+01  0.25236218879E+01 -0.51194831518E+01  0.63758794781E+01  0.00000000000E+00 0. -1.
</event>
<event>
 7    1  0.2598019E-009  0.4778727E+02  0.7816164E-02  0.1312668E+00
        -11   -1    0    0    0    0  0.00000000000E+00  0.00000000000E+00  0.45593999997E+02  0.45594000000E+02  0.51100000000E-03 0. -1.
         11   -1    0    0    0    0 -0.00000000000E+00 -0.00000000000E+00 -0.45593999997E+02  0.45594000000E+02  0.51100000000E-03 0.  1.
    9900012    2    1    2    0    0 -0.14378128960E+02  0.13117518475E+02  0.38792053584E+02  0.47787270690E+02  0.19999998386E+02 0.  0.
        -12    1    1    2    0    0  0.14378128960E+02 -0.13117518475E+02 -0.38792053584E+02  0.43400729310E+02  0.00000000000E+00 0.  1.
         11    1    3    3    0    0 -0.76578097263E+01  0.95079110317E+01  0.10052194978E+02  0.15814203936E+02  0.51100000000E-03 0. -1.
        -11    1    3    3    0    0  0.16696223911E+01 -0.17271695981E+01  0.13924654854E+02  0.14130349140E+02  0.51100000000E-03 0.  1.
         12    1    3    3    0    0 -0.83899416246E+01  0.53367770415E+01  0.14815203752E+02  0.17842717614E+02  0.00000000000E+00 0. -1.
</event>
<event>
 7    1  0.2598019E-009  0.4778728E+02  0.7816164E-02  0.1312668E+00
        -11   -1    0    0    0    0  0.00000000000E+00  0.00000000000E+00  0.45593999997E+02  0.45594000000E+02  0.51100000000E-03 0.  1.
         11   -1    0    0    0    0 -0.00000000000E+00 -0.00000000000E+00 -0.45593999997E+02  0.45594000000E+02  0.51100000000E-03 0. -1.
    9900012    2    1    2    0    0 -0.22612163831E+02 -0.35621768263E+01 -0.36873076826E+02  0.47787275911E+02  0.20000022187E+02 0.  0.
        -12    1    1    2    0    0  0.22612163831E+02  0.35621768263E+01  0.36873076826E+02  0.43400724089E+02  0.00000000000E+00 0.  1.
         11    1    3    3    0    0 -0.13398417662E+02  0.25142015865E+01 -0.63277608010E+01  0.15029283498E+02  0.51100000000E-03 0.  1.
        -11    1    3    3    0    0 -0.80735172512E+01 -0.66464236987E+01 -0.25659305086E+02  0.27708420499E+02  0.51100000000E-03 0. -1.
        -12    1    3    3    0    0 -0.11402289183E+01  0.57004528587E+00 -0.48860109384E+01  0.50495719130E+01  0.00000000000E+00 0.  1.
</event>
<event>
 7    1  0.2598019E-009  0.4778723E+02  0.7816164E-02  0.1312668E+00
        -11   -1    0    0    0    0  0.00000000000E+00  0.00000000000E+00  0.45593999997E+02  0.45594000000E+02  0.51100000000E-03 0.  1.
         11   -1    0    0    0    0 -0.00000000000E+00 -0.00000000000E+00 -0.45593999997E+02  0.45594000000E+02  0.51100000000E-03 0. -1.
    9900012    2    1    2    0    0 -0.23109963902E+02 -0.36508983023E+02 -0.40805156450E+01  0.47787229490E+02  0.19999810538E+02 0.  0.
        -12    1    1    2    0    0  0.23109963902E+02  0.36508983023E+02  0.40805156450E+01  0.43400770510E+02  0.00000000000E+00 0.  1.
         11    1    3    3    0    0 -0.66848832699E+01 -0.17188230763E+02 -0.11415556660E+01  0.18477718763E+02  0.51100000000E-03 0. -1.
        -11    1    3    3    0    0 -0.10459279259E+02 -0.27095584045E+01  0.19853664866E+01  0.10985440807E+02  0.51100000000E-03 0.  1.
        -12    1    3    3    0    0 -0.59658013729E+01 -0.16611193855E+02 -0.49243264656E+01  0.18324069921E+02  0.00000000000E+00 0.  1.
</event>
<event>
 7    1  0.2598019E-009  0.4778727E+02  0.7816164E-02  0.1312668E+00
        -11   -1    0    0    0    0  0.00000000000E+00  0.00000000000E+00  0.45593999997E+02  0.45594000000E+02  0.51100000000E-03 0.  1.
         11   -1    0    0    0    0 -0.00000000000E+00 -0.00000000000E+00 -0.45593999997E+02  0.45594000000E+02  0.51100000000E-03 0. -1.
    9900012    2    1    2    0    0 -0.22666569723E+02 -0.31653244743E+01 -0.36875885170E+02  0.47787267643E+02  0.19999984491E+02 0.  0.
        -12    1    1    2    0    0  0.22666569723E+02  0.31653244743E+01  0.36875885170E+02  0.43400732357E+02  0.00000000000E+00 0.  1.
         11    1    3    3    0    0 -0.36732087366E+01 -0.80901986164E+01 -0.11449037710E+02  0.14492213110E+02  0.51100000000E-03 0. -1.
        -11    1    3    3    0    0 -0.57076534122E+01  0.58105762280E+01 -0.10580603887E+02  0.13352500981E+02  0.51100000000E-03 0.  1.
         12    1    3    3    0    0 -0.13285707574E+02 -0.88570208588E+00 -0.14846243573E+02  0.19942553552E+02  0.00000000000E+00 0. -1.
</event>
<event>
 7    1  0.2598019E-009  0.4778728E+02  0.7816164E-02  0.1312668E+00
        -11   -1    0    0    0    0  0.00000000000E+00  0.00000000000E+00  0.45593999997E+02  0.45594000000E+02  0.51100000000E-03 0. -1.
         11   -1    0    0    0    0 -0.00000000000E+00 -0.00000000000E+00 -0.45593999997E+02  0.45594000000E+02  0.51100000000E-03 0.  1.
    9900012    2    1    2    0    0  0.22822889063E+02  0.30796961310E+02  0.20354011482E+02  0.47787275645E+02  0.20000020976E+02 0.  0.
        -12    1    1    2    0    0 -0.22822889063E+02 -0.30796961310E+02 -0.20354011482E+02  0.43400724355E+02  0.00000000000E+00 0.  1.
         11    1    3    3    0    0  0.15650672057E+02  0.25742759891E+02  0.12495244961E+02  0.32615400803E+02  0.51100000000E-03 0. -1.
        -11    1    3    3    0    0  0.72159683706E+01  0.10561383722E+01  0.11798968704E+01  0.73876778945E+01  0.51100000000E-03 0.  1.
         12    1    3    3    0    0 -0.43751365000E-01  0.39980630476E+01  0.66788696502E+01  0.77841969476E+01  0.00000000000E+00 0. -1.
</event>
<event>
 7    1  0.2598019E-009  0.4778727E+02  0.7816164E-02  0.1312668E+00
        -11   -1    0    0    0    0  0.00000000000E+00  0.00000000000E+00  0.45593999997E+02  0.45594000000E+02  0.51100000000E-03 0.  1.
         11   -1    0    0    0    0 -0.00000000000E+00 -0.00000000000E+00 -0.45593999997E+02  0.45594000000E+02  0.51100000000E-03 0. -1.
    9900012    2    1    2    0    0  0.39881515079E+02  0.91378344327E+01 -0.14477152659E+02  0.47787271754E+02  0.20000003237E+02 0.  0.
        -12    1    1    2    0    0 -0.39881515079E+02 -0.91378344327E+01  0.14477152659E+02  0.43400728246E+02  0.00000000000E+00 0.  1.
         11    1    3    3    0    0  0.27703175743E+02  0.38786702521E+01 -0.25522324825E+01  0.28089569596E+02  0.51100000000E-03 0. -1.
        -11    1    3    3    0    0  0.93036405477E+01  0.53269223427E+01 -0.43041278398E+01  0.11552460595E+02  0.51100000000E-03 0.  1.
         12    1    3    3    0    0  0.28746987889E+01 -0.67758162007E-01 -0.76207923363E+01  0.81452415635E+01  0.00000000000E+00 0. -1.
</event>
<event>
 7    1  0.2598019E-009  0.4778727E+02  0.7816164E-02  0.1312668E+00
        -11   -1    0    0    0    0  0.00000000000E+00  0.00000000000E+00  0.45593999997E+02  0.45594000000E+02  0.51100000000E-03 0.  1.
         11   -1    0    0    0    0 -0.00000000000E+00 -0.00000000000E+00 -0.45593999997E+02  0.45594000000E+02  0.51100000000E-03 0. -1.
    9900012    2    1    2    0    0 -0.14479025382E+02  0.12553992609E+01 -0.40895049851E+02  0.47787270679E+02  0.19999998334E+02 0.  0.
        -12    1    1    2    0    0  0.14479025382E+02 -0.12553992609E+01  0.40895049851E+02  0.43400729321E+02  0.00000000000E+00 0.  1.
         11    1    3    3    0    0 -0.88524186642E+01 -0.67624574566E+00 -0.23536397675E+02  0.25155210997E+02  0.51100000000E-03 0. -1.
        -11    1    3    3    0    0 -0.61887805825E+00  0.44937006710E+01 -0.16223649024E+00  0.45390171526E+01  0.51100000000E-03 0.  1.
        -12    1    3    3    0    0 -0.50077286595E+01 -0.25620556645E+01 -0.17196415685E+02  0.18093042529E+02  0.00000000000E+00 0.  1.
</event>
<event>
 7    1  0.2598019E-009  0.4778727E+02  0.7816164E-02  0.1312668E+00
        -11   -1    0    0    0    0  0.00000000000E+00  0.00000000000E+00  0.45593999997E+02  0.45594000000E+02  0.51100000000E-03 0. -1.
         11   -1    0    0    0    0 -0.00000000000E+00 -0.00000000000E+00 -0.45593999997E+02  0.45594000000E+02  0.51100000000E-03 0.  1.
    9900012    2    1    2    0    0  0.12972110474E+02 -0.23630197859E+02  0.34014132523E+02  0.47787272906E+02  0.20000008488E+02 0.  0.
        -12    1    1    2    0    0 -0.12972110474E+02  0.23630197859E+02 -0.34014132523E+02  0.43400727094E+02  0.00000000000E+00 0.  1.
         11    1    3    3    0    0  0.15478369080E+01 -0.38418464587E+01  0.42680783324E+00  0.41638622088E+01  0.51100000000E-03 0. -1.
        -11    1    3    3    0    0 -0.23384180183E+01 -0.11547843409E+02  0.13552887741E+02  0.17958331009E+02  0.51100000000E-03 0.  1.
        -12    1    3    3    0    0  0.13762691584E+02 -0.82405079906E+01  0.20034436949E+02  0.25665079689E+02  0.00000000000E+00 0.  1.
</event>
<event>
 7    1  0.2598019E-009  0.4778727E+02  0.7816164E-02  0.1312668E+00
        -11   -1    0    0    0    0  0.00000000000E+00  0.00000000000E+00  0.45593999997E+02  0.45594000000E+02  0.51100000000E-03 0.  1.
         11   -1    0    0    0    0 -0.00000000000E+00 -0.00000000000E+00 -0.45593999997E+02  0.45594000000E+02  0.51100000000E-03 0. -1.
    9900012    2    1    2    0    0 -0.41223748293E+02  0.15612269978E+01 -0.13482889211E+02  0.47787272419E+02  0.20000006267E+02 0.  0.
        -12    1    1    2    0    0  0.41223748293E+02 -0.15612269978E+01  0.13482889211E+02  0.43400727581E+02  0.00000000000E+00 0.  1.
         11    1    3    3    0    0 -0.14957544619E+01  0.45309525821E+01 -0.61825991224E+00  0.48113468273E+01  0.51100000000E-03 0. -1.
        -11    1    3    3    0    0 -0.88312246647E+01  0.32286917895E+01 -0.17737109665E+01  0.95687528238E+01  0.51100000000E-03 0.  1.
         12    1    3    3    0    0 -0.30896769167E+02 -0.61984173739E+01 -0.11090918333E+02  0.33407172768E+02  0.00000000000E+00 0. -1.
</event>
<event>
 7    1  0.2809032E-009  0.4778727E+02  0.7816164E-02  0.1312668E+00
        -11   -1    0    0    0    0  0.00000000000E+00  0.00000000000E+00  0.45593999997E+02  0.45594000000E+02  0.51100000000E-03 0. -1.
         11   -1    0    0    0    0 -0.00000000000E+00 -0.00000000000E+00 -0.45593999997E+02  0.45594000000E+02  0.51100000000E-03 0.  1.
    9900012    2    1    2    0    0 -0.36937081842E+02 -0.11160467279E+02  0.19867544428E+02  0.47787269977E+02  0.19999995134E+02 0.  0.
        -12    1    1    2    0    0  0.36937081842E+02  0.11160467279E+02 -0.19867544428E+02  0.43400730023E+02  0.00000000000E+00 0.  1.
         11    1    3    3    0    0 -0.33935168804E+02 -0.79555542329E+01  0.10914798639E+02  0.36524229691E+02  0.51100000000E-03 0. -1.
        -11    1    3    3    0    0  0.14700488209E+01 -0.43174915908E+00  0.15383550386E+01  0.21711718859E+01  0.51100000000E-03 0.  1.
         12    1    3    3    0    0 -0.44719618588E+01 -0.27731638874E+01  0.74143907503E+01  0.90918684004E+01  0.00000000000E+00 0. -1.
</event>
<event>
 7    1  0.2598019E-009  0.4778727E+02  0.7816164E-02  0.1312668E+00
        -11   -1    0    0    0    0  0.00000000000E+00  0.00000000000E+00  0.45593999997E+02  0.45594000000E+02  0.51100000000E-03 0.  1.
         11   -1    0    0    0    0 -0.00000000000E+00 -0.00000000000E+00 -0.45593999997E+02  0.45594000000E+02  0.51100000000E-03 0. -1.
    9900012    2    1    2    0    0  0.29003322098E+02  0.21462770976E+02 -0.24120110234E+02  0.47787274794E+02  0.20000017094E+02 0.  0.
        -12    1    1    2    0    0 -0.29003322098E+02 -0.21462770976E+02  0.24120110234E+02  0.43400725206E+02  0.00000000000E+00 0.  1.
         11    1    3    3    0    0  0.23848687667E+02  0.81224271394E+01 -0.10824764782E+02  0.27420963858E+02  0.51100000000E-03 0. -1.
        -11    1    3    3    0    0  0.12399562740E+01  0.10415076547E+02 -0.82720473313E+01  0.13358071655E+02  0.51100000000E-03 0.  1.
         12    1    3    3    0    0  0.39146781578E+01  0.29252672902E+01 -0.50232981214E+01  0.70082392806E+01  0.00000000000E+00 0. -1.
</event>
<event>
 7    1  0.2598019E-009  0.4778728E+02  0.7816164E-02  0.1312668E+00
        -11   -1    0    0    0    0  0.00000000000E+00  0.00000000000E+00  0.45593999997E+02  0.45594000000E+02  0.51100000000E-03 0.  1.
         11   -1    0    0    0    0 -0.00000000000E+00 -0.00000000000E+00 -0.45593999997E+02  0.45594000000E+02  0.51100000000E-03 0. -1.
    9900012    2    1    2    0    0  0.27402771150E+02  0.13094000379E+02 -0.31004158738E+02  0.47787279134E+02  0.20000036885E+02 0.  0.
        -12    1    1    2    0    0 -0.27402771150E+02 -0.13094000379E+02  0.31004158738E+02  0.43400720866E+02  0.00000000000E+00 0.  1.
         11    1    3    3    0    0  0.73962031826E+01  0.82448306859E+01 -0.11032856574E+02  0.15633457039E+02  0.51100000000E-03 0. -1.
        -11    1    3    3    0    0  0.38945793345E+01 -0.27711576601E+00  0.20344237961E+01  0.44026607619E+01  0.51100000000E-03 0.  1.
        -12    1    3    3    0    0  0.16111988633E+02  0.51262854595E+01 -0.22005725960E+02  0.27751161333E+02  0.00000000000E+00 0.  1.
</event>
<event>
 7    1  0.2598019E-009  0.4778733E+02  0.7816164E-02  0.1312668E+00
        -11   -1    0    0    0    0  0.00000000000E+00  0.00000000000E+00  0.45593999997E+02  0.45594000000E+02  0.51100000000E-03 0.  1.
         11   -1    0    0    0    0 -0.00000000000E+00 -0.00000000000E+00 -0.45593999997E+02  0.45594000000E+02  0.51100000000E-03 0. -1.
    9900012    2    1    2    0    0 -0.30937867176E+02 -0.19247388654E+02 -0.23579756843E+02  0.47787325718E+02  0.20000249275E+02 0.  0.
        -12    1    1    2    0    0  0.30937867176E+02  0.19247388654E+02  0.23579756843E+02  0.43400674282E+02  0.00000000000E+00 0.  1.
         11    1    3    3    0    0 -0.15980700977E+02  0.81309269824E+00 -0.93783882893E+01  0.18547185517E+02  0.51100000000E-03 0. -1.
        -11    1    3    3    0    0 -0.14170611247E+02 -0.17749368056E+02 -0.11060967115E+02  0.25262448086E+02  0.51100000000E-03 0.  1.
         12    1    3    3    0    0 -0.78655495212E+00 -0.23111132957E+01 -0.31404014389E+01  0.39776921143E+01  0.00000000000E+00 0. -1.
</event>
<event>
 7    1  0.2598019E-009  0.4778727E+02  0.7816164E-02  0.1312668E+00
        -11   -1    0    0    0    0  0.00000000000E+00  0.00000000000E+00  0.45593999997E+02  0.45594000000E+02  0.51100000000E-03 0.  1.
         11   -1    0    0    0    0 -0.00000000000E+00 -0.00000000000E+00 -0.45593999997E+02  0.45594000000E+02  0.51100000000E-03 0. -1.
    9900012    2    1    2    0    0  0.15468519737E+02 -0.21192442650E+02 -0.34572075330E+02  0.47787272806E+02  0.20000008034E+02 0.  0.
        -12    1    1    2    0    0 -0.15468519737E+02  0.21192442650E+02  0.34572075330E+02  0.43400727194E+02  0.00000000000E+00 0.  1.
         11    1    3    3    0    0  0.15126944085E+02 -0.11168122667E+02 -0.13431987926E+02  0.23107784428E+02  0.51100000000E-03 0. -1.
        -11    1    3    3    0    0  0.20859256686E+01 -0.16382375098E+00 -0.13213265180E+01  0.24746369723E+01  0.51100000000E-03 0.  1.
         12    1    3    3    0    0 -0.17443500170E+01 -0.98604962318E+01 -0.19818760886E+02  0.22204851406E+02  0.00000000000E+00 0. -1.
</event>
<event>
 7    1  0.2598019E-009  0.4778727E+02  0.7816164E-02  0.1312668E+00
        -11   -1    0    0    0    0  0.00000000000E+00  0.00000000000E+00  0.45593999997E+02  0.45594000000E+02  0.51100000000E-03 0.  1.
         11   -1    0    0    0    0 -0.00000000000E+00 -0.00000000000E+00 -0.45593999997E+02  0.45594000000E+02  0.51100000000E-03 0. -1.
    9900012    2    1    2    0    0 -0.13669982671E+02  0.40685476316E+02  0.64379154248E+01  0.47787272307E+02  0.20000005756E+02 0.  0.
        -12    1    1    2    0    0  0.13669982671E+02 -0.40685476316E+02 -0.64379154248E+01  0.43400727693E+02  0.00000000000E+00 0.  1.
         11    1    3    3    0    0 -0.30661166212E+01  0.71478036609E+01  0.64443739850E+00  0.78043236819E+01  0.51100000000E-03 0. -1.
        -11    1    3    3    0    0 -0.10772481325E+02  0.11202314670E+02  0.81044849409E+01  0.17527717601E+02  0.51100000000E-03 0.  1.
        -12    1    3    3    0    0  0.16861527464E+00  0.22335357984E+02 -0.23110069146E+01  0.22455231024E+02  0.00000000000E+00 0.  1.
</event>
<event>
 7    1  0.2598019E-009  0.4778727E+02  0.7816164E-02  0.1312668E+00
        -11   -1    0    0    0    0  0.00000000000E+00  0.00000000000E+00  0.45593999997E+02  0.45594000000E+02  0.51100000000E-03 0. -1.
         11   -1    0    0    0    0 -0.00000000000E+00 -0.00000000000E+00 -0.45593999997E+02  0.45594000000E+02  0.51100000000E-03 0.  1.
    9900012    2    1    2    0    0  0.29161554048E+02 -0.17610804988E+01  0.32095566709E+02  0.47787273723E+02  0.20000012213E+02 0.  0.
        -12    1    1    2    0    0 -0.29161554048E+02  0.17610804988E+01 -0.32095566709E+02  0.43400726277E+02  0.00000000000E+00 0.  1.
         11    1    3    3    0    0  0.54941223368E+01  0.48346273689E+01  0.48010517039E+01  0.87526624391E+01  0.51100000000E-03 0. -1.
        -11    1    3    3    0    0  0.64194227400E+01 -0.83686387744E+01  0.96239676730E+01  0.14278090113E+02  0.51100000000E-03 0.  1.
        -12    1    3    3    0    0  0.17248008971E+02  0.17729309067E+01  0.17670547332E+02  0.24756521171E+02  0.00000000000E+00 0.  1.
</event>
<event>
 7    1  0.2598019E-009  0.4778728E+02  0.7816164E-02  0.1312668E+00
        -11   -1    0    0    0    0  0.00000000000E+00  0.00000000000E+00  0.45593999997E+02  0.45594000000E+02  0.51100000000E-03 0.  1.
         11   -1    0    0    0    0 -0.00000000000E+00 -0.00000000000E+00 -0.45593999997E+02  0.45594000000E+02  0.51100000000E-03 0. -1.
    9900012    2    1    2    0    0 -0.28035275924E+02  0.32453405060E+02  0.66650254947E+01  0.47787276954E+02  0.20000026943E+02 0.  0.
        -12    1    1    2    0    0  0.28035275924E+02 -0.32453405060E+02 -0.66650254947E+01  0.43400723046E+02  0.00000000000E+00 0.  1.
         11    1    3    3    0    0 -0.26493693781E+02  0.28983307406E+02  0.65415267309E+01  0.39808786600E+02  0.51100000000E-03 0. -1.
        -11    1    3    3    0    0  0.15728170818E+01  0.22244135918E+01  0.26334889946E+01  0.37890676882E+01  0.51100000000E-03 0.  1.
         12    1    3    3    0    0 -0.31143992240E+01  0.12456840622E+01 -0.25099902307E+01  0.41894226652E+01  0.00000000000E+00 0. -1.
</event>
<event>
 7    1  0.2598019E-009  0.4778728E+02  0.7816164E-02  0.1312668E+00
        -11   -1    0    0    0    0  0.00000000000E+00  0.00000000000E+00  0.45593999997E+02  0.45594000000E+02  0.51100000000E-03 0.  1.
         11   -1    0    0    0    0 -0.00000000000E+00 -0.00000000000E+00 -0.45593999997E+02  0.45594000000E+02  0.51100000000E-03 0. -1.
    9900012    2    1    2    0    0 -0.73310064842E+01  0.15192457132E+02 -0.39988354588E+02  0.47787275208E+02  0.20000018984E+02 0.  0.
        -12    1    1    2    0    0  0.73310064842E+01 -0.15192457132E+02  0.39988354588E+02  0.43400724792E+02  0.00000000000E+00 0.  1.
         11    1    3    3    0    0  0.14293887277E+01  0.47677496010E+00 -0.20615818572E+02  0.20670811357E+02  0.51100000000E-03 0.  1.
        -11    1    3    3    0    0 -0.54392224965E+01  0.81982852000E+01 -0.51074461145E+01  0.11085261732E+02  0.51100000000E-03 0. -1.
         12    1    3    3    0    0 -0.33211727154E+01  0.65173969717E+01 -0.14265089902E+02  0.16031202119E+02  0.00000000000E+00 0. -1.
</event>
<event>
 7    1  0.2598019E-009  0.4778727E+02  0.7816164E-02  0.1312668E+00
        -11   -1    0    0    0    0  0.00000000000E+00  0.00000000000E+00  0.45593999997E+02  0.45594000000E+02  0.51100000000E-03 0. -1.
         11   -1    0    0    0    0 -0.00000000000E+00 -0.00000000000E+00 -0.45593999997E+02  0.45594000000E+02  0.51100000000E-03 0.  1.
    9900012    2    1    2    0    0 -0.22427394282E+02  0.28840769977E+02  0.23427440058E+02  0.47787274490E+02  0.20000015709E+02 0.  0.
        -12    1    1    2    0    0  0.22427394282E+02 -0.28840769977E+02 -0.23427440058E+02  0.43400725510E+02  0.00000000000E+00 0.  1.
         11    1    3    3    0    0 -0.10525819104E+01  0.96607819392E+00  0.29829479477E+01  0.33074483329E+01  0.51100000000E-03 0. -1.
        -11    1    3    3    0    0 -0.21295001799E+02  0.23762081350E+02  0.23267956198E+02  0.39490649495E+02  0.51100000000E-03 0.  1.
        -12    1    3    3    0    0 -0.79810572839E-01  0.41126104334E+01 -0.28234640880E+01  0.49891766615E+01  0.00000000000E+00 0.  1.
</event>
<event>
 7    1  0.2598019E-009  0.4778728E+02  0.7816164E-02  0.1312668E+00
        -11   -1    0    0    0    0  0.00000000000E+00  0.00000000000E+00  0.45593999997E+02  0.45594000000E+02  0.51100000000E-03 0. -1.
         11   -1    0    0    0    0 -0.00000000000E+00 -0.00000000000E+00 -0.45593999997E+02  0.45594000000E+02  0.51100000000E-03 0.  1.
    9900012    2    1    2    0    0  0.28525912134E+02  0.21784648446E+02  0.24399252161E+02  0.47787284833E+02  0.20000062867E+02 0.  0.
        -12    1    1    2    0    0 -0.28525912134E+02 -0.21784648446E+02 -0.24399252161E+02  0.43400715167E+02  0.00000000000E+00 0.  1.
         11    1    3    3    0    0  0.18102223453E+00 -0.27061391977E+00  0.60855650726E+01  0.60942680821E+01  0.51100000000E-03 0.  1.
        -11    1    3    3    0    0  0.19346219848E+02  0.15992451811E+02  0.70914516531E+01  0.26083010259E+02  0.51100000000E-03 0. -1.
         12    1    3    3    0    0  0.89986700514E+01  0.60628105545E+01  0.11222235435E+02  0.15610006492E+02  0.00000000000E+00 0. -1.
</event>
<event>
 7    1  0.2598019E-009  0.4778727E+02  0.7816164E-02  0.1312668E+00
        -11   -1    0    0    0    0  0.00000000000E+00  0.00000000000E+00  0.45593999997E+02  0.45594000000E+02  0.51100000000E-03 0.  1.
         11   -1    0    0    0    0 -0.00000000000E+00 -0.00000000000E+00 -0.45593999997E+02  0.45594000000E+02  0.51100000000E-03 0. -1.
    9900012    2    1    2    0    0  0.30833154507E+01  0.36290621301E+02 -0.23603119732E+02  0.47787270862E+02  0.19999999168E+02 0.  0.
        -12    1    1    2    0    0 -0.30833154507E+01 -0.36290621301E+02  0.23603119732E+02  0.43400729138E+02  0.00000000000E+00 0.  1.
         11    1    3    3    0    0 -0.62895792439E+00  0.57152248686E+00  0.27178197761E+01  0.28475903182E+01  0.51100000000E-03 0. -1.
        -11    1    3    3    0    0  0.40348287890E+01  0.12063688727E+02 -0.10300933543E+02  0.16368312717E+02  0.51100000000E-03 0.  1.
         12    1    3    3    0    0 -0.32255541397E+00  0.23655410087E+02 -0.16020005965E+02  0.28571367827E+02  0.00000000000E+00 0. -1.
</event>
<event>
 7    1  0.2598019E-009  0.4778729E+02  0.7816164E-02  0.1312668E+00
        -11   -1    0    0    0    0  0.00000000000E+00  0.00000000000E+00  0.45593999997E+02  0.45594000000E+02  0.51100000000E-03 0.  1.
         11   -1    0    0    0    0 -0.00000000000E+00 -0.00000000000E+00 -0.45593999997E+02  0.45594000000E+02  0.51100000000E-03 0. -1.
    9900012    2    1    2    0    0 -0.25176900410E+02 -0.11185381509E+02 -0.33535545061E+02  0.47787287376E+02  0.20000074463E+02 0.  0.
        -12    1    1    2    0    0  0.25176900410E+02  0.11185381509E+02  0.33535545061E+02  0.43400712624E+02  0.00000000000E+00 0.  1.
         11    1    3    3    0    0 -0.17924239091E+02 -0.57286299241E+01 -0.14713062088E+02  0.23886601769E+02  0.51100000000E-03 0.  1.
        -11    1    3    3    0    0 -0.50927171040E+01 -0.10898647938E+00 -0.17157474178E+02  0.17897669289E+02  0.51100000000E-03 0. -1.
         12    1    3    3    0    0 -0.21599442147E+01 -0.53477651052E+01 -0.16650087952E+01  0.60030163184E+01  0.00000000000E+00 0. -1.
</event>
<event>
 7    1  0.2598019E-009  0.4778727E+02  0.7816164E-02  0.1312668E+00
        -11   -1    0    0    0    0  0.00000000000E+00  0.00000000000E+00  0.45593999997E+02  0.45594000000E+02  0.51100000000E-03 0.  1.
         11   -1    0    0    0    0 -0.00000000000E+00 -0.00000000000E+00 -0.45593999997E+02  0.45594000000E+02  0.51100000000E-03 0. -1.
    9900012    2    1    2    0    0 -0.10288549387E+02  0.29249046809E+00 -0.42162582815E+02  0.47787272024E+02  0.20000004468E+02 0.  0.
        -12    1    1    2    0    0  0.10288549387E+02 -0.29249046809E+00  0.42162582815E+02  0.43400727976E+02  0.00000000000E+00 0.  1.
         11    1    3    3    0    0 -0.16283039999E+01  0.55936785819E+01 -0.22404660676E+02  0.23149717801E+02  0.51100000000E-03 0. -1.
        -11    1    3    3    0    0 -0.64025280656E+01 -0.82592776519E+01 -0.11268586165E+02  0.15368443883E+02  0.51100000000E-03 0.  1.
        -12    1    3    3    0    0 -0.22577173215E+01  0.29580895380E+01 -0.84893359746E+01  0.92691103407E+01  0.00000000000E+00 0.  1.
</event>
<event>
 7    1  0.2598019E-009  0.4778727E+02  0.7816164E-02  0.1312668E+00
        -11   -1    0    0    0    0  0.00000000000E+00  0.00000000000E+00  0.45593999997E+02  0.45594000000E+02  0.51100000000E-03 0. -1.
         11   -1    0    0    0    0 -0.00000000000E+00 -0.00000000000E+00 -0.45593999997E+02  0.45594000000E+02  0.51100000000E-03 0.  1.
    9900012    2    1    2    0    0  0.45717427192E+01  0.19373587622E+02  0.38566650661E+02  0.47787271066E+02  0.20000000096E+02 0.  0.
        -12    1    1    2    0    0 -0.45717427192E+01 -0.19373587622E+02 -0.38566650661E+02  0.43400728934E+02  0.00000000000E+00 0.  1.
         11    1    3    3    0    0  0.69225228494E+00  0.11181996802E+01 -0.14864516058E+01  0.19847222446E+01  0.51100000000E-03 0.  1.
        -11    1    3    3    0    0 -0.26587728950E+01  0.81992726789E+01  0.25646436685E+02  0.27056179713E+02  0.51100000000E-03 0. -1.
         12    1    3    3    0    0  0.65382633292E+01  0.10056115263E+02  0.14406665582E+02  0.18746369108E+02  0.00000000000E+00 0. -1.
</event>
<event>
 7    1  0.2598019E-009  0.4778727E+02  0.7816164E-02  0.1312668E+00
        -11   -1    0    0    0    0  0.00000000000E+00  0.00000000000E+00  0.45593999997E+02  0.45594000000E+02  0.51100000000E-03 0.  1.
         11   -1    0    0    0    0 -0.00000000000E+00 -0.00000000000E+00 -0.45593999997E+02  0.45594000000E+02  0.51100000000E-03 0. -1.
    9900012    2    1    2    0    0  0.27089245654E+02 -0.19099571038E+02 -0.28017892768E+02  0.47787272367E+02  0.20000006029E+02 0.  0.
        -12    1    1    2    0    0 -0.27089245654E+02  0.19099571038E+02  0.28017892768E+02  0.43400727633E+02  0.00000000000E+00 0.  1.
         11    1    3    3    0    0  0.14076116785E+02 -0.10922419777E+02 -0.22357780212E+02  0.28588575582E+02  0.51100000000E-03 0. -1.
        -11    1    3    3    0    0  0.82916838053E+01 -0.20649061735E+01  0.14897969297E+01  0.86738315055E+01  0.51100000000E-03 0.  1.
        -12    1    3    3    0    0  0.47214450638E+01 -0.61122450875E+01 -0.71499094854E+01  0.10524865279E+02  0.00000000000E+00 0.  1.
</event>
<event>
 7    1  0.2598019E-009  0.4778727E+02  0.7816164E-02  0.1312668E+00
        -11   -1    0    0    0    0  0.00000000000E+00  0.00000000000E+00  0.45593999997E+02  0.45594000000E+02  0.51100000000E-03 0.  1.
         11   -1    0    0    0    0 -0.00000000000E+00 -0.00000000000E+00 -0.45593999997E+02  0.45594000000E+02  0.51100000000E-03 0. -1.
    9900012    2    1    2    0    0 -0.19004069323E+02 -0.25868503623E+02 -0.29211117622E+02  0.47787268171E+02  0.19999986900E+02 0.  0.
        -12    1    1    2    0    0  0.19004069323E+02  0.25868503623E+02  0.29211117622E+02  0.43400731829E+02  0.00000000000E+00 0.  1.
         11    1    3    3    0    0 -0.60563152069E+01 -0.53493325978E+01 -0.91283389970E+01  0.12191016620E+02  0.51100000000E-03 0. -1.
        -11    1    3    3    0    0 -0.16836533661E+02 -0.18062747402E+02 -0.15825512004E+02  0.29328800519E+02  0.51100000000E-03 0.  1.
        -12    1    3    3    0    0  0.38887795445E+01 -0.24564236234E+01 -0.42572666206E+01  0.62674510323E+01  0.00000000000E+00 0.  1.
</event>
<event>
 7    1  0.2598019E-009  0.4778727E+02  0.7816164E-02  0.1312668E+00
        -11   -1    0    0    0    0  0.00000000000E+00  0.00000000000E+00  0.45593999997E+02  0.45594000000E+02  0.51100000000E-03 0. -1.
         11   -1    0    0    0    0 -0.00000000000E+00 -0.00000000000E+00 -0.45593999997E+02  0.45594000000E+02  0.51100000000E-03 0.  1.
    9900012    2    1    2    0    0 -0.87081331507E+01  0.26453325707E+02  0.33286834565E+02  0.47787269830E+02  0.19999994463E+02 0.  0.
        -12    1    1    2    0    0  0.87081331507E+01 -0.26453325707E+02 -0.33286834565E+02  0.43400730170E+02  0.00000000000E+00 0.  1.
         11    1    3    3    0    0  0.33394584648E+01  0.13553287886E+02  0.91101075327E+01  0.16668462883E+02  0.51100000000E-03 0. -1.
        -11    1    3    3    0    0 -0.93709005013E+01  0.77636198176E+01  0.21572776416E+02  0.24768371998E+02  0.51100000000E-03 0.  1.
        -12    1    3    3    0    0 -0.26766911143E+01  0.51364180033E+01  0.26039506158E+01  0.63504349485E+01  0.00000000000E+00 0.  1.
</event>
<event>
 7    1  0.2598019E-009  0.4778728E+02  0.7816164E-02  0.1312668E+00
        -11   -1    0    0    0    0  0.00000000000E+00  0.00000000000E+00  0.45593999997E+02  0.45594000000E+02  0.51100000000E-03 0. -1.
         11   -1    0    0    0    0 -0.00000000000E+00 -0.00000000000E+00 -0.45593999997E+02  0.45594000000E+02  0.51100000000E-03 0.  1.
    9900012    2    1    2    0    0 -0.23681606671E+02 -0.17044799887E+01  0.36330408804E+02  0.47787281683E+02  0.20000048507E+02 0.  0.
        -12    1    1    2    0    0  0.23681606671E+02  0.17044799887E+01 -0.36330408804E+02  0.43400718317E+02  0.00000000000E+00 0.  1.
         11    1    3    3    0    0 -0.48787203450E+01 -0.53963939176E+01  0.14149198111E+01  0.74111387688E+01  0.51100000000E-03 0.  1.
        -11    1    3    3    0    0 -0.11132737462E+02  0.31537003073E+01  0.14436331163E+02  0.18501116905E+02  0.51100000000E-03 0. -1.
         12    1    3    3    0    0 -0.76701488644E+01  0.53821362155E+00  0.20479157830E+02  0.21875026010E+02  0.00000000000E+00 0. -1.
</event>
<event>
 7    1  0.2598019E-009  0.4778727E+02  0.7816164E-02  0.1312668E+00
        -11   -1    0    0    0    0  0.00000000000E+00  0.00000000000E+00  0.45593999997E+02  0.45594000000E+02  0.51100000000E-03 0.  1.
         11   -1    0    0    0    0 -0.00000000000E+00 -0.00000000000E+00 -0.45593999997E+02  0.45594000000E+02  0.51100000000E-03 0. -1.
    9900012    2    1    2    0    0 -0.23501182352E+02 -0.15897822984E+01 -0.36452582462E+02  0.47787265584E+02  0.19999975102E+02 0.  0.
        -12    1    1    2    0    0  0.23501182352E+02  0.15897822984E+01  0.36452582462E+02  0.43400734416E+02  0.00000000000E+00 0.  1.
         11    1    3    3    0    0 -0.42900132119E+01 -0.84124474530E+01 -0.11807355500E+02  0.15119098176E+02  0.51100000000E-03 0. -1.
        -11    1    3    3    0    0  0.45018603419E-01  0.10161976914E+01 -0.27763797276E+01  0.29568512096E+01  0.51100000000E-03 0.  1.
         12    1    3    3    0    0 -0.19256187744E+02  0.58064674633E+01 -0.21868847235E+02  0.29711316198E+02  0.00000000000E+00 0. -1.
</event>
<event>
 7    1  0.2598019E-009  0.4778727E+02  0.7816164E-02  0.1312668E+00
        -11   -1    0    0    0    0  0.00000000000E+00  0.00000000000E+00  0.45593999997E+02  0.45594000000E+02  0.51100000000E-03 0.  1.
         11   -1    0    0    0    0 -0.00000000000E+00 -0.00000000000E+00 -0.45593999997E+02  0.45594000000E+02  0.51100000000E-03 0. -1.
    9900012    2    1    2    0    0  0.37700430526E+02 -0.16883110744E+02 -0.13313959611E+02  0.47787269467E+02  0.19999992809E+02 0.  0.
        -12    1    1    2    0    0 -0.37700430526E+02  0.16883110744E+02  0.13313959611E+02  0.43400730533E+02  0.00000000000E+00 0.  1.
         11    1    3    3    0    0  0.27232178844E+01 -0.49758624341E+01 -0.43633545410E+01  0.71563947432E+01  0.51100000000E-03 0. -1.
        -11    1    3    3    0    0  0.35985688431E+01 -0.55804165207E+01 -0.51353199637E+01  0.83941799870E+01  0.51100000000E-03 0.  1.
         12    1    3    3    0    0  0.31378643799E+02 -0.63268317890E+01 -0.38152851066E+01  0.32236694737E+02  0.00000000000E+00 0. -1.
</event>
<event>
 7    1  0.2598019E-009  0.4778727E+02  0.7816164E-02  0.1312668E+00
        -11   -1    0    0    0    0  0.00000000000E+00  0.00000000000E+00  0.45593999997E+02  0.45594000000E+02  0.51100000000E-03 0.  1.
         11   -1    0    0    0    0 -0.00000000000E+00 -0.00000000000E+00 -0.45593999997E+02  0.45594000000E+02  0.51100000000E-03 0. -1.
    9900012    2    1    2    0    0 -0.27432124575E+02 -0.32769614472E+02 -0.75666441799E+01  0.47787271948E+02  0.20000004119E+02 0.  0.
        -12    1    1    2    0    0  0.27432124575E+02  0.32769614472E+02  0.75666441799E+01  0.43400728052E+02  0.00000000000E+00 0.  1.
         11    1    3    3    0    0 -0.16545729502E+02 -0.14629098351E+02 -0.10213634543E+02  0.24332899831E+02  0.51100000000E-03 0. -1.
        -11    1    3    3    0    0 -0.64365870408E+01 -0.17584821500E+02  0.29634838913E+01  0.18958845876E+02  0.51100000000E-03 0.  1.
         12    1    3    3    0    0 -0.44498080317E+01 -0.55569462098E+00 -0.31649352798E+00  0.44955262410E+01  0.00000000000E+00 0. -1.
</event>
<event>
 7    1  0.2598019E-009  0.4778727E+02  0.7816164E-02  0.1312668E+00
        -11   -1    0    0    0    0  0.00000000000E+00  0.00000000000E+00  0.45593999997E+02  0.45594000000E+02  0.51100000000E-03 0.  1.
         11   -1    0    0    0    0 -0.00000000000E+00 -0.00000000000E+00 -0.45593999997E+02  0.45594000000E+02  0.51100000000E-03 0. -1.
    9900012    2    1    2    0    0  0.19519418959E+02 -0.87035422571E+01 -0.37773852106E+02  0.47787271121E+02  0.20000000348E+02 0.  0.
        -12    1    1    2    0    0 -0.19519418959E+02  0.87035422571E+01  0.37773852106E+02  0.43400728879E+02  0.00000000000E+00 0.  1.
         11    1    3    3    0    0  0.65350262112E+01  0.28854151958E+01 -0.52802422820E+01  0.88833072249E+01  0.51100000000E-03 0. -1.
        -11    1    3    3    0    0  0.72156277347E+01  0.12361138365E+01 -0.10563464060E+02  0.12852238491E+02  0.51100000000E-03 0.  1.
         12    1    3    3    0    0  0.57687650136E+01 -0.12825071289E+02 -0.21930145763E+02  0.26051725405E+02  0.00000000000E+00 0. -1.
</event>
<event>
 7    1  0.2598019E-009  0.4778727E+02  0.7816164E-02  0.1312668E+00
        -11   -1    0    0    0    0  0.00000000000E+00  0.00000000000E+00  0.45593999997E+02  0.45594000000E+02  0.51100000000E-03 0. -1.
         11   -1    0    0    0    0 -0.00000000000E+00 -0.00000000000E+00 -0.45593999997E+02  0.45594000000E+02  0.51100000000E-03 0.  1.
    9900012    2    1    2    0    0  0.20440692906E+02 -0.31950454959E+02  0.21094306568E+02  0.47787271111E+02  0.20000000302E+02 0.  0.
        -12    1    1    2    0    0 -0.20440692906E+02  0.31950454959E+02 -0.21094306568E+02  0.43400728889E+02  0.00000000000E+00 0.  1.
         11    1    3    3    0    0  0.15994462154E+02 -0.15885451544E+02  0.16944876721E+02  0.28201050294E+02  0.51100000000E-03 0. -1.
        -11    1    3    3    0    0  0.20330190117E+01 -0.16543335444E+02  0.38617000944E+01  0.17109291096E+02  0.51100000000E-03 0.  1.
        -12    1    3    3    0    0  0.24132117403E+01  0.47833202848E+00  0.28772975249E+00  0.24769297211E+01  0.00000000000E+00 0.  1.
</event>
<event>
 7    1  0.2598019E-009  0.4778727E+02  0.7816164E-02  0.1312668E+00
        -11   -1    0    0    0    0  0.00000000000E+00  0.00000000000E+00  0.45593999997E+02  0.45594000000E+02  0.51100000000E-03 0.  1.
         11   -1    0    0    0    0 -0.00000000000E+00 -0.00000000000E+00 -0.45593999997E+02  0.45594000000E+02  0.51100000000E-03 0. -1.
    9900012    2    1    2    0    0 -0.19524291702E+02 -0.73877261871E+01 -0.38050582304E+02  0.47787270993E+02  0.19999999764E+02 0.  0.
        -12    1    1    2    0    0  0.19524291702E+02  0.73877261871E+01  0.38050582304E+02  0.43400729007E+02  0.00000000000E+00 0.  1.
         11    1    3    3    0    0 -0.23697313553E+01 -0.78879307392E+01 -0.14449655631E+02  0.16632126327E+02  0.51100000000E-03 0. -1.
        -11    1    3    3    0    0 -0.18516061019E+02 -0.14494180007E+00 -0.23013914576E+02  0.29538208953E+02  0.51100000000E-03 0.  1.
        -12    1    3    3    0    0  0.13615006725E+01  0.64514635215E+00 -0.58701209719E+00  0.16169357127E+01  0.00000000000E+00 0.  1.
</event>
<event>
 7    1  0.2598019E-009  0.4778727E+02  0.7816164E-02  0.1312668E+00
        -11   -1    0    0    0    0  0.00000000000E+00  0.00000000000E+00  0.45593999997E+02  0.45594000000E+02  0.51100000000E-03 0.  1.
         11   -1    0    0    0    0 -0.00000000000E+00 -0.00000000000E+00 -0.45593999997E+02  0.45594000000E+02  0.51100000000E-03 0. -1.
    9900012    2    1    2    0    0 -0.15597571878E+02  0.35645037527E+02 -0.19229415932E+02  0.47787269754E+02  0.19999994118E+02 0.  0.
        -12    1    1    2    0    0  0.15597571878E+02 -0.35645037527E+02  0.19229415932E+02  0.43400730246E+02  0.00000000000E+00 0.  1.
         11    1    3    3    0    0 -0.97321799500E+00  0.18194440822E+02 -0.14519793589E+02  0.23298266807E+02  0.51100000000E-03 0. -1.
        -11    1    3    3    0    0 -0.10733972070E+01  0.62520236474E+01 -0.22940191848E+00  0.63476457647E+01  0.51100000000E-03 0.  1.
         12    1    3    3    0    0 -0.13550956676E+02  0.11198573058E+02 -0.44802204239E+01  0.18141357182E+02  0.00000000000E+00 0. -1.
</event>
<event>
 7    1  0.2598019E-009  0.4778728E+02  0.7816164E-02  0.1312668E+00
        -11   -1    0    0    0    0  0.00000000000E+00  0.00000000000E+00  0.45593999997E+02  0.45594000000E+02  0.51100000000E-03 0.  1.
         11   -1    0    0    0    0 -0.00000000000E+00 -0.00000000000E+00 -0.45593999997E+02  0.45594000000E+02  0.51100000000E-03 0. -1.
    9900012    2    1    2    0    0 -0.27211917833E+02 -0.13071444333E+02 -0.31181272342E+02  0.47787275651E+02  0.20000021005E+02 0.  0.
        -12    1    1    2    0    0  0.27211917833E+02  0.13071444333E+02  0.31181272342E+02  0.43400724349E+02  0.00000000000E+00 0.  1.
         11    1    3    3    0    0 -0.15576610033E+02 -0.44603701473E+01 -0.53188591111E+01  0.17053326493E+02  0.51100000000E-03 0. -1.
        -11    1    3    3    0    0 -0.89867842628E+01 -0.97951893790E+01 -0.23471946960E+02  0.26974809003E+02  0.51100000000E-03 0.  1.
        -12    1    3    3    0    0 -0.26485235373E+01  0.11841151937E+01 -0.23904662705E+01  0.37591401557E+01  0.00000000000E+00 0.  1.
</event>
<event>
 7    1  0.2598019E-009  0.4778727E+02  0.7816164E-02  0.1312668E+00
        -11   -1    0    0    0    0  0.00000000000E+00  0.00000000000E+00  0.45593999997E+02  0.45594000000E+02  0.51100000000E-03 0.  1.
         11   -1    0    0    0    0 -0.00000000000E+00 -0.00000000000E+00 -0.45593999997E+02  0.45594000000E+02  0.51100000000E-03 0. -1.
    9900012    2    1    2    0    0 -0.54889269697E+00  0.25942328793E+02 -0.34789617549E+02  0.47787271947E+02  0.20000004114E+02 0.  0.
        -12    1    1    2    0    0  0.54889269697E+00 -0.25942328793E+02  0.34789617549E+02  0.43400728053E+02  0.00000000000E+00 0.  1.
         11    1    3    3    0    0  0.49544325315E+01  0.15402313538E+01 -0.10145109085E+02  0.11394821321E+02  0.51100000000E-03 0. -1.
        -11    1    3    3    0    0 -0.96892577098E+00  0.20537189519E+02 -0.21096190187E+02  0.29457837856E+02  0.51100000000E-03 0.  1.
        -12    1    3    3    0    0 -0.45343994575E+01  0.38649079198E+01 -0.35483182758E+01  0.69346127689E+01  0.00000000000E+00 0.  1.
</event>
<event>
 7    1  0.2598019E-009  0.4778727E+02  0.7816164E-02  0.1312668E+00
        -11   -1    0    0    0    0  0.00000000000E+00  0.00000000000E+00  0.45593999997E+02  0.45594000000E+02  0.51100000000E-03 0.  1.
         11   -1    0    0    0    0 -0.00000000000E+00 -0.00000000000E+00 -0.45593999997E+02  0.45594000000E+02  0.51100000000E-03 0. -1.
    9900012    2    1    2    0    0 -0.10892908451E+02 -0.17414147551E+02 -0.38232387348E+02  0.47787269226E+02  0.19999991708E+02 0.  0.
        -12    1    1    2    0    0  0.10892908451E+02  0.17414147551E+02  0.38232387348E+02  0.43400730774E+02  0.00000000000E+00 0.  1.
         11    1    3    3    0    0 -0.10980022736E+02 -0.15230505494E+02 -0.20541505962E+02  0.27829528640E+02  0.51100000000E-03 0. -1.
        -11    1    3    3    0    0  0.45026245620E+01 -0.16109022804E+01 -0.88836395663E+01  0.10088988369E+02  0.51100000000E-03 0.  1.
        -12    1    3    3    0    0 -0.44155102768E+01 -0.57273977715E+00 -0.88072418188E+01  0.98687522166E+01  0.00000000000E+00 0.  1.
</event>
<event>
 7    1  0.2598019E-009  0.4778727E+02  0.7816164E-02  0.1312668E+00
        -11   -1    0    0    0    0  0.00000000000E+00  0.00000000000E+00  0.45593999997E+02  0.45594000000E+02  0.51100000000E-03 0. -1.
         11   -1    0    0    0    0 -0.00000000000E+00 -0.00000000000E+00 -0.45593999997E+02  0.45594000000E+02  0.51100000000E-03 0.  1.
    9900012    2    1    2    0    0  0.24598305958E+02 -0.24936299426E+02 -0.25626697067E+02  0.47787270886E+02  0.19999999277E+02 0.  0.
        -12    1    1    2    0    0 -0.24598305958E+02  0.24936299426E+02  0.25626697067E+02  0.43400729114E+02  0.00000000000E+00 0.  1.
         11    1    3    3    0    0  0.12316364161E+02  0.10207185309E+00 -0.64624545892E+01  0.13909225873E+02  0.51100000000E-03 0. -1.
        -11    1    3    3    0    0  0.10835246417E+02 -0.20718499574E+02 -0.16084765899E+02  0.28379191035E+02  0.51100000000E-03 0.  1.
         12    1    3    3    0    0  0.14466953802E+01 -0.43198717051E+01 -0.30794765794E+01  0.54988539783E+01  0.00000000000E+00 0. -1.
</event>
<event>
 7    1  0.2598019E-009  0.4778727E+02  0.7816164E-02  0.1312668E+00
        -11   -1    0    0    0    0  0.00000000000E+00  0.00000000000E+00  0.45593999997E+02  0.45594000000E+02  0.51100000000E-03 0.  1.
         11   -1    0    0    0    0 -0.00000000000E+00 -0.00000000000E+00 -0.45593999997E+02  0.45594000000E+02  0.51100000000E-03 0. -1.
    9900012    2    1    2    0    0  0.42685200110E+02  0.36620271390E+01 -0.69416490064E+01  0.47787271410E+02  0.20000001666E+02 0.  0.
        -12    1    1    2    0    0 -0.42685200110E+02 -0.36620271390E+01  0.69416490064E+01  0.43400728590E+02  0.00000000000E+00 0.  1.
         11    1    3    3    0    0  0.63570808593E+00  0.42286543158E+01  0.61579547307E+00  0.43202831410E+01  0.51100000000E-03 0. -1.
        -11    1    3    3    0    0  0.96295061359E+01 -0.30004976927E+01 -0.36296645106E+01  0.10719367497E+02  0.51100000000E-03 0.  1.
         12    1    3    3    0    0  0.32419985889E+02  0.24338705159E+01 -0.39277799689E+01  0.32747620771E+02  0.00000000000E+00 0. -1.
</event>
<event>
 7    1  0.2598019E-009  0.4778728E+02  0.7816164E-02  0.1312668E+00
        -11   -1    0    0    0    0  0.00000000000E+00  0.00000000000E+00  0.45593999997E+02  0.45594000000E+02  0.51100000000E-03 0.  1.
         11   -1    0    0    0    0 -0.00000000000E+00 -0.00000000000E+00 -0.45593999997E+02  0.45594000000E+02  0.51100000000E-03 0. -1.
    9900012    2    1    2    0    0 -0.26006264189E+02 -0.32462107818E+02 -0.12389854013E+02  0.47787277615E+02  0.20000029959E+02 0.  0.
        -12    1    1    2    0    0  0.26006264189E+02  0.32462107818E+02  0.12389854013E+02  0.43400722385E+02  0.00000000000E+00 0.  1.
         11    1    3    3    0    0 -0.13015908041E+02 -0.57613909456E+01 -0.67359750110E+01  0.15747407640E+02  0.51100000000E-03 0. -1.
        -11    1    3    3    0    0 -0.75212986994E+01 -0.13530397461E+02  0.23949660473E+01  0.15664528471E+02  0.51100000000E-03 0.  1.
        -12    1    3    3    0    0 -0.54690574489E+01 -0.13170319411E+02 -0.80488450492E+01  0.16375341505E+02  0.00000000000E+00 0.  1.
</event>
<event>
 7    1  0.2598019E-009  0.4778723E+02  0.7816164E-02  0.1312668E+00
        -11   -1    0    0    0    0  0.00000000000E+00  0.00000000000E+00  0.45593999997E+02  0.45594000000E+02  0.51100000000E-03 0.  1.
         11   -1    0    0    0    0 -0.00000000000E+00 -0.00000000000E+00 -0.45593999997E+02  0.45594000000E+02  0.51100000000E-03 0. -1.
    9900012    2    1    2    0    0  0.15127634379E+02  0.85178789086E+01 -0.39777225550E+02  0.47787225175E+02  0.19999790860E+02 0.  0.
        -12    1    1    2    0    0 -0.15127634379E+02 -0.85178789086E+01  0.39777225550E+02  0.43400774825E+02  0.00000000000E+00 0.  1.
         11    1    3    3    0    0 -0.28908239951E+01 -0.18506384231E+01 -0.88716957143E+01  0.95125554428E+01  0.51100000000E-03 0. -1.
        -11    1    3    3    0    0  0.13528892491E+02  0.80575884064E+01 -0.28759419754E+02  0.32788105889E+02  0.51100000000E-03 0.  1.
        -12    1    3    3    0    0  0.44895658833E+01  0.23109289253E+01 -0.21461100817E+01  0.54865638428E+01  0.00000000000E+00 0.  1.
</event>
<event>
 7    1  0.2598019E-009  0.4778727E+02  0.7816164E-02  0.1312668E+00
        -11   -1    0    0    0    0  0.00000000000E+00  0.00000000000E+00  0.45593999997E+02  0.45594000000E+02  0.51100000000E-03 0.  1.
         11   -1    0    0    0    0 -0.00000000000E+00 -0.00000000000E+00 -0.45593999997E+02  0.45594000000E+02  0.51100000000E-03 0. -1.
    9900012    2    1    2    0    0  0.24717805057E+02 -0.75835814779E+01 -0.34858897958E+02  0.47787270032E+02  0.19999995385E+02 0.  0.
        -12    1    1    2    0    0 -0.24717805057E+02  0.75835814779E+01  0.34858897958E+02  0.43400729968E+02  0.00000000000E+00 0.  1.
         11    1    3    3    0    0  0.12036873716E+01 -0.25880035096E+00  0.91551984086E+00  0.15342808577E+01  0.51100000000E-03 0. -1.
        -11    1    3    3    0    0  0.55235378844E+01  0.37415981993E+01 -0.31250126509E+01  0.73671386694E+01  0.51100000000E-03 0.  1.
        -12    1    3    3    0    0  0.17990579801E+02 -0.11066379326E+02 -0.32649405148E+02  0.38885850505E+02  0.00000000000E+00 0.  1.
</event>
<event>
 7    1  0.2598019E-009  0.4778728E+02  0.7816164E-02  0.1312668E+00
        -11   -1    0    0    0    0  0.00000000000E+00  0.00000000000E+00  0.45593999997E+02  0.45594000000E+02  0.51100000000E-03 0.  1.
         11   -1    0    0    0    0 -0.00000000000E+00 -0.00000000000E+00 -0.45593999997E+02  0.45594000000E+02  0.51100000000E-03 0. -1.
    9900012    2    1    2    0    0 -0.23184533020E+02 -0.24045376877E+02 -0.27711366144E+02  0.47787279567E+02  0.20000038859E+02 0.  0.
        -12    1    1    2    0    0  0.23184533020E+02  0.24045376877E+02  0.27711366144E+02  0.43400720433E+02  0.00000000000E+00 0.  1.
         11    1    3    3    0    0 -0.15264879899E+02 -0.11696487221E+02 -0.99275383758E+01  0.21642097636E+02  0.51100000000E-03 0. -1.
        -11    1    3    3    0    0  0.14384632655E+01 -0.61112488071E+01 -0.11895193558E+02  0.13450359422E+02  0.51100000000E-03 0.  1.
        -12    1    3    3    0    0 -0.93581163860E+01 -0.62376408493E+01 -0.58886342106E+01  0.12694822509E+02  0.00000000000E+00 0.  1.
</event>
<event>
 7    1  0.2598019E-009  0.4778727E+02  0.7816164E-02  0.1312668E+00
        -11   -1    0    0    0    0  0.00000000000E+00  0.00000000000E+00  0.45593999997E+02  0.45594000000E+02  0.51100000000E-03 0. -1.
         11   -1    0    0    0    0 -0.00000000000E+00 -0.00000000000E+00 -0.45593999997E+02  0.45594000000E+02  0.51100000000E-03 0.  1.
    9900012    2    1    2    0    0 -0.29105360214E+02  0.16505865203E+02 -0.27641587897E+02  0.47787274652E+02  0.20000016446E+02 0.  0.
        -12    1    1    2    0    0  0.29105360214E+02 -0.16505865203E+02  0.27641587897E+02  0.43400725348E+02  0.00000000000E+00 0.  1.
         11    1    3    3    0    0 -0.11358702086E+02  0.82989246842E+01 -0.16105315932E+02  0.21383953459E+02  0.51100000000E-03 0. -1.
        -11    1    3    3    0    0 -0.17636234351E+02  0.85920961598E+01 -0.55281956154E+01  0.20381899459E+02  0.51100000000E-03 0.  1.
        -12    1    3    3    0    0 -0.11042377680E+00 -0.38515564097E+00 -0.60080763494E+01  0.60214217340E+01  0.00000000000E+00 0.  1.
</event>
<event>
 7    1  0.2598019E-009  0.4778727E+02  0.7816164E-02  0.1312668E+00
        -11   -1    0    0    0    0  0.00000000000E+00  0.00000000000E+00  0.45593999997E+02  0.45594000000E+02  0.51100000000E-03 0.  1.
         11   -1    0    0    0    0 -0.00000000000E+00 -0.00000000000E+00 -0.45593999997E+02  0.45594000000E+02  0.51100000000E-03 0. -1.
    9900012    2    1    2    0    0  0.16483978064E+01 -0.13647367737E+02 -0.41166192573E+02  0.47787271061E+02  0.20000000075E+02 0.  0.
        -12    1    1    2    0    0 -0.16483978064E+01  0.13647367737E+02  0.41166192573E+02  0.43400728939E+02  0.00000000000E+00 0.  1.
         11    1    3    3    0    0 -0.54650811234E+01 -0.10258830641E+02 -0.31056429970E+02  0.33160406519E+02  0.51100000000E-03 0. -1.
        -11    1    3    3    0    0  0.21958404822E+01  0.14821152102E+01 -0.36511061434E+00  0.26742638130E+01  0.51100000000E-03 0.  1.
         12    1    3    3    0    0  0.49176384476E+01 -0.48706523056E+01 -0.97446519894E+01  0.11952600729E+02  0.00000000000E+00 0. -1.
</event>
<event>
 7    1  0.2598019E-009  0.4778727E+02  0.7816164E-02  0.1312668E+00
        -11   -1    0    0    0    0  0.00000000000E+00  0.00000000000E+00  0.45593999997E+02  0.45594000000E+02  0.51100000000E-03 0.  1.
         11   -1    0    0    0    0 -0.00000000000E+00 -0.00000000000E+00 -0.45593999997E+02  0.45594000000E+02  0.51100000000E-03 0. -1.
    9900012    2    1    2    0    0 -0.20726672501E+02  0.74735418000E+01 -0.37392173951E+02  0.47787268983E+02  0.19999990603E+02 0.  0.
        -12    1    1    2    0    0  0.20726672501E+02 -0.74735418000E+01  0.37392173951E+02  0.43400731017E+02  0.00000000000E+00 0.  1.
         11    1    3    3    0    0 -0.13212341119E+01  0.65443575475E+01 -0.42984029477E+01  0.79404372330E+01  0.51100000000E-03 0. -1.
        -11    1    3    3    0    0 -0.20365820486E+02  0.17882923617E+01 -0.32572358252E+02  0.38456769963E+02  0.51100000000E-03 0.  1.
        -12    1    3    3    0    0  0.96038209680E+00 -0.85910810926E+00 -0.52141275090E+00  0.13900617871E+01  0.00000000000E+00 0.  1.
</event>
<event>
 7    1  0.2598019E-009  0.4778728E+02  0.7816164E-02  0.1312668E+00
        -11   -1    0    0    0    0  0.00000000000E+00  0.00000000000E+00  0.45593999997E+02  0.45594000000E+02  0.51100000000E-03 0.  1.
         11   -1    0    0    0    0 -0.00000000000E+00 -0.00000000000E+00 -0.45593999997E+02  0.45594000000E+02  0.51100000000E-03 0. -1.
    9900012    2    1    2    0    0  0.23606957346E+02 -0.23208377396E+02 -0.28066081780E+02  0.47787283843E+02  0.20000058353E+02 0.  0.
        -12    1    1    2    0    0 -0.23606957346E+02  0.23208377396E+02  0.28066081780E+02  0.43400716157E+02  0.00000000000E+00 0.  1.
         11    1    3    3    0    0  0.70522664009E+01 -0.13329210362E+02 -0.13657216214E+02  0.20345069801E+02  0.51100000000E-03 0. -1.
        -11    1    3    3    0    0  0.15212353819E+02 -0.29795193179E+01 -0.13093460749E+02  0.20291179333E+02  0.51100000000E-03 0.  1.
        -12    1    3    3    0    0  0.13423371258E+01 -0.68996477162E+01 -0.13154048177E+01  0.71510347084E+01  0.00000000000E+00 0.  1.
</event>
<event>
 7    1  0.2598019E-009  0.4778729E+02  0.7816164E-02  0.1312668E+00
        -11   -1    0    0    0    0  0.00000000000E+00  0.00000000000E+00  0.45593999997E+02  0.45594000000E+02  0.51100000000E-03 0.  1.
         11   -1    0    0    0    0 -0.00000000000E+00 -0.00000000000E+00 -0.45593999997E+02  0.45594000000E+02  0.51100000000E-03 0. -1.
    9900012    2    1    2    0    0  0.28111972133E+02  0.21345987362E+02  0.25252483074E+02  0.47787285086E+02  0.20000064021E+02 0.  0.
        -12    1    1    2    0    0 -0.28111972133E+02 -0.21345987362E+02 -0.25252483074E+02  0.43400714914E+02  0.00000000000E+00 0.  1.
         11    1    3    3    0    0  0.18624379157E+02  0.98117670182E+01  0.12190436288E+02  0.24325809507E+02  0.51100000000E-03 0. -1.
        -11    1    3    3    0    0  0.42688562741E+01  0.41827284428E+01  0.13151215503E+02  0.14445512126E+02  0.51100000000E-03 0.  1.
        -12    1    3    3    0    0  0.52187367011E+01  0.73514919007E+01 -0.89168716947E-01  0.90159634528E+01  0.00000000000E+00 0.  1.
</event>
<event>
 7    1  0.2598019E-009  0.4778727E+02  0.7816164E-02  0.1312668E+00
        -11   -1    0    0    0    0  0.00000000000E+00  0.00000000000E+00  0.45593999997E+02  0.45594000000E+02  0.51100000000E-03 0. -1.
         11   -1    0    0    0    0 -0.00000000000E+00 -0.00000000000E+00 -0.45593999997E+02  0.45594000000E+02  0.51100000000E-03 0.  1.
    9900012    2    1    2    0    0  0.32227299618E+02  0.20781681832E+02  0.20326005465E+02  0.47787266843E+02  0.19999980842E+02 0.  0.
        -12    1    1    2    0    0 -0.32227299618E+02 -0.20781681832E+02 -0.20326005465E+02  0.43400733157E+02  0.00000000000E+00 0.  1.
         11    1    3    3    0    0  0.11148090535E+02  0.78997788312E+01  0.12779405084E+02  0.18708276851E+02  0.51100000000E-03 0. -1.
        -11    1    3    3    0    0  0.11640119733E+01  0.60146525963E+00 -0.31059489693E+01  0.33709944517E+01  0.51100000000E-03 0.  1.
        -12    1    3    3    0    0  0.19915197110E+02  0.12280437741E+02  0.10652549351E+02  0.25707995540E+02  0.00000000000E+00 0.  1.
</event>
<event>
 7    1  0.2598019E-009  0.4778727E+02  0.7816164E-02  0.1312668E+00
        -11   -1    0    0    0    0  0.00000000000E+00  0.00000000000E+00  0.45593999997E+02  0.45594000000E+02  0.51100000000E-03 0.  1.
         11   -1    0    0    0    0 -0.00000000000E+00 -0.00000000000E+00 -0.45593999997E+02  0.45594000000E+02  0.51100000000E-03 0. -1.
    9900012    2    1    2    0    0 -0.30272741371E+02  0.20167244380E+02 -0.23674185099E+02  0.47787266641E+02  0.19999979921E+02 0.  0.
        -12    1    1    2    0    0  0.30272741371E+02 -0.20167244380E+02  0.23674185099E+02  0.43400733359E+02  0.00000000000E+00 0.  1.
         11    1    3    3    0    0 -0.14392404593E+02  0.12130849560E+02 -0.13867433354E+02  0.23379575041E+02  0.51100000000E-03 0. -1.
        -11    1    3    3    0    0 -0.76403883600E+01  0.42879724182E+01  0.25176085332E+01  0.91159527609E+01  0.51100000000E-03 0.  1.
        -12    1    3    3    0    0 -0.82399484187E+01  0.37484224016E+01 -0.12324360278E+02  0.15291738838E+02  0.00000000000E+00 0.  1.
</event>
<event>
 7    1  0.2598019E-009  0.4778727E+02  0.7816164E-02  0.1312668E+00
        -11   -1    0    0    0    0  0.00000000000E+00  0.00000000000E+00  0.45593999997E+02  0.45594000000E+02  0.51100000000E-03 0.  1.
         11   -1    0    0    0    0 -0.00000000000E+00 -0.00000000000E+00 -0.45593999997E+02  0.45594000000E+02  0.51100000000E-03 0. -1.
    9900012    2    1    2    0    0 -0.33032195008E+02 -0.26441647732E+02 -0.96610957228E+01  0.47787269449E+02  0.19999992724E+02 0.  0.
        -12    1    1    2    0    0  0.33032195008E+02  0.26441647732E+02  0.96610957228E+01  0.43400730551E+02  0.00000000000E+00 0.  1.
         11    1    3    3    0    0 -0.45857568011E+01 -0.12721673603E+02 -0.19168279971E+01  0.13658124854E+02  0.51100000000E-03 0.  1.
        -11    1    3    3    0    0 -0.15665703107E+02 -0.73122779568E+01 -0.94970452682E+01  0.19725048336E+02  0.51100000000E-03 0. -1.
         12    1    3    3    0    0 -0.12780735099E+02 -0.64076961726E+01  0.17527775425E+01  0.14404096259E+02  0.00000000000E+00 0. -1.
</event>
<event>
 7    1  0.2598019E-009  0.4778728E+02  0.7816164E-02  0.1312668E+00
        -11   -1    0    0    0    0  0.00000000000E+00  0.00000000000E+00  0.45593999997E+02  0.45594000000E+02  0.51100000000E-03 0. -1.
         11   -1    0    0    0    0 -0.00000000000E+00 -0.00000000000E+00 -0.45593999997E+02  0.45594000000E+02  0.51100000000E-03 0.  1.
    9900012    2    1    2    0    0 -0.37168054560E+02  0.21760681271E+02  0.53507548578E+01  0.47787284491E+02  0.20000061308E+02 0.  0.
        -12    1    1    2    0    0  0.37168054560E+02 -0.21760681271E+02 -0.53507548578E+01  0.43400715509E+02  0.00000000000E+00 0.  1.
         11    1    3    3    0    0 -0.60439021439E+01  0.10707579866E+02 -0.17169813821E+01  0.12414871930E+02  0.51100000000E-03 0. -1.
        -11    1    3    3    0    0 -0.10422908134E+01  0.33706292124E+01  0.14813274024E+01  0.38264660669E+01  0.51100000000E-03 0.  1.
         12    1    3    3    0    0 -0.30081861603E+02  0.76824721921E+01  0.55864088376E+01  0.31545946494E+02  0.00000000000E+00 0. -1.
</event>
<event>
 7    1  0.2598019E-009  0.4778727E+02  0.7816164E-02  0.1312668E+00
        -11   -1    0    0    0    0  0.00000000000E+00  0.00000000000E+00  0.45593999997E+02  0.45594000000E+02  0.51100000000E-03 0. -1.
         11   -1    0    0    0    0 -0.00000000000E+00 -0.00000000000E+00 -0.45593999997E+02  0.45594000000E+02  0.51100000000E-03 0.  1.
    9900012    2    1    2    0    0  0.77200849808E+01 -0.36059734877E+02 -0.22884904172E+02  0.47787273848E+02  0.20000012783E+02 0.  0.
        -12    1    1    2    0    0 -0.77200849808E+01  0.36059734877E+02  0.22884904172E+02  0.43400726152E+02  0.00000000000E+00 0.  1.
         11    1    3    3    0    0  0.23436488665E+01 -0.20464458709E+02 -0.10289092518E+02  0.23025033884E+02  0.51100000000E-03 0. -1.
        -11    1    3    3    0    0  0.74463224460E+01 -0.25636952769E+01 -0.65722342571E+01  0.10257412677E+02  0.51100000000E-03 0.  1.
        -12    1    3    3    0    0 -0.20698863316E+01 -0.13031580892E+02 -0.60235773964E+01  0.14504827287E+02  0.00000000000E+00 0.  1.
</event>
<event>
 7    1  0.2598019E-009  0.4778727E+02  0.7816164E-02  0.1312668E+00
        -11   -1    0    0    0    0  0.00000000000E+00  0.00000000000E+00  0.45593999997E+02  0.45594000000E+02  0.51100000000E-03 0.  1.
         11   -1    0    0    0    0 -0.00000000000E+00 -0.00000000000E+00 -0.45593999997E+02  0.45594000000E+02  0.51100000000E-03 0. -1.
    9900012    2    1    2    0    0 -0.10046358841E+02  0.25004441197E+02 -0.34021637468E+02  0.47787271648E+02  0.20000002752E+02 0.  0.
        -12    1    1    2    0    0  0.10046358841E+02 -0.25004441197E+02  0.34021637468E+02  0.43400728352E+02  0.00000000000E+00 0.  1.
         11    1    3    3    0    0 -0.10999554832E+02  0.48538570566E+01 -0.70279623368E+01  0.13926320035E+02  0.51100000000E-03 0. -1.
        -11    1    3    3    0    0 -0.33259472344E+00  0.98827870462E+01 -0.10797487060E+02  0.14641237179E+02  0.51100000000E-03 0.  1.
         12    1    3    3    0    0  0.12857907153E+01  0.10267797094E+02 -0.16196188071E+02  0.19219714435E+02  0.00000000000E+00 0. -1.
</event>
<event>
 7    1  0.2598019E-009  0.4778726E+02  0.7816164E-02  0.1312668E+00
        -11   -1    0    0    0    0  0.00000000000E+00  0.00000000000E+00  0.45593999997E+02  0.45594000000E+02  0.51100000000E-03 0.  1.
         11   -1    0    0    0    0 -0.00000000000E+00 -0.00000000000E+00 -0.45593999997E+02  0.45594000000E+02  0.51100000000E-03 0. -1.
    9900012    2    1    2    0    0 -0.25793545187E+02  0.14669355727E+02 -0.31672181414E+02  0.47787262146E+02  0.19999959430E+02 0.  0.
        -12    1    1    2    0    0  0.25793545187E+02 -0.14669355727E+02  0.31672181414E+02  0.43400737854E+02  0.00000000000E+00 0.  1.
         11    1    3    3    0    0 -0.14157993827E+02  0.16435775659E+01 -0.50420462235E+01  0.15118609950E+02  0.51100000000E-03 0. -1.
        -11    1    3    3    0    0 -0.31184320505E+01  0.12023722692E+01 -0.15989825128E+01  0.37050051099E+01  0.51100000000E-03 0.  1.
         12    1    3    3    0    0 -0.85171193091E+01  0.11823405892E+02 -0.25031152677E+02  0.28963647087E+02  0.00000000000E+00 0. -1.
</event>
<event>
 7    1  0.2598019E-009  0.4778727E+02  0.7816164E-02  0.1312668E+00
        -11   -1    0    0    0    0  0.00000000000E+00  0.00000000000E+00  0.45593999997E+02  0.45594000000E+02  0.51100000000E-03 0. -1.
         11   -1    0    0    0    0 -0.00000000000E+00 -0.00000000000E+00 -0.45593999997E+02  0.45594000000E+02  0.51100000000E-03 0.  1.
    9900012    2    1    2    0    0  0.56851503728E+01  0.29732868624E+02  0.31100786706E+02  0.47787270224E+02  0.19999996259E+02 0.  0.
        -12    1    1    2    0    0 -0.56851503728E+01 -0.29732868624E+02 -0.31100786706E+02  0.43400729776E+02  0.00000000000E+00 0.  1.
         11    1    3    3    0    0  0.99830391723E+01  0.85707107600E+01  0.15180173383E+02  0.20088698770E+02  0.51100000000E-03 0. -1.
        -11    1    3    3    0    0 -0.15104487426E+01  0.32135078170E+00  0.17953031756E+01  0.23680868824E+01  0.51100000000E-03 0.  1.
         12    1    3    3    0    0 -0.27874400568E+01  0.20840807082E+02  0.14125310147E+02  0.25330484572E+02  0.00000000000E+00 0. -1.
</event>
<event>
 7    1  0.2598019E-009  0.4778728E+02  0.7816164E-02  0.1312668E+00
        -11   -1    0    0    0    0  0.00000000000E+00  0.00000000000E+00  0.45593999997E+02  0.45594000000E+02  0.51100000000E-03 0.  1.
         11   -1    0    0    0    0 -0.00000000000E+00 -0.00000000000E+00 -0.45593999997E+02  0.45594000000E+02  0.51100000000E-03 0. -1.
    9900012    2    1    2    0    0  0.19380694137E+02  0.38793283937E+02  0.17586128246E+01  0.47787275319E+02  0.20000019488E+02 0.  0.
        -12    1    1    2    0    0 -0.19380694137E+02 -0.38793283937E+02 -0.17586128246E+01  0.43400724681E+02  0.00000000000E+00 0.  1.
         11    1    3    3    0    0  0.15654212561E+02  0.16199991619E+02 -0.42774818662E+01  0.22930131939E+02  0.51100000000E-03 0. -1.
        -11    1    3    3    0    0 -0.16498779779E+01  0.77844947071E+01  0.41947591787E+01  0.89953576925E+01  0.51100000000E-03 0.  1.
        -12    1    3    3    0    0  0.53763595530E+01  0.14808797610E+02  0.18413355122E+01  0.15861785687E+02  0.00000000000E+00 0.  1.
</event>
<event>
 7    1  0.2598019E-009  0.4778729E+02  0.7816164E-02  0.1312668E+00
        -11   -1    0    0    0    0  0.00000000000E+00  0.00000000000E+00  0.45593999997E+02  0.45594000000E+02  0.51100000000E-03 0. -1.
         11   -1    0    0    0    0 -0.00000000000E+00 -0.00000000000E+00 -0.45593999997E+02  0.45594000000E+02  0.51100000000E-03 0.  1.
    9900012    2    1    2    0    0  0.34922825636E+02  0.82947180284E+01  0.24397030891E+02  0.47787294776E+02  0.20000108203E+02 0.  0.
        -12    1    1    2    0    0 -0.34922825636E+02 -0.82947180284E+01 -0.24397030891E+02  0.43400705224E+02  0.00000000000E+00 0.  1.
         11    1    3    3    0    0  0.27646013819E+01  0.73098552492E+01  0.77803303416E+01  0.11027717128E+02  0.51100000000E-03 0. -1.
        -11    1    3    3    0    0  0.26736924457E+02  0.17102299772E+01  0.16120436843E+02  0.31267499104E+02  0.51100000000E-03 0.  1.
        -12    1    3    3    0    0  0.54212997980E+01 -0.72536719797E+00  0.49626370706E+00  0.54920785445E+01  0.00000000000E+00 0.  1.
</event>
<event>
 7    1  0.2598019E-009  0.4778725E+02  0.7816164E-02  0.1312668E+00
        -11   -1    0    0    0    0  0.00000000000E+00  0.00000000000E+00  0.45593999997E+02  0.45594000000E+02  0.51100000000E-03 0.  1.
         11   -1    0    0    0    0 -0.00000000000E+00 -0.00000000000E+00 -0.45593999997E+02  0.45594000000E+02  0.51100000000E-03 0. -1.
    9900012    2    1    2    0    0 -0.28471830277E+02 -0.32753722695E+02 -0.41644098290E+00  0.47787252394E+02  0.19999914964E+02 0.  0.
        -12    1    1    2    0    0  0.28471830277E+02  0.32753722695E+02  0.41644098290E+00  0.43400747606E+02  0.00000000000E+00 0.  1.
         11    1    3    3    0    0 -0.16737683235E+02 -0.25272680698E+02  0.49910978805E+01  0.30720831501E+02  0.51100000000E-03 0. -1.
        -11    1    3    3    0    0 -0.11348764059E+02 -0.31461925099E+01 -0.32963829977E+01  0.12229436378E+02  0.51100000000E-03 0.  1.
         12    1    3    3    0    0 -0.38538298188E+00 -0.43348494867E+01 -0.21111558657E+01  0.48369845156E+01  0.00000000000E+00 0. -1.
</event>
<event>
 7    1  0.2598019E-009  0.4778727E+02  0.7816164E-02  0.1312668E+00
        -11   -1    0    0    0    0  0.00000000000E+00  0.00000000000E+00  0.45593999997E+02  0.45594000000E+02  0.51100000000E-03 0.  1.
         11   -1    0    0    0    0 -0.00000000000E+00 -0.00000000000E+00 -0.45593999997E+02  0.45594000000E+02  0.51100000000E-03 0. -1.
    9900012    2    1    2    0    0  0.90602430003E+01 -0.12864923938E+02 -0.40447858446E+02  0.47787268162E+02  0.19999986860E+02 0.  0.
        -12    1    1    2    0    0 -0.90602430003E+01  0.12864923938E+02  0.40447858446E+02  0.43400731838E+02  0.00000000000E+00 0.  1.
         11    1    3    3    0    0 -0.22183189029E+01  0.75418930912E+00 -0.48600853894E+01  0.53953841867E+01  0.51100000000E-03 0. -1.
        -11    1    3    3    0    0  0.10340555101E+02 -0.12621984331E+01 -0.13341107797E+02  0.16926469868E+02  0.51100000000E-03 0.  1.
        -12    1    3    3    0    0  0.93800680189E+00 -0.12356914814E+02 -0.22246665260E+02  0.25465414107E+02  0.00000000000E+00 0.  1.
</event>
<event>
 7    1  0.2598019E-009  0.4778727E+02  0.7816164E-02  0.1312668E+00
        -11   -1    0    0    0    0  0.00000000000E+00  0.00000000000E+00  0.45593999997E+02  0.45594000000E+02  0.51100000000E-03 0.  1.
         11   -1    0    0    0    0 -0.00000000000E+00 -0.00000000000E+00 -0.45593999997E+02  0.45594000000E+02  0.51100000000E-03 0. -1.
    9900012    2    1    2    0    0 -0.20057980867E+02 -0.35677965341E+02 -0.14435495148E+02  0.47787270427E+02  0.19999997184E+02 0.  0.
        -12    1    1    2    0    0  0.20057980867E+02  0.35677965341E+02  0.14435495148E+02  0.43400729573E+02  0.00000000000E+00 0.  1.
         11    1    3    3    0    0 -0.43544562304E+01 -0.20623556412E+02 -0.66667459507E+01  0.22107416628E+02  0.51100000000E-03 0. -1.
        -11    1    3    3    0    0  0.72072776561E+00 -0.30268821478E+01  0.13274118953E+01  0.33828222906E+01  0.51100000000E-03 0.  1.
         12    1    3    3    0    0 -0.16424252403E+02 -0.12027526781E+02 -0.90961610926E+01  0.22297031508E+02  0.00000000000E+00 0. -1.
</event>
<event>
 7    1  0.2598019E-009  0.4778728E+02  0.7816164E-02  0.1312668E+00
        -11   -1    0    0    0    0  0.00000000000E+00  0.00000000000E+00  0.45593999997E+02  0.45594000000E+02  0.51100000000E-03 0.  1.
         11   -1    0    0    0    0 -0.00000000000E+00 -0.00000000000E+00 -0.45593999997E+02  0.45594000000E+02  0.51100000000E-03 0. -1.
    9900012    2    1    2    0    0 -0.18804101157E+02 -0.14360788533E+02  0.36384003190E+02  0.47787283926E+02  0.20000058734E+02 0.  0.
        -12    1    1    2    0    0  0.18804101157E+02  0.14360788533E+02 -0.36384003190E+02  0.43400716074E+02  0.00000000000E+00 0.  1.
         11    1    3    3    0    0 -0.16489369267E+02 -0.35729144690E+01  0.29831039205E+02  0.34271794773E+02  0.51100000000E-03 0. -1.
        -11    1    3    3    0    0  0.12563140593E+01 -0.26739279269E+01  0.15531492577E+01  0.33377370255E+01  0.51100000000E-03 0.  1.
         12    1    3    3    0    0 -0.35710459493E+01 -0.81139461368E+01  0.49998147268E+01  0.10177752128E+02  0.00000000000E+00 0. -1.
</event>
<event>
 7    1  0.2598019E-009  0.4778727E+02  0.7816164E-02  0.1312668E+00
        -11   -1    0    0    0    0  0.00000000000E+00  0.00000000000E+00  0.45593999997E+02  0.45594000000E+02  0.51100000000E-03 0. -1.
         11   -1    0    0    0    0 -0.00000000000E+00 -0.00000000000E+00 -0.45593999997E+02  0.45594000000E+02  0.51100000000E-03 0.  1.
    9900012    2    1    2    0    0  0.15834688760E+02 -0.78773709026E+00  0.40401304571E+02  0.47787270641E+02  0.19999998162E+02 0.  0.
        -12    1    1    2    0    0 -0.15834688760E+02  0.78773709026E+00 -0.40401304571E+02  0.43400729359E+02  0.00000000000E+00 0.  1.
         11    1    3    3    0    0 -0.30125827547E+01  0.34101681632E+01  0.33402022150E+01  0.56446304444E+01  0.51100000000E-03 0. -1.
        -11    1    3    3    0    0  0.46914757055E+00  0.60535115828E+00  0.42758473509E+00  0.87714219748E+00  0.51100000000E-03 0.  1.
         12    1    3    3    0    0  0.18378123944E+02 -0.48032564118E+01  0.36633517621E+02  0.41265497999E+02  0.00000000000E+00 0. -1.
</event>
<event>
 7    1  0.2598019E-009  0.4778727E+02  0.7816164E-02  0.1312668E+00
        -11   -1    0    0    0    0  0.00000000000E+00  0.00000000000E+00  0.45593999997E+02  0.45594000000E+02  0.51100000000E-03 0. -1.
         11   -1    0    0    0    0 -0.00000000000E+00 -0.00000000000E+00 -0.45593999997E+02  0.45594000000E+02  0.51100000000E-03 0.  1.
    9900012    2    1    2    0    0 -0.36171350202E+01 -0.35979299885E+02  0.24000615279E+02  0.47787271668E+02  0.20000002841E+02 0.  0.
        -12    1    1    2    0    0  0.36171350202E+01  0.35979299885E+02 -0.24000615279E+02  0.43400728332E+02  0.00000000000E+00 0.  1.
         11    1    3    3    0    0 -0.32997026441E+01 -0.33985611922E+01  0.47919381139E+01  0.67380209902E+01  0.51100000000E-03 0. -1.
        -11    1    3    3    0    0 -0.30385567617E+01 -0.30358019857E+02  0.21065183237E+02  0.37075384582E+02  0.51100000000E-03 0.  1.
        -12    1    3    3    0    0  0.27211243856E+01 -0.22227188360E+01 -0.18565060718E+01  0.39738660949E+01  0.00000000000E+00 0.  1.
</event>
<event>
 7    1  0.2598019E-009  0.4778727E+02  0.7816164E-02  0.1312668E+00
        -11   -1    0    0    0    0  0.00000000000E+00  0.00000000000E+00  0.45593999997E+02  0.45594000000E+02  0.51100000000E-03 0.  1.
         11   -1    0    0    0    0 -0.00000000000E+00 -0.00000000000E+00 -0.45593999997E+02  0.45594000000E+02  0.51100000000E-03 0. -1.
    9900012    2    1    2    0    0 -0.23124584784E+02 -0.36196696462E+02 -0.62190350768E+01  0.47787266671E+02  0.19999980060E+02 0.  0.
        -12    1    1    2    0    0  0.23124584784E+02  0.36196696462E+02  0.62190350768E+01  0.43400733329E+02  0.00000000000E+00 0.  1.
         11    1    3    3    0    0 -0.12207673888E+02 -0.12018553802E+02  0.25662661383E+01  0.17322201344E+02  0.51100000000E-03 0. -1.
        -11    1    3    3    0    0 -0.48446704752E+01 -0.21600565425E+02 -0.89206996851E+01  0.23867009486E+02  0.51100000000E-03 0.  1.
        -12    1    3    3    0    0 -0.60722404212E+01 -0.25775772355E+01  0.13539846995E+00  0.65980558412E+01  0.00000000000E+00 0.  1.
</event>
<event>
 7    1  0.2598019E-009  0.4778727E+02  0.7816164E-02  0.1312668E+00
        -11   -1    0    0    0    0  0.00000000000E+00  0.00000000000E+00  0.45593999997E+02  0.45594000000E+02  0.51100000000E-03 0.  1.
         11   -1    0    0    0    0 -0.00000000000E+00 -0.00000000000E+00 -0.45593999997E+02  0.45594000000E+02  0.51100000000E-03 0. -1.
    9900012    2    1    2    0    0  0.11021607247E+02  0.41945013101E+02  0.16622782010E+01  0.47787272827E+02  0.20000008126E+02 0.  0.
        -12    1    1    2    0    0 -0.11021607247E+02 -0.41945013101E+02 -0.16622782010E+01  0.43400727173E+02  0.00000000000E+00 0.  1.
         11    1    3    3    0    0  0.10894300434E+02  0.16672971020E+02  0.23198784016E+01  0.20051323664E+02  0.51100000000E-03 0. -1.
        -11    1    3    3    0    0 -0.46294163074E+01  0.20365270011E+02 -0.80639975471E+00  0.20900382743E+02  0.51100000000E-03 0.  1.
        -12    1    3    3    0    0  0.47567231196E+01  0.49067720695E+01  0.14879955405E+00  0.68355664203E+01  0.00000000000E+00 0.  1.
</event>
<event>
 7    1  0.2598019E-009  0.4778727E+02  0.7816164E-02  0.1312668E+00
        -11   -1    0    0    0    0  0.00000000000E+00  0.00000000000E+00  0.45593999997E+02  0.45594000000E+02  0.51100000000E-03 0.  1.
         11   -1    0    0    0    0 -0.00000000000E+00 -0.00000000000E+00 -0.45593999997E+02  0.45594000000E+02  0.51100000000E-03 0. -1.
    9900012    2    1    2    0    0 -0.18204857213E+01 -0.20291270528E+02 -0.38321975659E+02  0.47787266754E+02  0.19999980438E+02 0.  0.
        -12    1    1    2    0    0  0.18204857213E+01  0.20291270528E+02  0.38321975659E+02  0.43400733246E+02  0.00000000000E+00 0.  1.
         11    1    3    3    0    0  0.23920340945E+01 -0.14817453337E+02 -0.23970033046E+02  0.28281464513E+02  0.51100000000E-03 0. -1.
        -11    1    3    3    0    0 -0.22802908701E+01  0.20377476739E+01  0.14809269863E+00  0.30617109176E+01  0.51100000000E-03 0.  1.
        -12    1    3    3    0    0 -0.19322289458E+01 -0.75115648648E+01 -0.14500035312E+02  0.16444091323E+02  0.00000000000E+00 0.  1.
</event>
<event>
 7    1  0.2598019E-009  0.4778726E+02  0.7816164E-02  0.1312668E+00
        -11   -1    0    0    0    0  0.00000000000E+00  0.00000000000E+00  0.45593999997E+02  0.45594000000E+02  0.51100000000E-03 0. -1.
         11   -1    0    0    0    0 -0.00000000000E+00 -0.00000000000E+00 -0.45593999997E+02  0.45594000000E+02  0.51100000000E-03 0.  1.
    9900012    2    1    2    0    0  0.26804790389E+02  0.30902716038E+02  0.14496527993E+02  0.47787263022E+02  0.19999963424E+02 0.  0.
        -12    1    1    2    0    0 -0.26804790389E+02 -0.30902716038E+02 -0.14496527993E+02  0.43400736978E+02  0.00000000000E+00 0.  1.
         11    1    3    3    0    0  0.84263313969E+01  0.17483065833E+02 -0.49769783837E+00  0.19414127720E+02  0.51100000000E-03 0. -1.
        -11    1    3    3    0    0  0.11735663677E+02  0.62652900904E+01  0.45094920067E+01  0.14046892193E+02  0.51100000000E-03 0.  1.
         12    1    3    3    0    0  0.66427953151E+01  0.71543601144E+01  0.10484733825E+02  0.14326243109E+02  0.00000000000E+00 0. -1.
</event>
<event>
 7    1  0.2598019E-009  0.4778727E+02  0.7816164E-02  0.1312668E+00
        -11   -1    0    0    0    0  0.00000000000E+00  0.00000000000E+00  0.45593999997E+02  0.45594000000E+02  0.51100000000E-03 0.  1.
         11   -1    0    0    0    0 -0.00000000000E+00 -0.00000000000E+00 -0.45593999997E+02  0.45594000000E+02  0.51100000000E-03 0. -1.
    9900012    2    1    2    0    0 -0.32744265323E+02 -0.70489318578E+01  0.27599801999E+02  0.47787269335E+02  0.19999992205E+02 0.  0.
        -12    1    1    2    0    0  0.32744265323E+02  0.70489318578E+01 -0.27599801999E+02  0.43400730665E+02  0.00000000000E+00 0.  1.
         11    1    3    3    0    0 -0.44019319974E+01  0.23179434520E+01  0.60569620337E+00  0.50116599354E+01  0.51100000000E-03 0. -1.
        -11    1    3    3    0    0 -0.27630394590E+02 -0.63278149342E+01  0.18816748606E+02  0.34022786121E+02  0.51100000000E-03 0.  1.
        -12    1    3    3    0    0 -0.71193873479E+00 -0.30390603756E+01  0.81773571906E+01  0.87528232789E+01  0.00000000000E+00 0.  1.
</event>
<event>
 7    1  0.2598019E-009  0.4778728E+02  0.7816164E-02  0.1312668E+00
        -11   -1    0    0    0    0  0.00000000000E+00  0.00000000000E+00  0.45593999997E+02  0.45594000000E+02  0.51100000000E-03 0.  1.
         11   -1    0    0    0    0 -0.00000000000E+00 -0.00000000000E+00 -0.45593999997E+02  0.45594000000E+02  0.51100000000E-03 0. -1.
    9900012    2    1    2    0    0  0.82639035795E+01  0.41660687980E+02 -0.89284772417E+01  0.47787277297E+02  0.20000028507E+02 0.  0.
        -12    1    1    2    0    0 -0.82639035795E+01 -0.41660687980E+02  0.89284772417E+01  0.43400722703E+02  0.00000000000E+00 0.  1.
         11    1    3    3    0    0  0.37249070701E+01  0.13749285632E+02 -0.68311525316E+01  0.15798178162E+02  0.51100000000E-03 0. -1.
        -11    1    3    3    0    0  0.73312421372E+01  0.18069125474E+02  0.42389413430E+01  0.19955175535E+02  0.51100000000E-03 0.  1.
        -12    1    3    3    0    0 -0.27922456278E+01  0.98422768735E+01 -0.63362660530E+01  0.12033923599E+02  0.00000000000E+00 0.  1.
</event>
<event>
 7    1  0.2598019E-009  0.4778726E+02  0.7816164E-02  0.1312668E+00
        -11   -1    0    0    0    0  0.00000000000E+00  0.00000000000E+00  0.45593999997E+02  0.45594000000E+02  0.51100000000E-03 0. -1.
         11   -1    0    0    0    0 -0.00000000000E+00 -0.00000000000E+00 -0.45593999997E+02  0.45594000000E+02  0.51100000000E-03 0.  1.
    9900012    2    1    2    0    0  0.38719109829E+02  0.19199399230E+02 -0.39796279194E+01  0.47787264579E+02  0.19999970521E+02 0.  0.
        -12    1    1    2    0    0 -0.38719109829E+02 -0.19199399230E+02  0.39796279194E+01  0.43400735421E+02  0.00000000000E+00 0.  1.
         11    1    3    3    0    0  0.13147970994E+01  0.43103302788E+01  0.30445287978E+01  0.54384551471E+01  0.51100000000E-03 0. -1.
        -11    1    3    3    0    0  0.37995317550E+02  0.14952530178E+02 -0.61507089169E+01  0.41292293892E+02  0.51100000000E-03 0.  1.
        -12    1    3    3    0    0 -0.59100482077E+00 -0.63461226595E-01 -0.87344780032E+00  0.10565155396E+01  0.00000000000E+00 0.  1.
</event>
<event>
 7    1  0.2598019E-009  0.4778726E+02  0.7816164E-02  0.1312668E+00
        -11   -1    0    0    0    0  0.00000000000E+00  0.00000000000E+00  0.45593999997E+02  0.45594000000E+02  0.51100000000E-03 0.  1.
         11   -1    0    0    0    0 -0.00000000000E+00 -0.00000000000E+00 -0.45593999997E+02  0.45594000000E+02  0.51100000000E-03 0. -1.
    9900012    2    1    2    0    0  0.39903637373E+02  0.11041655629E+02 -0.13015592990E+02  0.47787261579E+02  0.19999956842E+02 0.  0.
        -12    1    1    2    0    0 -0.39903637373E+02 -0.11041655629E+02  0.13015592990E+02  0.43400738421E+02  0.00000000000E+00 0.  1.
         11    1    3    3    0    0  0.24136286940E+02  0.48597886678E+01 -0.33410104435E+01  0.24846332611E+02  0.51100000000E-03 0. -1.
        -11    1    3    3    0    0  0.50125403664E+01 -0.27468930645E+01 -0.64067399835E+01  0.85858779347E+01  0.51100000000E-03 0.  1.
        -12    1    3    3    0    0  0.10754810066E+02  0.89287600253E+01 -0.32678425632E+01  0.14355051033E+02  0.00000000000E+00 0.  1.
</event>
<event>
 7    1  0.2598019E-009  0.4778727E+02  0.7816164E-02  0.1312668E+00
        -11   -1    0    0    0    0  0.00000000000E+00  0.00000000000E+00  0.45593999997E+02  0.45594000000E+02  0.51100000000E-03 0.  1.
         11   -1    0    0    0    0 -0.00000000000E+00 -0.00000000000E+00 -0.45593999997E+02  0.45594000000E+02  0.51100000000E-03 0. -1.
    9900012    2    1    2    0    0  0.17670940592E+02  0.21729630027E+01 -0.39580794230E+02  0.47787272109E+02  0.20000004854E+02 0.  0.
        -12    1    1    2    0    0 -0.17670940592E+02 -0.21729630027E+01  0.39580794230E+02  0.43400727891E+02  0.00000000000E+00 0.  1.
         11    1    3    3    0    0  0.92354138419E+01  0.63318267053E+01 -0.35622679313E+02  0.37341132548E+02  0.51100000000E-03 0. -1.
        -11    1    3    3    0    0  0.63068301578E+01 -0.23400436048E+01 -0.19609709792E+01  0.70069478487E+01  0.51100000000E-03 0.  1.
         12    1    3    3    0    0  0.21286965921E+01 -0.18188200978E+01 -0.19971439378E+01  0.34391917128E+01  0.00000000000E+00 0. -1.
</event>
<event>
 7    1  0.2598019E-009  0.4778729E+02  0.7816164E-02  0.1312668E+00
        -11   -1    0    0    0    0  0.00000000000E+00  0.00000000000E+00  0.45593999997E+02  0.45594000000E+02  0.51100000000E-03 0.  1.
         11   -1    0    0    0    0 -0.00000000000E+00 -0.00000000000E+00 -0.45593999997E+02  0.45594000000E+02  0.51100000000E-03 0. -1.
    9900012    2    1    2    0    0  0.15630372773E+02  0.36283391915E+02 -0.17967429787E+02  0.47787290155E+02  0.20000087134E+02 0.  0.
        -12    1    1    2    0    0 -0.15630372773E+02 -0.36283391915E+02  0.17967429787E+02  0.43400709845E+02  0.00000000000E+00 0.  1.
         11    1    3    3    0    0  0.36253592298E+01  0.14441289877E+02 -0.14833963737E+02  0.21017625062E+02  0.51100000000E-03 0. -1.
        -11    1    3    3    0    0  0.77788057549E+01  0.60103301153E+01  0.96863262148E+00  0.98778609265E+01  0.51100000000E-03 0.  1.
        -12    1    3    3    0    0  0.42262077885E+01  0.15831771923E+02 -0.41020986713E+01  0.16891804166E+02  0.00000000000E+00 0.  1.
</event>
<event>
 7    1  0.2598019E-009  0.4778727E+02  0.7816164E-02  0.1312668E+00
        -11   -1    0    0    0    0  0.00000000000E+00  0.00000000000E+00  0.45593999997E+02  0.45594000000E+02  0.51100000000E-03 0.  1.
         11   -1    0    0    0    0 -0.00000000000E+00 -0.00000000000E+00 -0.45593999997E+02  0.45594000000E+02  0.51100000000E-03 0. -1.
    9900012    2    1    2    0    0  0.29568968863E+01 -0.13942150200E+02 -0.40993859574E+02  0.47787270581E+02  0.19999997885E+02 0.  0.
        -12    1    1    2    0    0 -0.29568968863E+01  0.13942150200E+02  0.40993859574E+02  0.43400729419E+02  0.00000000000E+00 0.  1.
         11    1    3    3    0    0  0.40545031845E+01 -0.95480698241E+01 -0.10491435670E+02  0.14753808190E+02  0.51100000000E-03 0. -1.
        -11    1    3    3    0    0 -0.38015796023E+01  0.25766898575E+01 -0.70142862165E+01  0.83840055751E+01  0.51100000000E-03 0.  1.
         12    1    3    3    0    0  0.27039733042E+01 -0.69707702333E+01 -0.23488137687E+02  0.24649456815E+02  0.00000000000E+00 0. -1.
</event>
<event>
 7    1  0.2598019E-009  0.4778727E+02  0.7816164E-02  0.1312668E+00
        -11   -1    0    0    0    0  0.00000000000E+00  0.00000000000E+00  0.45593999997E+02  0.45594000000E+02  0.51100000000E-03 0. -1.
         11   -1    0    0    0    0 -0.00000000000E+00 -0.00000000000E+00 -0.45593999997E+02  0.45594000000E+02  0.51100000000E-03 0.  1.
    9900012    2    1    2    0    0 -0.39473034706E+02 -0.16072677367E+02  0.81958550509E+01  0.47787268823E+02  0.19999989874E+02 0.  0.
        -12    1    1    2    0    0  0.39473034706E+02  0.16072677367E+02 -0.81958550509E+01  0.43400731177E+02  0.00000000000E+00 0.  1.
         11    1    3    3    0    0 -0.38747842599E+02 -0.12918060177E+02  0.95756657989E+01  0.41951936315E+02  0.51100000000E-03 0. -1.
        -11    1    3    3    0    0 -0.22279872889E+01 -0.27367724075E+01  0.30156264359E+00  0.35418626257E+01  0.51100000000E-03 0.  1.
         12    1    3    3    0    0  0.15027951820E+01 -0.41784478220E+00 -0.16813733917E+01  0.22934698828E+01  0.00000000000E+00 0. -1.
</event>
<event>
 7    1  0.2598019E-009  0.4778727E+02  0.7816164E-02  0.1312668E+00
        -11   -1    0    0    0    0  0.00000000000E+00  0.00000000000E+00  0.45593999997E+02  0.45594000000E+02  0.51100000000E-03 0.  1.
         11   -1    0    0    0    0 -0.00000000000E+00 -0.00000000000E+00 -0.45593999997E+02  0.45594000000E+02  0.51100000000E-03 0. -1.
    9900012    2    1    2    0    0 -0.66508469265E+01  0.10399373786E+02 -0.41608203320E+02  0.47787270472E+02  0.19999997392E+02 0.  0.
        -12    1    1    2    0    0  0.66508469265E+01 -0.10399373786E+02  0.41608203320E+02  0.43400729528E+02  0.00000000000E+00 0.  1.
         11    1    3    3    0    0 -0.39207017800E+01  0.12036376953E+02 -0.33400481002E+02  0.35718880218E+02  0.51100000000E-03 0. -1.
        -11    1    3    3    0    0 -0.37060330559E+00  0.32118279123E+01 -0.44299385957E+01  0.54842995516E+01  0.51100000000E-03 0.  1.
         12    1    3    3    0    0 -0.23595418409E+01 -0.48488310790E+01 -0.37777837230E+01  0.65840907033E+01  0.00000000000E+00 0. -1.
</event>
<event>
 7    1  0.2598019E-009  0.4778727E+02  0.7816164E-02  0.1312668E+00
        -11   -1    0    0    0    0  0.00000000000E+00  0.00000000000E+00  0.45593999997E+02  0.45594000000E+02  0.51100000000E-03 0. -1.
         11   -1    0    0    0    0 -0.00000000000E+00 -0.00000000000E+00 -0.45593999997E+02  0.45594000000E+02  0.51100000000E-03 0.  1.
    9900012    2    1    2    0    0  0.28358325611E+02 -0.20418765354E+02  0.25739135065E+02  0.47787266320E+02  0.19999978461E+02 0.  0.
        -12    1    1    2    0    0 -0.28358325611E+02  0.20418765354E+02 -0.25739135065E+02  0.43400733680E+02  0.00000000000E+00 0.  1.
         11    1    3    3    0    0  0.65151161657E+00  0.11072191664E+01  0.11102128451E+01  0.16979324167E+01  0.51100000000E-03 0. -1.
        -11    1    3    3    0    0 -0.18532459326E+01 -0.63326083359E+00 -0.50316538847E+00  0.20220572295E+01  0.51100000000E-03 0.  1.
        -12    1    3    3    0    0  0.29560059927E+02 -0.20892723687E+02  0.25132087608E+02  0.44067276674E+02  0.00000000000E+00 0.  1.
</event>
<event>
 7    1  0.2598019E-009  0.4778727E+02  0.7816164E-02  0.1312668E+00
        -11   -1    0    0    0    0  0.00000000000E+00  0.00000000000E+00  0.45593999997E+02  0.45594000000E+02  0.51100000000E-03 0.  1.
         11   -1    0    0    0    0 -0.00000000000E+00 -0.00000000000E+00 -0.45593999997E+02  0.45594000000E+02  0.51100000000E-03 0. -1.
    9900012    2    1    2    0    0 -0.21553801972E+02  0.34791095830E+02  0.14444268495E+02  0.47787267047E+02  0.19999981774E+02 0.  0.
        -12    1    1    2    0    0  0.21553801972E+02 -0.34791095830E+02 -0.14444268495E+02  0.43400732953E+02  0.00000000000E+00 0.  1.
         11    1    3    3    0    0 -0.13856660794E+02  0.12147427610E+02 -0.14193681010E+01  0.18481927713E+02  0.51100000000E-03 0. -1.
        -11    1    3    3    0    0 -0.15265342563E+01  0.96447583223E+01  0.93181222098E+01  0.13497372771E+02  0.51100000000E-03 0.  1.
         12    1    3    3    0    0 -0.61706069216E+01  0.12998909897E+02  0.65455143866E+01  0.15807966564E+02  0.00000000000E+00 0. -1.
</event>
<event>
 7    1  0.2598019E-009  0.4778730E+02  0.7816164E-02  0.1312668E+00
        -11   -1    0    0    0    0  0.00000000000E+00  0.00000000000E+00  0.45593999997E+02  0.45594000000E+02  0.51100000000E-03 0. -1.
         11   -1    0    0    0    0 -0.00000000000E+00 -0.00000000000E+00 -0.45593999997E+02  0.45594000000E+02  0.51100000000E-03 0.  1.
    9900012    2    1    2    0    0  0.12008320803E+02  0.12537242943E+02  0.39777356654E+02  0.47787304943E+02  0.20000154555E+02 0.  0.
        -12    1    1    2    0    0 -0.12008320803E+02 -0.12537242943E+02 -0.39777356654E+02  0.43400695057E+02  0.00000000000E+00 0.  1.
         11    1    3    3    0    0  0.10435346798E+02  0.15799427608E+02  0.38343766207E+02  0.42764036091E+02  0.51100000000E-03 0. -1.
        -11    1    3    3    0    0 -0.23999020708E+00 -0.25965965168E+01  0.16407577456E+01  0.30809081471E+01  0.51100000000E-03 0.  1.
         12    1    3    3    0    0  0.18129642123E+01 -0.66558814838E+00 -0.20716729945E+00  0.19423607050E+01  0.00000000000E+00 0. -1.
</event>
<event>
 7    1  0.2598019E-009  0.4778727E+02  0.7816164E-02  0.1312668E+00
        -11   -1    0    0    0    0  0.00000000000E+00  0.00000000000E+00  0.45593999997E+02  0.45594000000E+02  0.51100000000E-03 0.  1.
         11   -1    0    0    0    0 -0.00000000000E+00 -0.00000000000E+00 -0.45593999997E+02  0.45594000000E+02  0.51100000000E-03 0. -1.
    9900012    2    1    2    0    0  0.72164806035E+01 -0.42858622160E+01 -0.42581416591E+02  0.47787271364E+02  0.20000001457E+02 0.  0.
        -12    1    1    2    0    0 -0.72164806035E+01  0.42858622160E+01  0.42581416591E+02  0.43400728636E+02  0.00000000000E+00 0.  1.
         11    1    3    3    0    0 -0.46177880940E+01 -0.21640499218E+01 -0.11857557965E+02  0.12907701581E+02  0.51100000000E-03 0. -1.
        -11    1    3    3    0    0  0.11137238919E+02 -0.48592272960E+01 -0.29292649446E+02  0.31712923115E+02  0.51100000000E-03 0.  1.
        -12    1    3    3    0    0  0.69702977858E+00  0.27374150018E+01 -0.14312091794E+01  0.31666466679E+01  0.00000000000E+00 0.  1.
</event>
<event>
 7    1  0.2598019E-009  0.4778727E+02  0.7816164E-02  0.1312668E+00
        -11   -1    0    0    0    0  0.00000000000E+00  0.00000000000E+00  0.45593999997E+02  0.45594000000E+02  0.51100000000E-03 0. -1.
         11   -1    0    0    0    0 -0.00000000000E+00 -0.00000000000E+00 -0.45593999997E+02  0.45594000000E+02  0.51100000000E-03 0.  1.
    9900012    2    1    2    0    0  0.12581091011E+02 -0.40933941109E+02  0.70534902145E+01  0.47787272932E+02  0.20000008608E+02 0.  0.
        -12    1    1    2    0    0 -0.12581091011E+02  0.40933941109E+02 -0.70534902145E+01  0.43400727068E+02  0.00000000000E+00 0.  1.
         11    1    3    3    0    0 -0.62146976711E+00 -0.23071536707E+02 -0.20449663394E+01  0.23170324086E+02  0.51100000000E-03 0. -1.
        -11    1    3    3    0    0  0.10511649501E+02 -0.15446192344E+02  0.95317187926E+01  0.20974586922E+02  0.51100000000E-03 0.  1.
        -12    1    3    3    0    0  0.26909112776E+01 -0.24162120592E+01 -0.43326223867E+00  0.36423619241E+01  0.00000000000E+00 0.  1.
</event>
<event>
 7    1  0.2598019E-009  0.4778727E+02  0.7816164E-02  0.1312668E+00
        -11   -1    0    0    0    0  0.00000000000E+00  0.00000000000E+00  0.45593999997E+02  0.45594000000E+02  0.51100000000E-03 0.  1.
         11   -1    0    0    0    0 -0.00000000000E+00 -0.00000000000E+00 -0.45593999997E+02  0.45594000000E+02  0.51100000000E-03 0. -1.
    9900012    2    1    2    0    0 -0.29742784105E+02 -0.21047226887E+02 -0.23579745838E+02  0.47787269825E+02  0.19999994440E+02 0.  0.
        -12    1    1    2    0    0  0.29742784105E+02  0.21047226887E+02  0.23579745838E+02  0.43400730175E+02  0.00000000000E+00 0.  1.
         11    1    3    3    0    0 -0.68498643741E+01 -0.15153683788E+02 -0.15569495131E+02  0.22780780347E+02  0.51100000000E-03 0. -1.
        -11    1    3    3    0    0 -0.16360835637E+02 -0.49162918675E+01 -0.58507886426E+01  0.18057646482E+02  0.51100000000E-03 0.  1.
         12    1    3    3    0    0 -0.65320840936E+01 -0.97725123119E+00 -0.21594620635E+01  0.69488429957E+01  0.00000000000E+00 0. -1.
</event>
<event>
 7    1  0.2598019E-009  0.4778727E+02  0.7816164E-02  0.1312668E+00
        -11   -1    0    0    0    0  0.00000000000E+00  0.00000000000E+00  0.45593999997E+02  0.45594000000E+02  0.51100000000E-03 0.  1.
         11   -1    0    0    0    0 -0.00000000000E+00 -0.00000000000E+00 -0.45593999997E+02  0.45594000000E+02  0.51100000000E-03 0. -1.
    9900012    2    1    2    0    0  0.35580983083E+02  0.14204463737E+02 -0.20392407128E+02  0.47787269411E+02  0.19999992553E+02 0.  0.
        -12    1    1    2    0    0 -0.35580983083E+02 -0.14204463737E+02  0.20392407128E+02  0.43400730589E+02  0.00000000000E+00 0.  1.
         11    1    3    3    0    0  0.28957125733E+02  0.78019609943E+01 -0.10309546643E+02  0.31712339527E+02  0.51100000000E-03 0. -1.
        -11    1    3    3    0    0 -0.10868238638E+01  0.35225927747E+01 -0.10047177908E+01  0.38209035669E+01  0.51100000000E-03 0.  1.
        -12    1    3    3    0    0  0.77106812140E+01  0.28799099680E+01 -0.90781426938E+01  0.12254026317E+02  0.00000000000E+00 0.  1.
</event>
<event>
 7    1  0.2598019E-009  0.4778727E+02  0.7816164E-02  0.1312668E+00
        -11   -1    0    0    0    0  0.00000000000E+00  0.00000000000E+00  0.45593999997E+02  0.45594000000E+02  0.51100000000E-03 0.  1.
         11   -1    0    0    0    0 -0.00000000000E+00 -0.00000000000E+00 -0.45593999997E+02  0.45594000000E+02  0.51100000000E-03 0. -1.
    9900012    2    1    2    0    0 -0.31565283211E+02 -0.95366482271E+01 -0.28218940005E+02  0.47787270299E+02  0.19999996601E+02 0.  0.
        -12    1    1    2    0    0  0.31565283211E+02  0.95366482271E+01  0.28218940005E+02  0.43400729701E+02  0.00000000000E+00 0.  1.
         11    1    3    3    0    0 -0.12017366755E+02 -0.12344881710E+02 -0.18164431332E+02  0.25035170741E+02  0.51100000000E-03 0. -1.
        -11    1    3    3    0    0 -0.39407675964E+01  0.27451022335E+01 -0.23535334823E+01  0.53483039961E+01  0.51100000000E-03 0.  1.
         12    1    3    3    0    0 -0.15607148859E+02  0.63131249551E-01 -0.77009751907E+01  0.17403795562E+02  0.00000000000E+00 0. -1.
</event>
<event>
 7    1  0.2598019E-009  0.4778727E+02  0.7816164E-02  0.1312668E+00
        -11   -1    0    0    0    0  0.00000000000E+00  0.00000000000E+00  0.45593999997E+02  0.45594000000E+02  0.51100000000E-03 0. -1.
         11   -1    0    0    0    0 -0.00000000000E+00 -0.00000000000E+00 -0.45593999997E+02  0.45594000000E+02  0.51100000000E-03 0.  1.
    9900012    2    1    2    0    0 -0.11276293599E+02  0.15583454837E+02  0.38905330967E+02  0.47787266830E+02  0.19999980786E+02 0.  0.
        -12    1    1    2    0    0  0.11276293599E+02 -0.15583454837E+02 -0.38905330967E+02  0.43400733170E+02  0.00000000000E+00 0.  1.
         11    1    3    3    0    0 -0.56909694124E+01  0.16285116734E+02  0.15041362781E+02  0.22887436607E+02  0.51100000000E-03 0.  1.
        -11    1    3    3    0    0 -0.56529277710E+01  0.35295307164E+00  0.16162499346E+02  0.17126194955E+02  0.51100000000E-03 0. -1.
        -12    1    3    3    0    0  0.67603584235E-01 -0.10546149691E+01  0.77014688406E+01  0.77736352681E+01  0.00000000000E+00 0.  1.
</event>
<event>
 7    1  0.2598019E-009  0.4778727E+02  0.7816164E-02  0.1312668E+00
        -11   -1    0    0    0    0  0.00000000000E+00  0.00000000000E+00  0.45593999997E+02  0.45594000000E+02  0.51100000000E-03 0.  1.
         11   -1    0    0    0    0 -0.00000000000E+00 -0.00000000000E+00 -0.45593999997E+02  0.45594000000E+02  0.51100000000E-03 0. -1.
    9900012    2    1    2    0    0  0.41786050197E+01 -0.34335377383E+01 -0.43062431850E+02  0.47787274682E+02  0.20000016586E+02 0.  0.
        -12    1    1    2    0    0 -0.41786050197E+01  0.34335377383E+01  0.43062431850E+02  0.43400725318E+02  0.00000000000E+00 0.  1.
         11    1    3    3    0    0  0.23944389618E+01  0.22647492916E+01 -0.16700825661E+02  0.17022925874E+02  0.51100000000E-03 0. -1.
        -11    1    3    3    0    0 -0.46820096866E+01  0.25420608511E+01 -0.76858713390E+01  0.93517862773E+01  0.51100000000E-03 0.  1.
        -12    1    3    3    0    0  0.64661757445E+01 -0.82403478810E+01 -0.18675734850E+02  0.21412562531E+02  0.00000000000E+00 0.  1.
</event>
<event>
 7    1  0.2598019E-009  0.4778726E+02  0.7816164E-02  0.1312668E+00
        -11   -1    0    0    0    0  0.00000000000E+00  0.00000000000E+00  0.45593999997E+02  0.45594000000E+02  0.51100000000E-03 0. -1.
         11   -1    0    0    0    0 -0.00000000000E+00 -0.00000000000E+00 -0.45593999997E+02  0.45594000000E+02  0.51100000000E-03 0.  1.
    9900012    2    1    2    0    0 -0.36746388980E+02 -0.80099772054E+01  0.21660272189E+02  0.47787260039E+02  0.19999949822E+02 0.  0.
        -12    1    1    2    0    0  0.36746388980E+02  0.80099772054E+01 -0.21660272189E+02  0.43400739961E+02  0.00000000000E+00 0.  1.
         11    1    3    3    0    0 -0.92824986629E+01  0.25663477082E+01  0.50060003449E+01  0.10854075810E+02  0.51100000000E-03 0. -1.
        -11    1    3    3    0    0 -0.21034170162E+02 -0.12438470344E+02  0.17679061106E+02  0.30161250981E+02  0.51100000000E-03 0.  1.
        -12    1    3    3    0    0 -0.64297201551E+01  0.18621454305E+01 -0.10247892622E+01  0.67719332475E+01  0.00000000000E+00 0.  1.
</event>
<event>
 7    1  0.2598019E-009  0.4778727E+02  0.7816164E-02  0.1312668E+00
        -11   -1    0    0    0    0  0.00000000000E+00  0.00000000000E+00  0.45593999997E+02  0.45594000000E+02  0.51100000000E-03 0.  1.
         11   -1    0    0    0    0 -0.00000000000E+00 -0.00000000000E+00 -0.45593999997E+02  0.45594000000E+02  0.51100000000E-03 0. -1.
    9900012    2    1    2    0    0  0.34783629439E+02 -0.12225378202E+01 -0.25927355435E+02  0.47787271486E+02  0.20000002014E+02 0.  0.
        -12    1    1    2    0    0 -0.34783629439E+02  0.12225378202E+01  0.25927355435E+02  0.43400728514E+02  0.00000000000E+00 0.  1.
         11    1    3    3    0    0  0.77405883871E+01  0.66754322951E+01 -0.97176713418E+01  0.14103589666E+02  0.51100000000E-03 0. -1.
        -11    1    3    3    0    0  0.16406510424E+01 -0.21442722268E+00 -0.42761426213E+01  0.45850966027E+01  0.51100000000E-03 0.  1.
         12    1    3    3    0    0  0.25402390010E+02 -0.76835428927E+01 -0.11933541472E+02  0.29098585217E+02  0.00000000000E+00 0. -1.
</event>
<event>
 7    1  0.2598019E-009  0.4778726E+02  0.7816164E-02  0.1312668E+00
        -11   -1    0    0    0    0  0.00000000000E+00  0.00000000000E+00  0.45593999997E+02  0.45594000000E+02  0.51100000000E-03 0.  1.
         11   -1    0    0    0    0 -0.00000000000E+00 -0.00000000000E+00 -0.45593999997E+02  0.45594000000E+02  0.51100000000E-03 0. -1.
    9900012    2    1    2    0    0  0.96968548978E+01  0.40406454129E+02 -0.12526511745E+02  0.47787262372E+02  0.19999960458E+02 0.  0.
        -12    1    1    2    0    0 -0.96968548978E+01 -0.40406454129E+02  0.12526511745E+02  0.43400737628E+02  0.00000000000E+00 0.  1.
         11    1    3    3    0    0  0.36373810062E+00  0.24120148920E+02 -0.81301503682E+01  0.25456104073E+02  0.51100000000E-03 0. -1.
        -11    1    3    3    0    0  0.69811188196E+01  0.73776730262E+01  0.29169781359E+01  0.10567631757E+02  0.51100000000E-03 0.  1.
        -12    1    3    3    0    0  0.23519979776E+01  0.89086321827E+01 -0.73133395126E+01  0.11763526541E+02  0.00000000000E+00 0.  1.
</event>
<event>
 7    1  0.2598019E-009  0.4778727E+02  0.7816164E-02  0.1312668E+00
        -11   -1    0    0    0    0  0.00000000000E+00  0.00000000000E+00  0.45593999997E+02  0.45594000000E+02  0.51100000000E-03 0.  1.
         11   -1    0    0    0    0 -0.00000000000E+00 -0.00000000000E+00 -0.45593999997E+02  0.45594000000E+02  0.51100000000E-03 0. -1.
    9900012    2    1    2    0    0 -0.38905564470E+02 -0.22996466992E+01 -0.19096908947E+02  0.47787271285E+02  0.20000001096E+02 0.  0.
        -12    1    1    2    0    0  0.38905564470E+02  0.22996466992E+01  0.19096908947E+02  0.43400728715E+02  0.00000000000E+00 0.  1.
         11    1    3    3    0    0 -0.13470745924E+02 -0.30913099554E+01 -0.10273479635E+02  0.17220963302E+02  0.51100000000E-03 0. -1.
        -11    1    3    3    0    0  0.16728530905E+01 -0.45829388991E-01  0.71142901545E+00  0.18184249505E+01  0.51100000000E-03 0.  1.
        -12    1    3    3    0    0 -0.27107671637E+02  0.83749264518E+00 -0.95348583273E+01  0.28747883032E+02  0.00000000000E+00 0.  1.
</event>
<event>
 7    1  0.2598019E-009  0.4778728E+02  0.7816164E-02  0.1312668E+00
        -11   -1    0    0    0    0  0.00000000000E+00  0.00000000000E+00  0.45593999997E+02  0.45594000000E+02  0.51100000000E-03 0. -1.
         11   -1    0    0    0    0 -0.00000000000E+00 -0.00000000000E+00 -0.45593999997E+02  0.45594000000E+02  0.51100000000E-03 0.  1.
    9900012    2    1    2    0    0  0.39300511166E+02  0.16287646567E+02 -0.85909948222E+01  0.47787276497E+02  0.20000024858E+02 0.  0.
        -12    1    1    2    0    0 -0.39300511166E+02 -0.16287646567E+02  0.85909948222E+01  0.43400723503E+02  0.00000000000E+00 0.  1.
         11    1    3    3    0    0  0.15313167979E+02  0.72560751485E+01 -0.46690203362E+01  0.17576788423E+02  0.51100000000E-03 0. -1.
        -11    1    3    3    0    0  0.24658236504E+02  0.43142155436E+01 -0.44188717467E+01  0.25419825157E+02  0.51100000000E-03 0.  1.
        -12    1    3    3    0    0 -0.67089331693E+00  0.47173558745E+01  0.49689726061E+00  0.47906629162E+01  0.00000000000E+00 0.  1.
</event>
<event>
 7    1  0.2598019E-009  0.4778727E+02  0.7816164E-02  0.1312668E+00
        -11   -1    0    0    0    0  0.00000000000E+00  0.00000000000E+00  0.45593999997E+02  0.45594000000E+02  0.51100000000E-03 0.  1.
         11   -1    0    0    0    0 -0.00000000000E+00 -0.00000000000E+00 -0.45593999997E+02  0.45594000000E+02  0.51100000000E-03 0. -1.
    9900012    2    1    2    0    0  0.34391873953E+01 -0.14011846543E+01 -0.43241554860E+02  0.47787269648E+02  0.19999993635E+02 0.  0.
        -12    1    1    2    0    0 -0.34391873953E+01  0.14011846543E+01  0.43241554860E+02  0.43400730352E+02  0.00000000000E+00 0.  1.
         11    1    3    3    0    0 -0.19437066562E+01 -0.14480535187E+01 -0.35706094986E+02  0.35788267267E+02  0.51100000000E-03 0. -1.
        -11    1    3    3    0    0  0.53074625155E+01  0.28088379115E+01 -0.69313488939E+01  0.91707320601E+01  0.51100000000E-03 0.  1.
         12    1    3    3    0    0  0.75431536062E-01 -0.27619690471E+01 -0.60411097948E+00  0.28282703211E+01  0.00000000000E+00 0. -1.
</event>
<event>
 7    1  0.2598019E-009  0.4778727E+02  0.7816164E-02  0.1312668E+00
        -11   -1    0    0    0    0  0.00000000000E+00  0.00000000000E+00  0.45593999997E+02  0.45594000000E+02  0.51100000000E-03 0.  1.
         11   -1    0    0    0    0 -0.00000000000E+00 -0.00000000000E+00 -0.45593999997E+02  0.45594000000E+02  0.51100000000E-03 0. -1.
    9900012    2    1    2    0    0 -0.12971285309E+02  0.40227727619E+02 -0.98538689638E+01  0.47787273675E+02  0.20000011996E+02 0.  0.
        -12    1    1    2    0    0  0.12971285309E+02 -0.40227727619E+02  0.98538689638E+01  0.43400726325E+02  0.00000000000E+00 0.  1.
         11    1    3    3    0    0 -0.38116313545E+01  0.68724401765E+01 -0.33004395372E+01  0.85236065701E+01  0.51100000000E-03 0. -1.
        -11    1    3    3    0    0 -0.14043557258E+02  0.27862911050E+02 -0.38776671244E+01  0.31442003995E+02  0.51100000000E-03 0.  1.
        -12    1    3    3    0    0  0.48839033032E+01  0.54923763919E+01 -0.26757623022E+01  0.78216631098E+01  0.00000000000E+00 0.  1.
</event>
<event>
 7    1  0.2598019E-009  0.4778728E+02  0.7816164E-02  0.1312668E+00
        -11   -1    0    0    0    0  0.00000000000E+00  0.00000000000E+00  0.45593999997E+02  0.45594000000E+02  0.51100000000E-03 0.  1.
         11   -1    0    0    0    0 -0.00000000000E+00 -0.00000000000E+00 -0.45593999997E+02  0.45594000000E+02  0.51100000000E-03 0. -1.
    9900012    2    1    2    0    0 -0.18781079997E+02 -0.37982144371E+02  0.93941397414E+01  0.47787284357E+02  0.20000060696E+02 0.  0.
        -12    1    1    2    0    0  0.18781079997E+02  0.37982144371E+02 -0.93941397414E+01  0.43400715643E+02  0.00000000000E+00 0.  1.
         11    1    3    3    0    0 -0.93468703693E+01 -0.16311310892E+02  0.11455228484E+02  0.22014656677E+02  0.51100000000E-03 0.  1.
        -11    1    3    3    0    0 -0.11148770897E+02 -0.20738171667E+02 -0.27449808224E+01  0.23704467439E+02  0.51100000000E-03 0. -1.
        -12    1    3    3    0    0  0.17145612700E+01 -0.93266181250E+00  0.68389207969E+00  0.20681602409E+01  0.00000000000E+00 0.  1.
</event>
<event>
 7    1  0.2598019E-009  0.4778727E+02  0.7816164E-02  0.1312668E+00
        -11   -1    0    0    0    0  0.00000000000E+00  0.00000000000E+00  0.45593999997E+02  0.45594000000E+02  0.51100000000E-03 0.  1.
         11   -1    0    0    0    0 -0.00000000000E+00 -0.00000000000E+00 -0.45593999997E+02  0.45594000000E+02  0.51100000000E-03 0. -1.
    9900012    2    1    2    0    0 -0.25251523824E+02  0.31624686481E+02 -0.15680024364E+02  0.47787269424E+02  0.19999992614E+02 0.  0.
        -12    1    1    2    0    0  0.25251523824E+02 -0.31624686481E+02  0.15680024364E+02  0.43400730576E+02  0.00000000000E+00 0.  1.
         11    1    3    3    0    0 -0.11106834989E+02  0.71469733114E+01 -0.96119792107E+01  0.16334967266E+02  0.51100000000E-03 0. -1.
        -11    1    3    3    0    0 -0.34177442239E+01  0.10128434382E+02  0.33628807170E+01  0.11206030768E+02  0.51100000000E-03 0.  1.
         12    1    3    3    0    0 -0.10726944611E+02  0.14349278788E+02 -0.94309258706E+01  0.20246271390E+02  0.00000000000E+00 0. -1.
</event>
<event>
 7    1  0.2598019E-009  0.4778727E+02  0.7816164E-02  0.1312668E+00
        -11   -1    0    0    0    0  0.00000000000E+00  0.00000000000E+00  0.45593999997E+02  0.45594000000E+02  0.51100000000E-03 0. -1.
         11   -1    0    0    0    0 -0.00000000000E+00 -0.00000000000E+00 -0.45593999997E+02  0.45594000000E+02  0.51100000000E-03 0.  1.
    9900012    2    1    2    0    0 -0.14082135383E+02 -0.39977282828E+02  0.93345232568E+01  0.47787274157E+02  0.20000014192E+02 0.  0.
        -12    1    1    2    0    0  0.14082135383E+02  0.39977282828E+02 -0.93345232568E+01  0.43400725843E+02  0.00000000000E+00 0.  1.
         11    1    3    3    0    0 -0.50652304104E+00  0.23210012554E+01  0.22528416081E-01  0.23757357196E+01  0.51100000000E-03 0. -1.
        -11    1    3    3    0    0 -0.60906760550E+01 -0.20933099876E+02  0.41652539416E+01  0.22195502830E+02  0.51100000000E-03 0.  1.
         12    1    3    3    0    0 -0.74849362874E+01 -0.21365184207E+02  0.51467408992E+01  0.23216035607E+02  0.00000000000E+00 0. -1.
</event>
<event>
 7    1  0.2598019E-009  0.4778727E+02  0.7816164E-02  0.1312668E+00
        -11   -1    0    0    0    0  0.00000000000E+00  0.00000000000E+00  0.45593999997E+02  0.45594000000E+02  0.51100000000E-03 0. -1.
         11   -1    0    0    0    0 -0.00000000000E+00 -0.00000000000E+00 -0.45593999997E+02  0.45594000000E+02  0.51100000000E-03 0.  1.
    9900012    2    1    2    0    0 -0.15162083048E+02  0.37704494685E+02  0.15235010476E+02  0.47787271596E+02  0.20000002514E+02 0.  0.
        -12    1    1    2    0    0  0.15162083048E+02 -0.37704494685E+02 -0.15235010476E+02  0.43400728404E+02  0.00000000000E+00 0.  1.
         11    1    3    3    0    0 -0.33765747997E+01  0.15564396337E+02  0.66684728952E+01  0.17266158279E+02  0.51100000000E-03 0. -1.
        -11    1    3    3    0    0 -0.51007356518E+01 -0.93448797114E+00  0.24277864359E+01  0.57258116628E+01  0.51100000000E-03 0.  1.
        -12    1    3    3    0    0 -0.66847725968E+01  0.23074586319E+02  0.61387511448E+01  0.24795301654E+02  0.00000000000E+00 0.  1.
</event>
<event>
 7    1  0.2598019E-009  0.4778727E+02  0.7816164E-02  0.1312668E+00
        -11   -1    0    0    0    0  0.00000000000E+00  0.00000000000E+00  0.45593999997E+02  0.45594000000E+02  0.51100000000E-03 0.  1.
         11   -1    0    0    0    0 -0.00000000000E+00 -0.00000000000E+00 -0.45593999997E+02  0.45594000000E+02  0.51100000000E-03 0. -1.
    9900012    2    1    2    0    0  0.26215023811E+02  0.32445826606E+02 -0.11985994813E+02  0.47787271789E+02  0.20000003397E+02 0.  0.
        -12    1    1    2    0    0 -0.26215023811E+02 -0.32445826606E+02  0.11985994813E+02  0.43400728211E+02  0.00000000000E+00 0.  1.
         11    1    3    3    0    0  0.70946996677E+01  0.72441574755E+01 -0.11960108426E+02  0.15679820622E+02  0.51100000000E-03 0. -1.
        -11    1    3    3    0    0  0.74328212135E+01  0.14340711775E+02 -0.47914316355E-01  0.16152558356E+02  0.51100000000E-03 0.  1.
         12    1    3    3    0    0  0.11687502930E+02  0.10860957356E+02  0.22027928873E-01  0.15954892812E+02  0.00000000000E+00 0. -1.
</event>
<event>
 7    1  0.2598019E-009  0.4778727E+02  0.7816164E-02  0.1312668E+00
        -11   -1    0    0    0    0  0.00000000000E+00  0.00000000000E+00  0.45593999997E+02  0.45594000000E+02  0.51100000000E-03 0.  1.
         11   -1    0    0    0    0 -0.00000000000E+00 -0.00000000000E+00 -0.45593999997E+02  0.45594000000E+02  0.51100000000E-03 0. -1.
    9900012    2    1    2    0    0  0.25392265317E+02 -0.33016151028E+02 -0.12197935343E+02  0.47787274277E+02  0.20000014741E+02 0.  0.
        -12    1    1    2    0    0 -0.25392265317E+02  0.33016151028E+02  0.12197935343E+02  0.43400725723E+02  0.00000000000E+00 0.  1.
         11    1    3    3    0    0  0.15298121504E+02 -0.31242313832E+02 -0.12698730730E+02  0.37032046359E+02  0.51100000000E-03 0. -1.
        -11    1    3    3    0    0  0.89855861623E+01 -0.88835566509E+00 -0.46101110816E+00  0.90411540176E+01  0.51100000000E-03 0.  1.
         12    1    3    3    0    0  0.11085576501E+01 -0.88548153118E+00  0.96180649453E+00  0.17140739011E+01  0.00000000000E+00 0. -1.
</event>
<event>
 7    1  0.2598019E-009  0.4778727E+02  0.7816164E-02  0.1312668E+00
        -11   -1    0    0    0    0  0.00000000000E+00  0.00000000000E+00  0.45593999997E+02  0.45594000000E+02  0.51100000000E-03 0.  1.
         11   -1    0    0    0    0 -0.00000000000E+00 -0.00000000000E+00 -0.45593999997E+02  0.45594000000E+02  0.51100000000E-03 0. -1.
    9900012    2    1    2    0    0 -0.10637732369E+02  0.25753377130E+02 -0.33274997572E+02  0.47787271354E+02  0.20000001412E+02 0.  0.
        -12    1    1    2    0    0  0.10637732369E+02 -0.25753377130E+02  0.33274997572E+02  0.43400728646E+02  0.00000000000E+00 0.  1.
         11    1    3    3    0    0 -0.45479674647E+01  0.23891132713E+02 -0.24942336149E+02  0.34836623878E+02  0.51100000000E-03 0. -1.
        -11    1    3    3    0    0 -0.59284155618E+01 -0.76017533657E+00 -0.23606826639E+01  0.64262586718E+01  0.51100000000E-03 0.  1.
        -12    1    3    3    0    0 -0.16134934294E+00  0.26224197537E+01 -0.59719787588E+01  0.65243888044E+01  0.00000000000E+00 0.  1.
</event>
<event>
 7    1  0.2598019E-009  0.4778727E+02  0.7816164E-02  0.1312668E+00
        -11   -1    0    0    0    0  0.00000000000E+00  0.00000000000E+00  0.45593999997E+02  0.45594000000E+02  0.51100000000E-03 0.  1.
         11   -1    0    0    0    0 -0.00000000000E+00 -0.00000000000E+00 -0.45593999997E+02  0.45594000000E+02  0.51100000000E-03 0. -1.
    9900012    2    1    2    0    0 -0.29150885612E+02  0.70520733504E+01 -0.31370645705E+02  0.47787270946E+02  0.19999999549E+02 0.  0.
        -12    1    1    2    0    0  0.29150885612E+02 -0.70520733504E+01  0.31370645705E+02  0.43400729054E+02  0.00000000000E+00 0.  1.
         11    1    3    3    0    0 -0.97443169985E+01 -0.21264987215E+01 -0.18243688767E+01  0.10139133722E+02  0.51100000000E-03 0. -1.
        -11    1    3    3    0    0 -0.27645499540E+01  0.40608056959E+00 -0.21531849821E+00  0.28024989195E+01  0.51100000000E-03 0.  1.
         12    1    3    3    0    0 -0.16642018659E+02  0.87724915023E+01 -0.29330958330E+02  0.34845638304E+02  0.00000000000E+00 0. -1.
</event>
<event>
 7    1  0.2598019E-009  0.4778727E+02  0.7816164E-02  0.1312668E+00
        -11   -1    0    0    0    0  0.00000000000E+00  0.00000000000E+00  0.45593999997E+02  0.45594000000E+02  0.51100000000E-03 0. -1.
         11   -1    0    0    0    0 -0.00000000000E+00 -0.00000000000E+00 -0.45593999997E+02  0.45594000000E+02  0.51100000000E-03 0.  1.
    9900012    2    1    2    0    0 -0.18755144864E+02 -0.13664210276E+02  0.36676385818E+02  0.47787269845E+02  0.19999994530E+02 0.  0.
        -12    1    1    2    0    0  0.18755144864E+02  0.13664210276E+02 -0.36676385818E+02  0.43400730155E+02  0.00000000000E+00 0.  1.
         11    1    3    3    0    0 -0.76131956291E+01 -0.11629293349E+02  0.98548552411E+01  0.17038761210E+02  0.51100000000E-03 0. -1.
        -11    1    3    3    0    0 -0.10223492553E+02  0.23737267927E+01  0.17752313348E+02  0.20622778870E+02  0.51100000000E-03 0.  1.
        -12    1    3    3    0    0 -0.91845668260E+00 -0.44086437197E+01  0.90692172291E+01  0.10125729765E+02  0.00000000000E+00 0.  1.
</event>
<event>
 7    1  0.2598019E-009  0.4778727E+02  0.7816164E-02  0.1312668E+00
        -11   -1    0    0    0    0  0.00000000000E+00  0.00000000000E+00  0.45593999997E+02  0.45594000000E+02  0.51100000000E-03 0. -1.
         11   -1    0    0    0    0 -0.00000000000E+00 -0.00000000000E+00 -0.45593999997E+02  0.45594000000E+02  0.51100000000E-03 0.  1.
    9900012    2    1    2    0    0 -0.27797678488E+02 -0.65398185662E+01  0.32682457544E+02  0.47787272041E+02  0.20000004545E+02 0.  0.
        -12    1    1    2    0    0  0.27797678488E+02  0.65398185662E+01 -0.32682457544E+02  0.43400727959E+02  0.00000000000E+00 0.  1.
         11    1    3    3    0    0 -0.13898666941E+02 -0.98331727036E+01  0.11770261730E+02  0.20697905440E+02  0.51100000000E-03 0. -1.
        -11    1    3    3    0    0 -0.76305800211E+01  0.44330785699E+01  0.54653571185E+01  0.10380176576E+02  0.51100000000E-03 0.  1.
         12    1    3    3    0    0 -0.62684315257E+01 -0.11397244324E+01  0.15446838696E+02  0.16709190025E+02  0.00000000000E+00 0. -1.
</event>
<event>
 7    1  0.2598019E-009  0.4778728E+02  0.7816164E-02  0.1312668E+00
        -11   -1    0    0    0    0  0.00000000000E+00  0.00000000000E+00  0.45593999997E+02  0.45594000000E+02  0.51100000000E-03 0.  1.
         11   -1    0    0    0    0 -0.00000000000E+00 -0.00000000000E+00 -0.45593999997E+02  0.45594000000E+02  0.51100000000E-03 0. -1.
    9900012    2    1    2    0    0  0.35201734672E+02 -0.21014679650E+02 -0.14242324865E+02  0.47787277630E+02  0.20000030025E+02 0.  0.
        -12    1    1    2    0    0 -0.35201734672E+02  0.21014679650E+02  0.14242324865E+02  0.43400722370E+02  0.00000000000E+00 0.  1.
         11    1    3    3    0    0  0.22398479838E+02 -0.63817341435E+01 -0.12500826399E+02  0.26432727643E+02  0.51100000000E-03 0. -1.
        -11    1    3    3    0    0  0.24542441818E+01 -0.92154482102E+01  0.49666506057E-01  0.95367849531E+01  0.51100000000E-03 0.  1.
        -12    1    3    3    0    0  0.10349010653E+02 -0.54174972958E+01 -0.17911649723E+01  0.11817765034E+02  0.00000000000E+00 0.  1.
</event>
<event>
 7    1  0.2598019E-009  0.4778727E+02  0.7816164E-02  0.1312668E+00
        -11   -1    0    0    0    0  0.00000000000E+00  0.00000000000E+00  0.45593999997E+02  0.45594000000E+02  0.51100000000E-03 0. -1.
         11   -1    0    0    0    0 -0.00000000000E+00 -0.00000000000E+00 -0.45593999997E+02  0.45594000000E+02  0.51100000000E-03 0.  1.
    9900012    2    1    2    0    0  0.85029749239E+01 -0.25418160582E+02  0.34135607186E+02  0.47787272496E+02  0.20000006618E+02 0.  0.
        -12    1    1    2    0    0 -0.85029749239E+01  0.25418160582E+02 -0.34135607186E+02  0.43400727504E+02  0.00000000000E+00 0.  1.
         11    1    3    3    0    0  0.21771778877E+01 -0.75110375739E+01  0.15494441780E+02  0.17356080068E+02  0.51100000000E-03 0. -1.
        -11    1    3    3    0    0 -0.20422709330E+01  0.14428179506E+01  0.35870023102E+00  0.25261156583E+01  0.51100000000E-03 0.  1.
        -12    1    3    3    0    0  0.83680679692E+01 -0.19349940959E+02  0.18282465176E+02  0.27905076770E+02  0.00000000000E+00 0.  1.
</event>
<event>
 7    1  0.2598019E-009  0.4778727E+02  0.7816164E-02  0.1312668E+00
        -11   -1    0    0    0    0  0.00000000000E+00  0.00000000000E+00  0.45593999997E+02  0.45594000000E+02  0.51100000000E-03 0.  1.
         11   -1    0    0    0    0 -0.00000000000E+00 -0.00000000000E+00 -0.45593999997E+02  0.45594000000E+02  0.51100000000E-03 0. -1.
    9900012    2    1    2    0    0 -0.21479637069E+02 -0.12583248791E+02 -0.35551515135E+02  0.47787272043E+02  0.20000004555E+02 0.  0.
        -12    1    1    2    0    0  0.21479637069E+02  0.12583248791E+02  0.35551515135E+02  0.43400727957E+02  0.00000000000E+00 0.  1.
         11    1    3    3    0    0 -0.24819000122E+01 -0.53301270713E+00 -0.34064325790E+01  0.42482600430E+01  0.51100000000E-03 0. -1.
        -11    1    3    3    0    0 -0.14581711073E+02 -0.17186763907E+02 -0.25785084329E+02  0.34247360855E+02  0.51100000000E-03 0.  1.
        -12    1    3    3    0    0 -0.44160259831E+01  0.51365278227E+01 -0.63599982272E+01  0.92916511453E+01  0.00000000000E+00 0.  1.
</event>
<event>
 7    1  0.2598019E-009  0.4778726E+02  0.7816164E-02  0.1312668E+00
        -11   -1    0    0    0    0  0.00000000000E+00  0.00000000000E+00  0.45593999997E+02  0.45594000000E+02  0.51100000000E-03 0.  1.
         11   -1    0    0    0    0 -0.00000000000E+00 -0.00000000000E+00 -0.45593999997E+02  0.45594000000E+02  0.51100000000E-03 0. -1.
    9900012    2    1    2    0    0  0.96799348708E+00 -0.38283627854E+02 -0.20421819531E+02  0.47787263992E+02  0.19999967846E+02 0.  0.
        -12    1    1    2    0    0 -0.96799348708E+00  0.38283627854E+02  0.20421819531E+02  0.43400736008E+02  0.00000000000E+00 0.  1.
         11    1    3    3    0    0  0.28866733594E+01 -0.10796068801E+02  0.62154708793E+00  0.11192600488E+02  0.51100000000E-03 0. -1.
        -11    1    3    3    0    0 -0.60698679764E+01 -0.19579400992E+02 -0.17616077518E+02  0.27028178404E+02  0.51100000000E-03 0.  1.
        -12    1    3    3    0    0  0.41511881041E+01 -0.79081580612E+01 -0.34272891009E+01  0.95664851005E+01  0.00000000000E+00 0.  1.
</event>
<event>
 7    1  0.2598019E-009  0.4778727E+02  0.7816164E-02  0.1312668E+00
        -11   -1    0    0    0    0  0.00000000000E+00  0.00000000000E+00  0.45593999997E+02  0.45594000000E+02  0.51100000000E-03 0.  1.
         11   -1    0    0    0    0 -0.00000000000E+00 -0.00000000000E+00 -0.45593999997E+02  0.45594000000E+02  0.51100000000E-03 0. -1.
    9900012    2    1    2    0    0  0.31847686954E+02 -0.25206198320E+02  0.15296911080E+02  0.47787273201E+02  0.20000009833E+02 0.  0.
        -12    1    1    2    0    0 -0.31847686954E+02  0.25206198320E+02 -0.15296911080E+02  0.43400726799E+02  0.00000000000E+00 0.  1.
         11    1    3    3    0    0  0.12035053686E+02 -0.16373735037E+02  0.50803080615E+01  0.20946389821E+02  0.51100000000E-03 0.  1.
        -11    1    3    3    0    0  0.38181145109E+01  0.29142201900E+01  0.77731878195E+00  0.48656862295E+01  0.51100000000E-03 0. -1.
        -12    1    3    3    0    0  0.15994518757E+02 -0.11746683473E+02  0.94392842370E+01  0.21975197151E+02  0.00000000000E+00 0.  1.
</event>
<event>
 7    1  0.2598019E-009  0.4778727E+02  0.7816164E-02  0.1312668E+00
        -11   -1    0    0    0    0  0.00000000000E+00  0.00000000000E+00  0.45593999997E+02  0.45594000000E+02  0.51100000000E-03 0. -1.
         11   -1    0    0    0    0 -0.00000000000E+00 -0.00000000000E+00 -0.45593999997E+02  0.45594000000E+02  0.51100000000E-03 0.  1.
    9900012    2    1    2    0    0 -0.29348905636E+02 -0.31739822911E+02 -0.38534077319E+01  0.47787269919E+02  0.19999994867E+02 0.  0.
        -12    1    1    2    0    0  0.29348905636E+02  0.31739822911E+02  0.38534077319E+01  0.43400730081E+02  0.00000000000E+00 0.  1.
         11    1    3    3    0    0 -0.21478715248E+02 -0.28880420309E+02 -0.45974018521E+01  0.36284293985E+02  0.51100000000E-03 0. -1.
        -11    1    3    3    0    0  0.21962000528E+00 -0.51518660739E+00 -0.24363742770E+01  0.24999140117E+01  0.51100000000E-03 0.  1.
         12    1    3    3    0    0 -0.80898103937E+01 -0.23442159944E+01  0.31803683972E+01  0.90030619223E+01  0.00000000000E+00 0. -1.
</event>
<event>
 7    1  0.2598019E-009  0.4778728E+02  0.7816164E-02  0.1312668E+00
        -11   -1    0    0    0    0  0.00000000000E+00  0.00000000000E+00  0.45593999997E+02  0.45594000000E+02  0.51100000000E-03 0. -1.
         11   -1    0    0    0    0 -0.00000000000E+00 -0.00000000000E+00 -0.45593999997E+02  0.45594000000E+02  0.51100000000E-03 0.  1.
    9900012    2    1    2    0    0 -0.24820749752E+02 -0.35224561460E+02  0.51752554076E+01  0.47787278613E+02  0.20000034509E+02 0.  0.
        -12    1    1    2    0    0  0.24820749752E+02  0.35224561460E+02 -0.51752554076E+01  0.43400721387E+02  0.00000000000E+00 0.  1.
         11    1    3    3    0    0 -0.17249614095E+02 -0.20238588760E+02  0.95741563586E+01  0.28263300084E+02  0.51100000000E-03 0. -1.
        -11    1    3    3    0    0 -0.67589586718E+01 -0.16158200029E+02 -0.45319279213E+01  0.18091692056E+02  0.51100000000E-03 0.  1.
        -12    1    3    3    0    0 -0.81217698542E+00  0.11722273284E+01  0.13302697023E+00  0.14322864727E+01  0.00000000000E+00 0.  1.
</event>
<event>
 7    1  0.2598019E-009  0.4778729E+02  0.7816164E-02  0.1312668E+00
        -11   -1    0    0    0    0  0.00000000000E+00  0.00000000000E+00  0.45593999997E+02  0.45594000000E+02  0.51100000000E-03 0.  1.
         11   -1    0    0    0    0 -0.00000000000E+00 -0.00000000000E+00 -0.45593999997E+02  0.45594000000E+02  0.51100000000E-03 0. -1.
    9900012    2    1    2    0    0 -0.34955203561E+02 -0.14809428399E+02  0.21034175028E+02  0.47787286359E+02  0.20000069824E+02 0.  0.
        -12    1    1    2    0    0  0.34955203561E+02  0.14809428399E+02 -0.21034175028E+02  0.43400713641E+02  0.00000000000E+00 0.  1.
         11    1    3    3    0    0 -0.13886355878E+02 -0.10052653598E+02  0.18039188168E+02  0.24885719478E+02  0.51100000000E-03 0.  1.
        -11    1    3    3    0    0 -0.15975856300E+02 -0.66006348530E+01  0.24298351162E+01  0.17455671397E+02  0.51100000000E-03 0. -1.
        -12    1    3    3    0    0 -0.50929913836E+01  0.18438600517E+01  0.56515174312E+00  0.54458954834E+01  0.00000000000E+00 0.  1.
</event>
<event>
 7    1  0.2598019E-009  0.4778727E+02  0.7816164E-02  0.1312668E+00
        -11   -1    0    0    0    0  0.00000000000E+00  0.00000000000E+00  0.45593999997E+02  0.45594000000E+02  0.51100000000E-03 0. -1.
         11   -1    0    0    0    0 -0.00000000000E+00 -0.00000000000E+00 -0.45593999997E+02  0.45594000000E+02  0.51100000000E-03 0.  1.
    9900012    2    1    2    0    0  0.32077895314E+02  0.28252536357E+02  0.75117276698E+01  0.47787271539E+02  0.20000002254E+02 0.  0.
        -12    1    1    2    0    0 -0.32077895314E+02 -0.28252536357E+02 -0.75117276698E+01  0.43400728461E+02  0.00000000000E+00 0.  1.
         11    1    3    3    0    0  0.18883116604E+02  0.13297713482E+02 -0.51277691399E+01  0.23657880149E+02  0.51100000000E-03 0. -1.
        -11    1    3    3    0    0  0.64093789142E+01  0.99562722066E+01  0.53788858683E+01  0.13005379955E+02  0.51100000000E-03 0.  1.
         12    1    3    3    0    0  0.67853997954E+01  0.49985506690E+01  0.72606109414E+01  0.11124011435E+02  0.00000000000E+00 0. -1.
</event>
<event>
 7    1  0.2598019E-009  0.4778727E+02  0.7816164E-02  0.1312668E+00
        -11   -1    0    0    0    0  0.00000000000E+00  0.00000000000E+00  0.45593999997E+02  0.45594000000E+02  0.51100000000E-03 0. -1.
         11   -1    0    0    0    0 -0.00000000000E+00 -0.00000000000E+00 -0.45593999997E+02  0.45594000000E+02  0.51100000000E-03 0.  1.
    9900012    2    1    2    0    0  0.12879837140E+02 -0.41367124245E+02 -0.25482997071E+01  0.47787274148E+02  0.20000014152E+02 0.  0.
        -12    1    1    2    0    0 -0.12879837140E+02  0.41367124245E+02  0.25482997071E+01  0.43400725852E+02  0.00000000000E+00 0.  1.
         11    1    3    3    0    0  0.96571290821E+01 -0.21414432839E+02  0.36934099758E+01  0.23779809785E+02  0.51100000000E-03 0. -1.
        -11    1    3    3    0    0 -0.14248183905E+01 -0.16304683938E+02 -0.74406853946E+01  0.17978782638E+02  0.51100000000E-03 0.  1.
        -12    1    3    3    0    0  0.46475264483E+01 -0.36480074686E+01  0.11989757117E+01  0.60286817245E+01  0.00000000000E+00 0.  1.
</event>
<event>
 7    1  0.2598019E-009  0.4778727E+02  0.7816164E-02  0.1312668E+00
        -11   -1    0    0    0    0  0.00000000000E+00  0.00000000000E+00  0.45593999997E+02  0.45594000000E+02  0.51100000000E-03 0. -1.
         11   -1    0    0    0    0 -0.00000000000E+00 -0.00000000000E+00 -0.45593999997E+02  0.45594000000E+02  0.51100000000E-03 0.  1.
    9900012    2    1    2    0    0  0.17619379207E+02 -0.21871469638E+02  0.33088057272E+02  0.47787271414E+02  0.20000001684E+02 0.  0.
        -12    1    1    2    0    0 -0.17619379207E+02  0.21871469638E+02 -0.33088057272E+02  0.43400728586E+02  0.00000000000E+00 0.  1.
         11    1    3    3    0    0  0.71796260137E+01  0.36107372877E+00  0.59102526555E+01  0.93063682845E+01  0.51100000000E-03 0. -1.
        -11    1    3    3    0    0 -0.15426375923E+01 -0.92990032615E+01  0.11659809828E+02  0.14993410482E+02  0.51100000000E-03 0.  1.
        -12    1    3    3    0    0  0.11982390785E+02 -0.12933540105E+02  0.15517994788E+02  0.23487492647E+02  0.00000000000E+00 0.  1.
</event>
<event>
 7    1  0.2598019E-009  0.4778727E+02  0.7816164E-02  0.1312668E+00
        -11   -1    0    0    0    0  0.00000000000E+00  0.00000000000E+00  0.45593999997E+02  0.45594000000E+02  0.51100000000E-03 0. -1.
         11   -1    0    0    0    0 -0.00000000000E+00 -0.00000000000E+00 -0.45593999997E+02  0.45594000000E+02  0.51100000000E-03 0.  1.
    9900012    2    1    2    0    0 -0.12471814950E+02 -0.24117151349E+02  0.33859116688E+02  0.47787274888E+02  0.20000017526E+02 0.  0.
        -12    1    1    2    0    0  0.12471814950E+02  0.24117151349E+02 -0.33859116688E+02  0.43400725112E+02  0.00000000000E+00 0.  1.
         11    1    3    3    0    0 -0.84424356233E+01 -0.15136905663E+02  0.23810881445E+02  0.29450954276E+02  0.51100000000E-03 0. -1.
        -11    1    3    3    0    0  0.36675914168E+01 -0.24455495721E+01  0.49421645999E+00  0.44357851256E+01  0.51100000000E-03 0.  1.
        -12    1    3    3    0    0 -0.76969707432E+01 -0.65346961134E+01  0.95540187835E+01  0.13900535487E+02  0.00000000000E+00 0.  1.
</event>
<event>
 7    1  0.2598019E-009  0.4778726E+02  0.7816164E-02  0.1312668E+00
        -11   -1    0    0    0    0  0.00000000000E+00  0.00000000000E+00  0.45593999997E+02  0.45594000000E+02  0.51100000000E-03 0.  1.
         11   -1    0    0    0    0 -0.00000000000E+00 -0.00000000000E+00 -0.45593999997E+02  0.45594000000E+02  0.51100000000E-03 0. -1.
    9900012    2    1    2    0    0 -0.26165134180E+02 -0.91299315227E+01 -0.33401416243E+02  0.47787256881E+02  0.19999935421E+02 0.  0.
        -12    1    1    2    0    0  0.26165134180E+02  0.91299315227E+01  0.33401416243E+02  0.43400743119E+02  0.00000000000E+00 0.  1.
         11    1    3    3    0    0 -0.12661926260E+02  0.27647417087E+01 -0.14623785756E+02  0.19540298959E+02  0.51100000000E-03 0. -1.
        -11    1    3    3    0    0  0.11536320692E+00 -0.63943538000E+01 -0.62560840443E+01  0.89464885301E+01  0.51100000000E-03 0.  1.
        -12    1    3    3    0    0 -0.13618571127E+02 -0.55003194314E+01 -0.12521546443E+02  0.19300469391E+02  0.00000000000E+00 0.  1.
</event>
<event>
 7    1  0.2598019E-009  0.4778727E+02  0.7816164E-02  0.1312668E+00
        -11   -1    0    0    0    0  0.00000000000E+00  0.00000000000E+00  0.45593999997E+02  0.45594000000E+02  0.51100000000E-03 0.  1.
         11   -1    0    0    0    0 -0.00000000000E+00 -0.00000000000E+00 -0.45593999997E+02  0.45594000000E+02  0.51100000000E-03 0. -1.
    9900012    2    1    2    0    0 -0.40755462014E+02 -0.14373232835E+02  0.40032247759E+01  0.47787270574E+02  0.19999997854E+02 0.  0.
        -12    1    1    2    0    0  0.40755462014E+02  0.14373232835E+02 -0.40032247759E+01  0.43400729426E+02  0.00000000000E+00 0.  1.
         11    1    3    3    0    0 -0.24777890100E+02  0.49120731503E+00  0.46404467469E+01  0.25213466019E+02  0.51100000000E-03 0.  1.
        -11    1    3    3    0    0 -0.10867047748E+02 -0.12510942357E+02  0.13019097439E+01  0.16622616360E+02  0.51100000000E-03 0. -1.
        -12    1    3    3    0    0 -0.51105241671E+01 -0.23534977922E+01 -0.19391317149E+01  0.59511881946E+01  0.00000000000E+00 0.  1.
</event>
<event>
 7    1  0.2598019E-009  0.4778726E+02  0.7816164E-02  0.1312668E+00
        -11   -1    0    0    0    0  0.00000000000E+00  0.00000000000E+00  0.45593999997E+02  0.45594000000E+02  0.51100000000E-03 0.  1.
         11   -1    0    0    0    0 -0.00000000000E+00 -0.00000000000E+00 -0.45593999997E+02  0.45594000000E+02  0.51100000000E-03 0. -1.
    9900012    2    1    2    0    0 -0.33142284828E+02 -0.23591375637E+02 -0.15121499675E+02  0.47787264978E+02  0.19999972339E+02 0.  0.
        -12    1    1    2    0    0  0.33142284828E+02  0.23591375637E+02  0.15121499675E+02  0.43400735022E+02  0.00000000000E+00 0.  1.
         11    1    3    3    0    0 -0.12982116177E+02 -0.15266567439E+02 -0.89043798702E+00  0.20059818091E+02  0.51100000000E-03 0. -1.
        -11    1    3    3    0    0 -0.20645485099E+02 -0.83309345006E+01 -0.11699787113E+02  0.25150060505E+02  0.51100000000E-03 0.  1.
        -12    1    3    3    0    0  0.48531644764E+00  0.61263025531E-02 -0.25312745753E+01  0.25773863818E+01  0.00000000000E+00 0.  1.
</event>
<event>
 7    1  0.2598019E-009  0.4778727E+02  0.7816164E-02  0.1312668E+00
        -11   -1    0    0    0    0  0.00000000000E+00  0.00000000000E+00  0.45593999997E+02  0.45594000000E+02  0.51100000000E-03 0.  1.
         11   -1    0    0    0    0 -0.00000000000E+00 -0.00000000000E+00 -0.45593999997E+02  0.45594000000E+02  0.51100000000E-03 0. -1.
    9900012    2    1    2    0    0  0.13673610924E+00 -0.23534225625E+02 -0.36465665918E+02  0.47787271166E+02  0.20000000553E+02 0.  0.
        -12    1    1    2    0    0 -0.13673610924E+00  0.23534225625E+02  0.36465665918E+02  0.43400728834E+02  0.00000000000E+00 0.  1.
         11    1    3    3    0    0  0.18444662819E+00 -0.19552316242E+00  0.19272248446E+01  0.19458791660E+01  0.51100000000E-03 0. -1.
        -11    1    3    3    0    0  0.20247879654E+01 -0.16521571934E+01 -0.15468116564E+01  0.30367772816E+01  0.51100000000E-03 0.  1.
         12    1    3    3    0    0 -0.20724984843E+01 -0.21686545269E+02 -0.36846079106E+02  0.42804614718E+02  0.00000000000E+00 0. -1.
</event>
<event>
 7    1  0.2598019E-009  0.4778728E+02  0.7816164E-02  0.1312668E+00
        -11   -1    0    0    0    0  0.00000000000E+00  0.00000000000E+00  0.45593999997E+02  0.45594000000E+02  0.51100000000E-03 0.  1.
         11   -1    0    0    0    0 -0.00000000000E+00 -0.00000000000E+00 -0.45593999997E+02  0.45594000000E+02  0.51100000000E-03 0. -1.
    9900012    2    1    2    0    0  0.14596339541E+02  0.52021472696E+01 -0.40540190742E+02  0.47787279619E+02  0.20000039095E+02 0.  0.
        -12    1    1    2    0    0 -0.14596339541E+02 -0.52021472696E+01  0.40540190742E+02  0.43400720381E+02  0.00000000000E+00 0.  1.
         11    1    3    3    0    0  0.45737817884E+01  0.12852698378E+01 -0.66246385716E+01  0.81521306951E+01  0.51100000000E-03 0. -1.
        -11    1    3    3    0    0  0.13853997784E+02 -0.81958382787E+00 -0.19045779100E+02  0.23565794576E+02  0.51100000000E-03 0.  1.
        -12    1    3    3    0    0 -0.38314400313E+01  0.47364612597E+01 -0.14869773070E+02  0.16069354348E+02  0.00000000000E+00 0.  1.
</event>
<event>
 7    1  0.2598019E-009  0.4778727E+02  0.7816164E-02  0.1312668E+00
        -11   -1    0    0    0    0  0.00000000000E+00  0.00000000000E+00  0.45593999997E+02  0.45594000000E+02  0.51100000000E-03 0.  1.
         11   -1    0    0    0    0 -0.00000000000E+00 -0.00000000000E+00 -0.45593999997E+02  0.45594000000E+02  0.51100000000E-03 0. -1.
    9900012    2    1    2    0    0  0.18305524109E+02  0.31484373705E+02 -0.23606463053E+02  0.47787273067E+02  0.20000009222E+02 0.  0.
        -12    1    1    2    0    0 -0.18305524109E+02 -0.31484373705E+02  0.23606463053E+02  0.43400726933E+02  0.00000000000E+00 0.  1.
         11    1    3    3    0    0  0.11900833046E+02  0.10334931304E+02 -0.97718783814E+01  0.18545356282E+02  0.51100000000E-03 0. -1.
        -11    1    3    3    0    0 -0.52783728234E-01  0.14464793584E+02 -0.26602157741E+01  0.14707473875E+02  0.51100000000E-03 0.  1.
        -12    1    3    3    0    0  0.64574747906E+01  0.66846488164E+01 -0.11174368897E+02  0.14534442910E+02  0.00000000000E+00 0.  1.
</event>
<event>
 7    1  0.2598019E-009  0.4778727E+02  0.7816164E-02  0.1312668E+00
        -11   -1    0    0    0    0  0.00000000000E+00  0.00000000000E+00  0.45593999997E+02  0.45594000000E+02  0.51100000000E-03 0.  1.
         11   -1    0    0    0    0 -0.00000000000E+00 -0.00000000000E+00 -0.45593999997E+02  0.45594000000E+02  0.51100000000E-03 0. -1.
    9900012    2    1    2    0    0 -0.29576500262E+02  0.24936077915E+02 -0.19673487028E+02  0.47787269114E+02  0.19999991200E+02 0.  0.
        -12    1    1    2    0    0  0.29576500262E+02 -0.24936077915E+02  0.19673487028E+02  0.43400730886E+02  0.00000000000E+00 0.  1.
         11    1    3    3    0    0 -0.93405312937E+01  0.11060799098E+02 -0.10929526092E+02  0.18139496751E+02  0.51100000000E-03 0. -1.
        -11    1    3    3    0    0 -0.13270056413E+02  0.14572509572E+02 -0.18063761387E+01  0.19791802027E+02  0.51100000000E-03 0.  1.
        -12    1    3    3    0    0 -0.69659125556E+01 -0.69723075464E+00 -0.69375847972E+01  0.98559703366E+01  0.00000000000E+00 0.  1.
</event>
<event>
 7    1  0.2598019E-009  0.4778726E+02  0.7816164E-02  0.1312668E+00
        -11   -1    0    0    0    0  0.00000000000E+00  0.00000000000E+00  0.45593999997E+02  0.45594000000E+02  0.51100000000E-03 0.  1.
         11   -1    0    0    0    0 -0.00000000000E+00 -0.00000000000E+00 -0.45593999997E+02  0.45594000000E+02  0.51100000000E-03 0. -1.
    9900012    2    1    2    0    0 -0.16965618122E+02  0.21549883971E+02 -0.33636212938E+02  0.47787256709E+02  0.19999934639E+02 0.  0.
        -12    1    1    2    0    0  0.16965618122E+02 -0.21549883971E+02  0.33636212938E+02  0.43400743291E+02  0.00000000000E+00 0.  1.
         11    1    3    3    0    0 -0.42653831520E+01  0.30262081122E+01 -0.73329017442E+01  0.90068239254E+01  0.51100000000E-03 0. -1.
        -11    1    3    3    0    0  0.11890571255E+00  0.11675977560E+02 -0.19510945716E+02  0.22738064860E+02  0.51100000000E-03 0.  1.
        -12    1    3    3    0    0 -0.12819140683E+02  0.68476982989E+01 -0.67923654769E+01  0.16042367924E+02  0.00000000000E+00 0.  1.
</event>
<event>
 7    1  0.2598019E-009  0.4778727E+02  0.7816164E-02  0.1312668E+00
        -11   -1    0    0    0    0  0.00000000000E+00  0.00000000000E+00  0.45593999997E+02  0.45594000000E+02  0.51100000000E-03 0.  1.
         11   -1    0    0    0    0 -0.00000000000E+00 -0.00000000000E+00 -0.45593999997E+02  0.45594000000E+02  0.51100000000E-03 0. -1.
    9900012    2    1    2    0    0  0.62379197733E+01 -0.34290108699E+02 -0.25863105142E+02  0.47787269531E+02  0.19999993100E+02 0.  0.
        -12    1    1    2    0    0 -0.62379197733E+01  0.34290108699E+02  0.25863105142E+02  0.43400730469E+02  0.00000000000E+00 0.  1.
         11    1    3    3    0    0  0.18701215040E+01 -0.30757596102E+01  0.23239290646E+01  0.42846584669E+01  0.51100000000E-03 0. -1.
        -11    1    3    3    0    0  0.56076084168E+01 -0.18715962062E+02 -0.22248814569E+02  0.29609833807E+02  0.51100000000E-03 0.  1.
         12    1    3    3    0    0 -0.12398101475E+01 -0.12498387026E+02 -0.59382196368E+01  0.13892777257E+02  0.00000000000E+00 0. -1.
</event>
<event>
 7    1  0.2598019E-009  0.4778727E+02  0.7816164E-02  0.1312668E+00
        -11   -1    0    0    0    0  0.00000000000E+00  0.00000000000E+00  0.45593999997E+02  0.45594000000E+02  0.51100000000E-03 0.  1.
         11   -1    0    0    0    0 -0.00000000000E+00 -0.00000000000E+00 -0.45593999997E+02  0.45594000000E+02  0.51100000000E-03 0. -1.
    9900012    2    1    2    0    0 -0.40063485117E+02  0.14992725930E+02  0.73320096629E+01  0.47787273782E+02  0.20000012482E+02 0.  0.
        -12    1    1    2    0    0  0.40063485117E+02 -0.14992725930E+02 -0.73320096629E+01  0.43400726218E+02  0.00000000000E+00 0.  1.
         11    1    3    3    0    0 -0.86457165319E+01  0.34237740371E+01  0.93547954103E+01  0.13190255511E+02  0.51100000000E-03 0. -1.
        -11    1    3    3    0    0 -0.21780442185E+02  0.11922367742E+02 -0.50990319763E+00  0.24835267582E+02  0.51100000000E-03 0.  1.
         12    1    3    3    0    0 -0.96373264002E+01 -0.35341584931E+00 -0.15128825498E+01  0.97617506891E+01  0.00000000000E+00 0. -1.
</event>
<event>
 7    1  0.2598019E-009  0.4778727E+02  0.7816164E-02  0.1312668E+00
        -11   -1    0    0    0    0  0.00000000000E+00  0.00000000000E+00  0.45593999997E+02  0.45594000000E+02  0.51100000000E-03 0.  1.
         11   -1    0    0    0    0 -0.00000000000E+00 -0.00000000000E+00 -0.45593999997E+02  0.45594000000E+02  0.51100000000E-03 0. -1.
    9900012    2    1    2    0    0  0.95834942766E+01  0.29359555066E+00 -0.42328406531E+02  0.47787267744E+02  0.19999984953E+02 0.  0.
        -12    1    1    2    0    0 -0.95834942766E+01 -0.29359555066E+00  0.42328406531E+02  0.43400732256E+02  0.00000000000E+00 0.  1.
         11    1    3    3    0    0  0.10295620988E+02 -0.58062175686E+01 -0.16983792130E+02  0.20692055707E+02  0.51100000000E-03 0. -1.
        -11    1    3    3    0    0 -0.33026733918E+01  0.14004640885E+01 -0.15213593860E+02  0.15630815385E+02  0.51100000000E-03 0.  1.
         12    1    3    3    0    0  0.25905466806E+01  0.46993490309E+01 -0.10131020541E+02  0.11464396653E+02  0.00000000000E+00 0. -1.
</event>
<event>
 7    1  0.2598019E-009  0.4778728E+02  0.7816164E-02  0.1312668E+00
        -11   -1    0    0    0    0  0.00000000000E+00  0.00000000000E+00  0.45593999997E+02  0.45594000000E+02  0.51100000000E-03 0.  1.
         11   -1    0    0    0    0 -0.00000000000E+00 -0.00000000000E+00 -0.45593999997E+02  0.45594000000E+02  0.51100000000E-03 0. -1.
    9900012    2    1    2    0    0  0.11515267117E+02 -0.29337124302E+01 -0.41742239903E+02  0.47787278376E+02  0.20000033425E+02 0.  0.
        -12    1    1    2    0    0 -0.11515267117E+02  0.29337124302E+01  0.41742239903E+02  0.43400721624E+02  0.00000000000E+00 0.  1.
         11    1    3    3    0    0  0.38755215212E+01  0.20686791340E+01 -0.33673904227E+01  0.55351981844E+01  0.51100000000E-03 0.  1.
        -11    1    3    3    0    0  0.81181336714E+00 -0.28239177162E+01 -0.33396859592E+02  0.33525867372E+02  0.51100000000E-03 0. -1.
        -12    1    3    3    0    0  0.68279322288E+01 -0.21784738480E+01 -0.49779898884E+01  0.87262128187E+01  0.00000000000E+00 0.  1.
</event>
<event>
 7    1  0.2598019E-009  0.4778726E+02  0.7816164E-02  0.1312668E+00
        -11   -1    0    0    0    0  0.00000000000E+00  0.00000000000E+00  0.45593999997E+02  0.45594000000E+02  0.51100000000E-03 0.  1.
         11   -1    0    0    0    0 -0.00000000000E+00 -0.00000000000E+00 -0.45593999997E+02  0.45594000000E+02  0.51100000000E-03 0. -1.
    9900012    2    1    2    0    0 -0.10772849194E+02  0.15216251590E+02 -0.39192289735E+02  0.47787260757E+02  0.19999953094E+02 0.  0.
        -12    1    1    2    0    0  0.10772849194E+02 -0.15216251590E+02  0.39192289735E+02  0.43400739243E+02  0.00000000000E+00 0.  1.
         11    1    3    3    0    0 -0.58536252773E+01  0.78996520935E+01 -0.32849464894E+02  0.34289309940E+02  0.51100000000E-03 0. -1.
        -11    1    3    3    0    0 -0.17303135906E+01  0.94270352453E+00  0.18054508087E+01  0.26725134126E+01  0.51100000000E-03 0.  1.
        -12    1    3    3    0    0 -0.31889103262E+01  0.63738959720E+01 -0.81482756497E+01  0.10825437404E+02  0.00000000000E+00 0.  1.
</event>
<event>
 7    1  0.2598019E-009  0.4778728E+02  0.7816164E-02  0.1312668E+00
        -11   -1    0    0    0    0  0.00000000000E+00  0.00000000000E+00  0.45593999997E+02  0.45594000000E+02  0.51100000000E-03 0.  1.
         11   -1    0    0    0    0 -0.00000000000E+00 -0.00000000000E+00 -0.45593999997E+02  0.45594000000E+02  0.51100000000E-03 0. -1.
    9900012    2    1    2    0    0 -0.14904649438E+02 -0.28796513889E+02 -0.28848484653E+02  0.47787275884E+02  0.20000022068E+02 0.  0.
        -12    1    1    2    0    0  0.14904649438E+02  0.28796513889E+02  0.28848484653E+02  0.43400724116E+02  0.00000000000E+00 0.  1.
         11    1    3    3    0    0 -0.54583826765E+01 -0.12710086939E+02 -0.10551697312E+02  0.17397659839E+02  0.51100000000E-03 0. -1.
        -11    1    3    3    0    0  0.20711984836E+01 -0.95181014664E+01 -0.31007738531E+01  0.10222471200E+02  0.51100000000E-03 0.  1.
        -12    1    3    3    0    0 -0.11517465245E+02 -0.65683254832E+01 -0.15196013488E+02  0.20167144846E+02  0.00000000000E+00 0.  1.
</event>
<event>
 7    1  0.2598019E-009  0.4778727E+02  0.7816164E-02  0.1312668E+00
        -11   -1    0    0    0    0  0.00000000000E+00  0.00000000000E+00  0.45593999997E+02  0.45594000000E+02  0.51100000000E-03 0. -1.
         11   -1    0    0    0    0 -0.00000000000E+00 -0.00000000000E+00 -0.45593999997E+02  0.45594000000E+02  0.51100000000E-03 0.  1.
    9900012    2    1    2    0    0 -0.20351552426E+02  0.18709703219E+02  0.33457204340E+02  0.47787271862E+02  0.20000003726E+02 0.  0.
        -12    1    1    2    0    0  0.20351552426E+02 -0.18709703219E+02 -0.33457204340E+02  0.43400728138E+02  0.00000000000E+00 0.  1.
         11    1    3    3    0    0 -0.20511582955E+01 -0.12890451838E+01  0.11390007842E+02  0.11644791400E+02  0.51100000000E-03 0. -1.
        -11    1    3    3    0    0 -0.73000434425E+01  0.38694389579E+01  0.28287352922E+01  0.87329797736E+01  0.51100000000E-03 0.  1.
         12    1    3    3    0    0 -0.11000350688E+02  0.16129309445E+02  0.19238461206E+02  0.27409500688E+02  0.00000000000E+00 0. -1.
</event>
<event>
 7    1  0.2598019E-009  0.4778727E+02  0.7816164E-02  0.1312668E+00
        -11   -1    0    0    0    0  0.00000000000E+00  0.00000000000E+00  0.45593999997E+02  0.45594000000E+02  0.51100000000E-03 0. -1.
         11   -1    0    0    0    0 -0.00000000000E+00 -0.00000000000E+00 -0.45593999997E+02  0.45594000000E+02  0.51100000000E-03 0.  1.
    9900012    2    1    2    0    0 -0.60169733724E+01  0.33703745930E+02  0.26673521897E+02  0.47787271565E+02  0.20000002375E+02 0.  0.
        -12    1    1    2    0    0  0.60169733724E+01 -0.33703745930E+02 -0.26673521897E+02  0.43400728435E+02  0.00000000000E+00 0.  1.
         11    1    3    3    0    0  0.49666233677E+01  0.34128679821E+01  0.27437685072E+01  0.66214259357E+01  0.51100000000E-03 0. -1.
        -11    1    3    3    0    0 -0.10897730204E+02  0.19202991500E+02  0.13137460373E+02  0.25692572301E+02  0.51100000000E-03 0.  1.
         12    1    3    3    0    0 -0.85866536396E-01  0.11087886448E+02  0.10792293016E+02  0.15473273329E+02  0.00000000000E+00 0. -1.
</event>
<event>
 7    1  0.2598019E-009  0.4778727E+02  0.7816164E-02  0.1312668E+00
        -11   -1    0    0    0    0  0.00000000000E+00  0.00000000000E+00  0.45593999997E+02  0.45594000000E+02  0.51100000000E-03 0.  1.
         11   -1    0    0    0    0 -0.00000000000E+00 -0.00000000000E+00 -0.45593999997E+02  0.45594000000E+02  0.51100000000E-03 0. -1.
    9900012    2    1    2    0    0  0.29305561503E+02 -0.11534853105E+01 -0.31991826302E+02  0.47787269436E+02  0.19999992667E+02 0.  0.
        -12    1    1    2    0    0 -0.29305561503E+02  0.11534853105E+01  0.31991826302E+02  0.43400730564E+02  0.00000000000E+00 0.  1.
         11    1    3    3    0    0  0.23860325211E+02 -0.16183812419E+01 -0.26901290503E+02  0.35994634434E+02  0.51100000000E-03 0. -1.
        -11    1    3    3    0    0  0.27193033583E+00  0.42216169135E+01 -0.17373594716E+01  0.45732279264E+01  0.51100000000E-03 0.  1.
         12    1    3    3    0    0  0.51733059559E+01 -0.37567209821E+01 -0.33531763271E+01  0.72194070762E+01  0.00000000000E+00 0. -1.
</event>
<event>
 7    1  0.2598019E-009  0.4778727E+02  0.7816164E-02  0.1312668E+00
        -11   -1    0    0    0    0  0.00000000000E+00  0.00000000000E+00  0.45593999997E+02  0.45594000000E+02  0.51100000000E-03 0. -1.
         11   -1    0    0    0    0 -0.00000000000E+00 -0.00000000000E+00 -0.45593999997E+02  0.45594000000E+02  0.51100000000E-03 0.  1.
    9900012    2    1    2    0    0  0.98213302717E+01  0.16602740421E+01  0.42242256394E+02  0.47787271164E+02  0.20000000545E+02 0.  0.
        -12    1    1    2    0    0 -0.98213302717E+01 -0.16602740421E+01 -0.42242256394E+02  0.43400728836E+02  0.00000000000E+00 0.  1.
         11    1    3    3    0    0  0.45944419613E+01  0.99281848125E+01  0.21294461419E+02  0.23940172055E+02  0.51100000000E-03 0. -1.
        -11    1    3    3    0    0  0.17861484053E+01 -0.41878278431E+01  0.39380574541E+01  0.60196781427E+01  0.51100000000E-03 0.  1.
         12    1    3    3    0    0  0.34407399051E+01 -0.40800829272E+01  0.17009737521E+02  0.17827420967E+02  0.00000000000E+00 0. -1.
</event>
<event>
 7    1  0.2598019E-009  0.4778727E+02  0.7816164E-02  0.1312668E+00
        -11   -1    0    0    0    0  0.00000000000E+00  0.00000000000E+00  0.45593999997E+02  0.45594000000E+02  0.51100000000E-03 0. -1.
         11   -1    0    0    0    0 -0.00000000000E+00 -0.00000000000E+00 -0.45593999997E+02  0.45594000000E+02  0.51100000000E-03 0.  1.
    9900012    2    1    2    0    0 -0.21363819866E+02 -0.21768571714E+02  0.30876201814E+02  0.47787270142E+02  0.19999995888E+02 0.  0.
        -12    1    1    2    0    0  0.21363819866E+02  0.21768571714E+02 -0.30876201814E+02  0.43400729858E+02  0.00000000000E+00 0.  1.
         11    1    3    3    0    0 -0.14133754991E+02 -0.16792680829E+02  0.17433005946E+02  0.28029749485E+02  0.51100000000E-03 0. -1.
        -11    1    3    3    0    0 -0.66371328668E+01  0.83419932911E+00  0.21206040256E+01  0.70174342111E+01  0.51100000000E-03 0.  1.
         12    1    3    3    0    0 -0.59293200807E+00 -0.58100902137E+01  0.11322591842E+02  0.12740086447E+02  0.00000000000E+00 0. -1.
</event>
<event>
 7    1  0.2598019E-009  0.4778728E+02  0.7816164E-02  0.1312668E+00
        -11   -1    0    0    0    0  0.00000000000E+00  0.00000000000E+00  0.45593999997E+02  0.45594000000E+02  0.51100000000E-03 0.  1.
         11   -1    0    0    0    0 -0.00000000000E+00 -0.00000000000E+00 -0.45593999997E+02  0.45594000000E+02  0.51100000000E-03 0. -1.
    9900012    2    1    2    0    0 -0.23323068954E+02  0.33096957687E+01 -0.36451379450E+02  0.47787277709E+02  0.20000030389E+02 0.  0.
        -12    1    1    2    0    0  0.23323068954E+02 -0.33096957687E+01  0.36451379450E+02  0.43400722291E+02  0.00000000000E+00 0.  1.
         11    1    3    3    0    0 -0.12596335701E+02  0.97981658892E+01 -0.18088240838E+02  0.24121695312E+02  0.51100000000E-03 0. -1.
        -11    1    3    3    0    0 -0.55137240349E+01 -0.33207478002E+01 -0.15778102275E+02  0.17040452762E+02  0.51100000000E-03 0.  1.
         12    1    3    3    0    0 -0.52130092185E+01 -0.31677223204E+01 -0.25850363375E+01  0.66251296347E+01  0.00000000000E+00 0. -1.
</event>
<event>
 7    1  0.2598019E-009  0.4778727E+02  0.7816164E-02  0.1312668E+00
        -11   -1    0    0    0    0  0.00000000000E+00  0.00000000000E+00  0.45593999997E+02  0.45594000000E+02  0.51100000000E-03 0.  1.
         11   -1    0    0    0    0 -0.00000000000E+00 -0.00000000000E+00 -0.45593999997E+02  0.45594000000E+02  0.51100000000E-03 0. -1.
    9900012    2    1    2    0    0 -0.13737502952E+01  0.22503243770E+02 -0.37085580244E+02  0.47787269222E+02  0.19999991689E+02 0.  0.
        -12    1    1    2    0    0  0.13737502952E+01 -0.22503243770E+02  0.37085580244E+02  0.43400730778E+02  0.00000000000E+00 0.  1.
         11    1    3    3    0    0  0.10794817391E+01  0.65691661792E+00 -0.55546056061E+01  0.56965308714E+01  0.51100000000E-03 0. -1.
        -11    1    3    3    0    0 -0.45355702506E+01  0.88044446861E+01 -0.25907944406E+02  0.27736460253E+02  0.51100000000E-03 0.  1.
        -12    1    3    3    0    0  0.20823382163E+01  0.13041882466E+02 -0.56230302317E+01  0.14354278097E+02  0.00000000000E+00 0.  1.
</event>
<event>
 7    1  0.2598019E-009  0.4778726E+02  0.7816164E-02  0.1312668E+00
        -11   -1    0    0    0    0  0.00000000000E+00  0.00000000000E+00  0.45593999997E+02  0.45594000000E+02  0.51100000000E-03 0.  1.
         11   -1    0    0    0    0 -0.00000000000E+00 -0.00000000000E+00 -0.45593999997E+02  0.45594000000E+02  0.51100000000E-03 0. -1.
    9900012    2    1    2    0    0  0.14926808194E+02  0.40224673407E+02 -0.65414553582E+01  0.47787255861E+02  0.19999930774E+02 0.  0.
        -12    1    1    2    0    0 -0.14926808194E+02 -0.40224673407E+02  0.65414553582E+01  0.43400744139E+02  0.00000000000E+00 0.  1.
         11    1    3    3    0    0  0.90186276115E+01  0.18456833322E+02 -0.45076606540E+01  0.21031151778E+02  0.51100000000E-03 0. -1.
        -11    1    3    3    0    0 -0.27405951585E+01  0.10822097247E+02  0.35725459229E+01  0.11721422067E+02  0.51100000000E-03 0.  1.
        -12    1    3    3    0    0  0.86487757409E+01  0.10945742838E+02 -0.56063406270E+01  0.15034682016E+02  0.00000000000E+00 0.  1.
</event>
<event>
 7    1  0.2598019E-009  0.4778727E+02  0.7816164E-02  0.1312668E+00
        -11   -1    0    0    0    0  0.00000000000E+00  0.00000000000E+00  0.45593999997E+02  0.45594000000E+02  0.51100000000E-03 0.  1.
         11   -1    0    0    0    0 -0.00000000000E+00 -0.00000000000E+00 -0.45593999997E+02  0.45594000000E+02  0.51100000000E-03 0. -1.
    9900012    2    1    2    0    0 -0.61495555698E+01  0.21418382856E+02 -0.37243241305E+02  0.47787272117E+02  0.20000004891E+02 0.  0.
        -12    1    1    2    0    0  0.61495555698E+01 -0.21418382856E+02  0.37243241305E+02  0.43400727883E+02  0.00000000000E+00 0.  1.
         11    1    3    3    0    0 -0.74512636923E+01  0.29346148578E+01 -0.15523511724E+02  0.17467475819E+02  0.51100000000E-03 0. -1.
        -11    1    3    3    0    0  0.52500492410E+01  0.57264816637E+01 -0.88011375347E+01  0.11739490255E+02  0.51100000000E-03 0.  1.
         12    1    3    3    0    0 -0.39483411185E+01  0.12757286335E+02 -0.12918592046E+02  0.18580306043E+02  0.00000000000E+00 0. -1.
</event>
<event>
 7    1  0.2598019E-009  0.4778726E+02  0.7816164E-02  0.1312668E+00
        -11   -1    0    0    0    0  0.00000000000E+00  0.00000000000E+00  0.45593999997E+02  0.45594000000E+02  0.51100000000E-03 0.  1.
         11   -1    0    0    0    0 -0.00000000000E+00 -0.00000000000E+00 -0.45593999997E+02  0.45594000000E+02  0.51100000000E-03 0. -1.
    9900012    2    1    2    0    0 -0.28605672283E+02 -0.24622453719E+01 -0.32546540433E+02  0.47787257689E+02  0.19999939105E+02 0.  0.
        -12    1    1    2    0    0  0.28605672283E+02  0.24622453719E+01  0.32546540433E+02  0.43400742311E+02  0.00000000000E+00 0.  1.
         11    1    3    3    0    0 -0.60631199362E+01 -0.14217579723E+01 -0.16302079782E+02  0.17451092360E+02  0.51100000000E-03 0. -1.
        -11    1    3    3    0    0 -0.22342620358E+02 -0.12316161701E+01 -0.10732473787E+02  0.24817243133E+02  0.51100000000E-03 0.  1.
        -12    1    3    3    0    0 -0.19993198787E+00  0.19112877052E+00 -0.55119868642E+01  0.55189221953E+01  0.00000000000E+00 0.  1.
</event>
<event>
 7    1  0.2598019E-009  0.4778728E+02  0.7816164E-02  0.1312668E+00
        -11   -1    0    0    0    0  0.00000000000E+00  0.00000000000E+00  0.45593999997E+02  0.45594000000E+02  0.51100000000E-03 0.  1.
         11   -1    0    0    0    0 -0.00000000000E+00 -0.00000000000E+00 -0.45593999997E+02  0.45594000000E+02  0.51100000000E-03 0. -1.
    9900012    2    1    2    0    0 -0.40308815453E+02 -0.16043943088E+02 -0.11891349181E+01  0.47787277023E+02  0.20000027260E+02 0.  0.
        -12    1    1    2    0    0  0.40308815453E+02  0.16043943088E+02  0.11891349181E+01  0.43400722977E+02  0.00000000000E+00 0.  1.
         11    1    3    3    0    0 -0.23347962104E+02 -0.91934458416E+01  0.45081018012E+01  0.25494504564E+02  0.51100000000E-03 0. -1.
        -11    1    3    3    0    0 -0.13642158851E+02 -0.25901387377E+01  0.72127250051E+00  0.13904587411E+02  0.51100000000E-03 0.  1.
         12    1    3    3    0    0 -0.33186944983E+01 -0.42603585089E+01 -0.64185092198E+01  0.83881850482E+01  0.00000000000E+00 0. -1.
</event>
<event>
 7    1  0.2598019E-009  0.4778727E+02  0.7816164E-02  0.1312668E+00
        -11   -1    0    0    0    0  0.00000000000E+00  0.00000000000E+00  0.45593999997E+02  0.45594000000E+02  0.51100000000E-03 0.  1.
         11   -1    0    0    0    0 -0.00000000000E+00 -0.00000000000E+00 -0.45593999997E+02  0.45594000000E+02  0.51100000000E-03 0. -1.
    9900012    2    1    2    0    0  0.33961760138E+02  0.23602353599E+02 -0.13158683266E+02  0.47787271984E+02  0.20000004282E+02 0.  0.
        -12    1    1    2    0    0 -0.33961760138E+02 -0.23602353599E+02  0.13158683266E+02  0.43400728016E+02  0.00000000000E+00 0.  1.
         11    1    3    3    0    0 -0.13514452691E+00  0.24603925295E+01 -0.43702979867E+01  0.50171007759E+01  0.51100000000E-03 0.  1.
        -11    1    3    3    0    0  0.54436503993E+01 -0.89860317997E+00  0.19604936365E+00  0.55208018402E+01  0.51100000000E-03 0. -1.
         12    1    3    3    0    0  0.28653254265E+02  0.22040564250E+02 -0.89844346425E+01  0.37249369368E+02  0.00000000000E+00 0. -1.
</event>
<event>
 7    1  0.2598019E-009  0.4778727E+02  0.7816164E-02  0.1312668E+00
        -11   -1    0    0    0    0  0.00000000000E+00  0.00000000000E+00  0.45593999997E+02  0.45594000000E+02  0.51100000000E-03 0.  1.
         11   -1    0    0    0    0 -0.00000000000E+00 -0.00000000000E+00 -0.45593999997E+02  0.45594000000E+02  0.51100000000E-03 0. -1.
    9900012    2    1    2    0    0  0.31092525856E+02 -0.30157560426E+02 -0.27201951464E+01  0.47787273317E+02  0.20000010361E+02 0.  0.
        -12    1    1    2    0    0 -0.31092525856E+02  0.30157560426E+02  0.27201951464E+01  0.43400726683E+02  0.00000000000E+00 0.  1.
         11    1    3    3    0    0  0.11223592131E+02 -0.81517887290E+01 -0.10015444725E+02  0.17109348705E+02  0.51100000000E-03 0. -1.
        -11    1    3    3    0    0  0.10132497215E+02 -0.98524026721E+01  0.46785506113E+01  0.14887114372E+02  0.51100000000E-03 0.  1.
         12    1    3    3    0    0  0.97364365093E+01 -0.12153369025E+02  0.26166989669E+01  0.15790810240E+02  0.00000000000E+00 0. -1.
</event>
<event>
 7    1  0.2598019E-009  0.4778726E+02  0.7816164E-02  0.1312668E+00
        -11   -1    0    0    0    0  0.00000000000E+00  0.00000000000E+00  0.45593999997E+02  0.45594000000E+02  0.51100000000E-03 0. -1.
         11   -1    0    0    0    0 -0.00000000000E+00 -0.00000000000E+00 -0.45593999997E+02  0.45594000000E+02  0.51100000000E-03 0.  1.
    9900012    2    1    2    0    0  0.33926127800E+01  0.38717258763E+02  0.19315489606E+02  0.47787261685E+02  0.19999957325E+02 0.  0.
        -12    1    1    2    0    0 -0.33926127800E+01 -0.38717258763E+02 -0.19315489606E+02  0.43400738315E+02  0.00000000000E+00 0.  1.
         11    1    3    3    0    0  0.19000698196E+01  0.27952787072E+01  0.85983818138E+01  0.92388320933E+01  0.51100000000E-03 0. -1.
        -11    1    3    3    0    0  0.33501397729E+01  0.19398457440E+02  0.20348084790E+01  0.19790503615E+02  0.51100000000E-03 0.  1.
        -12    1    3    3    0    0 -0.18575968125E+01  0.16523522616E+02  0.86822993133E+01  0.18757925976E+02  0.00000000000E+00 0.  1.
</event>
<event>
 7    1  0.2598019E-009  0.4778727E+02  0.7816164E-02  0.1312668E+00
        -11   -1    0    0    0    0  0.00000000000E+00  0.00000000000E+00  0.45593999997E+02  0.45594000000E+02  0.51100000000E-03 0. -1.
         11   -1    0    0    0    0 -0.00000000000E+00 -0.00000000000E+00 -0.45593999997E+02  0.45594000000E+02  0.51100000000E-03 0.  1.
    9900012    2    1    2    0    0  0.27151846534E+02 -0.40124164308E+00  0.33856158876E+02  0.47787271217E+02  0.20000000786E+02 0.  0.
        -12    1    1    2    0    0 -0.27151846534E+02  0.40124164308E+00 -0.33856158876E+02  0.43400728783E+02  0.00000000000E+00 0.  1.
         11    1    3    3    0    0  0.18769478191E+02  0.91286287234E+01  0.22330169335E+02  0.30565693787E+02  0.51100000000E-03 0. -1.
        -11    1    3    3    0    0  0.32165057571E+01 -0.44903099117E+01  0.57978292110E+01  0.80077222860E+01  0.51100000000E-03 0.  1.
         12    1    3    3    0    0  0.51658625864E+01 -0.50395604547E+01  0.57281603301E+01  0.92138551435E+01  0.00000000000E+00 0. -1.
</event>
<event>
 7    1  0.2598019E-009  0.4778727E+02  0.7816164E-02  0.1312668E+00
        -11   -1    0    0    0    0  0.00000000000E+00  0.00000000000E+00  0.45593999997E+02  0.45594000000E+02  0.51100000000E-03 0. -1.
         11   -1    0    0    0    0 -0.00000000000E+00 -0.00000000000E+00 -0.45593999997E+02  0.45594000000E+02  0.51100000000E-03 0.  1.
    9900012    2    1    2    0    0 -0.10072822578E+02  0.37872197350E+02 -0.18650955866E+02  0.47787271418E+02  0.20000001702E+02 0.  0.
        -12    1    1    2    0    0  0.10072822578E+02 -0.37872197350E+02  0.18650955866E+02  0.43400728582E+02  0.00000000000E+00 0.  1.
         11    1    3    3    0    0 -0.11778934846E+01  0.92095714889E+00  0.23038018630E+01  0.27464701740E+01  0.51100000000E-03 0. -1.
        -11    1    3    3    0    0 -0.43267786244E+01  0.30863149573E+02 -0.20723026766E+02  0.37425911524E+02  0.51100000000E-03 0.  1.
        -12    1    3    3    0    0 -0.45681504685E+01  0.60880906282E+01 -0.23173096225E+00  0.76148897194E+01  0.00000000000E+00 0.  1.
</event>
<event>
 7    1  0.2598019E-009  0.4778727E+02  0.7816164E-02  0.1312668E+00
        -11   -1    0    0    0    0  0.00000000000E+00  0.00000000000E+00  0.45593999997E+02  0.45594000000E+02  0.51100000000E-03 0.  1.
         11   -1    0    0    0    0 -0.00000000000E+00 -0.00000000000E+00 -0.45593999997E+02  0.45594000000E+02  0.51100000000E-03 0. -1.
    9900012    2    1    2    0    0 -0.26717550999E+02 -0.32940894794E+02  0.92028907462E+01  0.47787270982E+02  0.19999999715E+02 0.  0.
        -12    1    1    2    0    0  0.26717550999E+02  0.32940894794E+02 -0.92028907462E+01  0.43400729018E+02  0.00000000000E+00 0.  1.
         11    1    3    3    0    0 -0.13401943274E+02 -0.11915771452E+02 -0.20904717546E+01  0.18054577404E+02  0.51100000000E-03 0. -1.
        -11    1    3    3    0    0 -0.13318862734E+02 -0.19117247972E+02  0.13410179396E+02  0.26882972050E+02  0.51100000000E-03 0.  1.
        -12    1    3    3    0    0  0.32550088635E-02 -0.19078753700E+01 -0.21168168947E+01  0.28497215282E+01  0.00000000000E+00 0.  1.
</event>
<event>
 7    1  0.2598019E-009  0.4778728E+02  0.7816164E-02  0.1312668E+00
        -11   -1    0    0    0    0  0.00000000000E+00  0.00000000000E+00  0.45593999997E+02  0.45594000000E+02  0.51100000000E-03 0.  1.
         11   -1    0    0    0    0 -0.00000000000E+00 -0.00000000000E+00 -0.45593999997E+02  0.45594000000E+02  0.51100000000E-03 0. -1.
    9900012    2    1    2    0    0  0.74583811558E+01 -0.37322803935E+02 -0.20856741257E+02  0.47787276516E+02  0.20000024947E+02 0.  0.
        -12    1    1    2    0    0 -0.74583811558E+01  0.37322803935E+02  0.20856741257E+02  0.43400723484E+02  0.00000000000E+00 0.  1.
         11    1    3    3    0    0  0.13878914972E+02 -0.23103518723E+02 -0.10107204335E+02  0.28784586812E+02  0.51100000000E-03 0.  1.
        -11    1    3    3    0    0 -0.42557027725E+01 -0.78034311516E+01 -0.57586154333E+01  0.10590854347E+02  0.51100000000E-03 0. -1.
        -12    1    3    3    0    0 -0.21648310436E+01 -0.64158540605E+01 -0.49909214888E+01  0.84118353574E+01  0.00000000000E+00 0.  1.
</event>
<event>
 7    1  0.2598019E-009  0.4778727E+02  0.7816164E-02  0.1312668E+00
        -11   -1    0    0    0    0  0.00000000000E+00  0.00000000000E+00  0.45593999997E+02  0.45594000000E+02  0.51100000000E-03 0. -1.
         11   -1    0    0    0    0 -0.00000000000E+00 -0.00000000000E+00 -0.45593999997E+02  0.45594000000E+02  0.51100000000E-03 0.  1.
    9900012    2    1    2    0    0 -0.15055593588E+02 -0.37639647601E+02 -0.15498695438E+02  0.47787268092E+02  0.19999986540E+02 0.  0.
        -12    1    1    2    0    0  0.15055593588E+02  0.37639647601E+02  0.15498695438E+02  0.43400731908E+02  0.00000000000E+00 0.  1.
         11    1    3    3    0    0 -0.54993578821E+01 -0.47139040362E+00 -0.22774188168E+01  0.59709113841E+01  0.51100000000E-03 0. -1.
        -11    1    3    3    0    0 -0.25701403238E+00  0.54774410483E+00  0.31224809399E+00  0.68086632354E+00  0.51100000000E-03 0.  1.
         12    1    3    3    0    0 -0.92992216739E+01 -0.37716001302E+02 -0.13533524716E+02  0.41135490385E+02  0.00000000000E+00 0. -1.
</event>
<event>
 7    1  0.2598019E-009  0.4778727E+02  0.7816164E-02  0.1312668E+00
        -11   -1    0    0    0    0  0.00000000000E+00  0.00000000000E+00  0.45593999997E+02  0.45594000000E+02  0.51100000000E-03 0.  1.
         11   -1    0    0    0    0 -0.00000000000E+00 -0.00000000000E+00 -0.45593999997E+02  0.45594000000E+02  0.51100000000E-03 0. -1.
    9900012    2    1    2    0    0  0.15254794079E+02  0.40324748704E+02 -0.49828733137E+01  0.47787272738E+02  0.20000007720E+02 0.  0.
        -12    1    1    2    0    0 -0.15254794079E+02 -0.40324748704E+02  0.49828733137E+01  0.43400727262E+02  0.00000000000E+00 0.  1.
         11    1    3    3    0    0  0.15504440374E+02  0.27834586271E+02 -0.93287971845E+01  0.33199071092E+02  0.51100000000E-03 0. -1.
        -11    1    3    3    0    0  0.63147291499E+00  0.34237990650E+00  0.20786616546E+01  0.21992763760E+01  0.51100000000E-03 0.  1.
         12    1    3    3    0    0 -0.88111921043E+00  0.12147782527E+02  0.22672622162E+01  0.12388925269E+02  0.00000000000E+00 0. -1.
</event>
<event>
 7    1  0.2598019E-009  0.4778727E+02  0.7816164E-02  0.1312668E+00
        -11   -1    0    0    0    0  0.00000000000E+00  0.00000000000E+00  0.45593999997E+02  0.45594000000E+02  0.51100000000E-03 0. -1.
         11   -1    0    0    0    0 -0.00000000000E+00 -0.00000000000E+00 -0.45593999997E+02  0.45594000000E+02  0.51100000000E-03 0.  1.
    9900012    2    1    2    0    0 -0.18319031629E+02 -0.21199730317E+02  0.33145256225E+02  0.47787268491E+02  0.19999988358E+02 0.  0.
        -12    1    1    2    0    0  0.18319031629E+02  0.21199730317E+02 -0.33145256225E+02  0.43400731509E+02  0.00000000000E+00 0.  1.
         11    1    3    3    0    0 -0.17019966539E+02 -0.10883511899E+02  0.21193317191E+02  0.29279460140E+02  0.51100000000E-03 0. -1.
        -11    1    3    3    0    0  0.20810247397E+01 -0.10354811200E+02  0.76732217448E+01  0.13054926701E+02  0.51100000000E-03 0.  1.
        -12    1    3    3    0    0 -0.33800898294E+01  0.38592782001E-01  0.42787172885E+01  0.54528816503E+01  0.00000000000E+00 0.  1.
</event>
<event>
 7    1  0.2598019E-009  0.4778727E+02  0.7816164E-02  0.1312668E+00
        -11   -1    0    0    0    0  0.00000000000E+00  0.00000000000E+00  0.45593999997E+02  0.45594000000E+02  0.51100000000E-03 0.  1.
         11   -1    0    0    0    0 -0.00000000000E+00 -0.00000000000E+00 -0.45593999997E+02  0.45594000000E+02  0.51100000000E-03 0. -1.
    9900012    2    1    2    0    0 -0.34320273112E+02  0.21247480779E+01 -0.26480697459E+02  0.47787273753E+02  0.20000012349E+02 0.  0.
        -12    1    1    2    0    0  0.34320273112E+02 -0.21247480779E+01  0.26480697459E+02  0.43400726247E+02  0.00000000000E+00 0.  1.
         11    1    3    3    0    0 -0.36098096580E+02  0.13082778541E+01 -0.20705073430E+02  0.41635132204E+02  0.51100000000E-03 0. -1.
        -11    1    3    3    0    0  0.63131576609E+00  0.73147905929E+00 -0.28093890028E+01  0.29709069391E+01  0.51100000000E-03 0.  1.
         12    1    3    3    0    0  0.11465077024E+01  0.84991164523E-01 -0.29662350263E+01  0.31812346095E+01  0.00000000000E+00 0. -1.
</event>
<event>
 7    1  0.2598019E-009  0.4778727E+02  0.7816164E-02  0.1312668E+00
        -11   -1    0    0    0    0  0.00000000000E+00  0.00000000000E+00  0.45593999997E+02  0.45594000000E+02  0.51100000000E-03 0.  1.
         11   -1    0    0    0    0 -0.00000000000E+00 -0.00000000000E+00 -0.45593999997E+02  0.45594000000E+02  0.51100000000E-03 0. -1.
    9900012    2    1    2    0    0  0.23548696819E+02 -0.15291407213E+02 -0.33094634779E+02  0.47787272960E+02  0.20000008735E+02 0.  0.
        -12    1    1    2    0    0 -0.23548696819E+02  0.15291407213E+02  0.33094634779E+02  0.43400727040E+02  0.00000000000E+00 0.  1.
         11    1    3    3    0    0  0.36236958090E+01 -0.82849095022E+01 -0.56459836468E+01  0.10660582929E+02  0.51100000000E-03 0. -1.
        -11    1    3    3    0    0  0.18835164518E+02 -0.20404177393E+01 -0.25299578964E+02  0.31606888853E+02  0.51100000000E-03 0.  1.
        -12    1    3    3    0    0  0.10898364914E+01 -0.49660799717E+01 -0.21490721684E+01  0.55198011783E+01  0.00000000000E+00 0.  1.
</event>
<event>
 7    1  0.2598019E-009  0.4778727E+02  0.7816164E-02  0.1312668E+00
        -11   -1    0    0    0    0  0.00000000000E+00  0.00000000000E+00  0.45593999997E+02  0.45594000000E+02  0.51100000000E-03 0.  1.
         11   -1    0    0    0    0 -0.00000000000E+00 -0.00000000000E+00 -0.45593999997E+02  0.45594000000E+02  0.51100000000E-03 0. -1.
    9900012    2    1    2    0    0 -0.22450993714E+02  0.18843513693E+02 -0.32007783715E+02  0.47787270221E+02  0.19999996243E+02 0.  0.
        -12    1    1    2    0    0  0.22450993714E+02 -0.18843513693E+02  0.32007783715E+02  0.43400729779E+02  0.00000000000E+00 0.  1.
         11    1    3    3    0    0 -0.76602943308E+01  0.11661535462E+02 -0.11812359054E+02  0.18281229314E+02  0.51100000000E-03 0. -1.
        -11    1    3    3    0    0 -0.44105847499E+01 -0.48706088336E+00 -0.14916092106E+02  0.15562142851E+02  0.51100000000E-03 0.  1.
        -12    1    3    3    0    0 -0.10380114634E+02  0.76690391143E+01 -0.52793325549E+01  0.13943898055E+02  0.00000000000E+00 0.  1.
</event>
<event>
 7    1  0.2598019E-009  0.4778727E+02  0.7816164E-02  0.1312668E+00
        -11   -1    0    0    0    0  0.00000000000E+00  0.00000000000E+00  0.45593999997E+02  0.45594000000E+02  0.51100000000E-03 0.  1.
         11   -1    0    0    0    0 -0.00000000000E+00 -0.00000000000E+00 -0.45593999997E+02  0.45594000000E+02  0.51100000000E-03 0. -1.
    9900012    2    1    2    0    0  0.39065612998E+02 -0.16097714787E+02  0.99178993593E+01  0.47787271112E+02  0.20000000308E+02 0.  0.
        -12    1    1    2    0    0 -0.39065612998E+02  0.16097714787E+02 -0.99178993593E+01  0.43400728888E+02  0.00000000000E+00 0.  1.
         11    1    3    3    0    0 -0.14144305926E+01 -0.14928660794E+01  0.90596527505E+00  0.22472285983E+01  0.51100000000E-03 0.  1.
        -11    1    3    3    0    0  0.28972599385E+02 -0.14026862159E+02  0.10642684025E+02  0.33903260915E+02  0.51100000000E-03 0. -1.
        -12    1    3    3    0    0  0.11507444206E+02 -0.57798654911E+00 -0.16307499410E+01  0.11636781599E+02  0.00000000000E+00 0.  1.
</event>
<event>
 7    1  0.2598019E-009  0.4778727E+02  0.7816164E-02  0.1312668E+00
        -11   -1    0    0    0    0  0.00000000000E+00  0.00000000000E+00  0.45593999997E+02  0.45594000000E+02  0.51100000000E-03 0. -1.
         11   -1    0    0    0    0 -0.00000000000E+00 -0.00000000000E+00 -0.45593999997E+02  0.45594000000E+02  0.51100000000E-03 0.  1.
    9900012    2    1    2    0    0  0.28098527207E+02  0.18161951255E+01  0.33027223972E+02  0.47787270522E+02  0.19999997617E+02 0.  0.
        -12    1    1    2    0    0 -0.28098527207E+02 -0.18161951255E+01 -0.33027223972E+02  0.43400729478E+02  0.00000000000E+00 0.  1.
         11    1    3    3    0    0  0.23348059790E+02  0.74505918792E+01  0.19978186534E+02  0.31619158002E+02  0.51100000000E-03 0. -1.
        -11    1    3    3    0    0  0.92482216513E+00 -0.32195471830E+00 -0.51533337103E+00  0.11065801472E+01  0.51100000000E-03 0.  1.
         12    1    3    3    0    0  0.38256452525E+01 -0.53124420353E+01  0.13564370809E+02  0.15061532373E+02  0.00000000000E+00 0. -1.
</event>
<event>
 7    1  0.2598019E-009  0.4778727E+02  0.7816164E-02  0.1312668E+00
        -11   -1    0    0    0    0  0.00000000000E+00  0.00000000000E+00  0.45593999997E+02  0.45594000000E+02  0.51100000000E-03 0.  1.
         11   -1    0    0    0    0 -0.00000000000E+00 -0.00000000000E+00 -0.45593999997E+02  0.45594000000E+02  0.51100000000E-03 0. -1.
    9900012    2    1    2    0    0 -0.41743290249E+01 -0.39805503735E+02 -0.16784524818E+02  0.47787269317E+02  0.19999992125E+02 0.  0.
        -12    1    1    2    0    0  0.41743290249E+01  0.39805503735E+02  0.16784524818E+02  0.43400730683E+02  0.00000000000E+00 0.  1.
         11    1    3    3    0    0 -0.88798862252E+01 -0.34385980141E+02 -0.16374593991E+02  0.39107228722E+02  0.51100000000E-03 0. -1.
        -11    1    3    3    0    0  0.48868399857E+01 -0.43173402699E+01 -0.19238391008E+01  0.67986608386E+01  0.51100000000E-03 0.  1.
         12    1    3    3    0    0 -0.18128278547E+00 -0.11021833241E+01  0.15139082739E+01  0.18813797570E+01  0.00000000000E+00 0. -1.
</event>
<event>
 7    1  0.2598019E-009  0.4778729E+02  0.7816164E-02  0.1312668E+00
        -11   -1    0    0    0    0  0.00000000000E+00  0.00000000000E+00  0.45593999997E+02  0.45594000000E+02  0.51100000000E-03 0. -1.
         11   -1    0    0    0    0 -0.00000000000E+00 -0.00000000000E+00 -0.45593999997E+02  0.45594000000E+02  0.51100000000E-03 0.  1.
    9900012    2    1    2    0    0  0.32039443105E+01 -0.43164529501E+02  0.31905337445E+01  0.47787292958E+02  0.20000099912E+02 0.  0.
        -12    1    1    2    0    0 -0.32039443105E+01  0.43164529501E+02 -0.31905337445E+01  0.43400707042E+02  0.00000000000E+00 0.  1.
         11    1    3    3    0    0 -0.51590113073E+01 -0.10052417447E+02  0.26767890107E+01  0.11611705037E+02  0.51100000000E-03 0. -1.
        -11    1    3    3    0    0  0.99983239900E+01 -0.16181777515E+02 -0.13238124719E+01  0.19067482421E+02  0.51100000000E-03 0.  1.
         12    1    3    3    0    0 -0.16353683722E+01 -0.16930334539E+02  0.18375572058E+01  0.17108105500E+02  0.00000000000E+00 0. -1.
</event>
<event>
 7    1  0.2598019E-009  0.4778727E+02  0.7816164E-02  0.1312668E+00
        -11   -1    0    0    0    0  0.00000000000E+00  0.00000000000E+00  0.45593999997E+02  0.45594000000E+02  0.51100000000E-03 0.  1.
         11   -1    0    0    0    0 -0.00000000000E+00 -0.00000000000E+00 -0.45593999997E+02  0.45594000000E+02  0.51100000000E-03 0. -1.
    9900012    2    1    2    0    0  0.20434707160E+02 -0.61452712375E+01 -0.37792613773E+02  0.47787271076E+02  0.20000000144E+02 0.  0.
        -12    1    1    2    0    0 -0.20434707160E+02  0.61452712375E+01  0.37792613773E+02  0.43400728924E+02  0.00000000000E+00 0.  1.
         11    1    3    3    0    0  0.98105823885E+01  0.16313890261E+00 -0.25107676337E+02  0.26956809017E+02  0.51100000000E-03 0. -1.
        -11    1    3    3    0    0  0.10108657590E+02 -0.29875785316E+01 -0.35915614773E+01  0.11135973144E+02  0.51100000000E-03 0.  1.
        -12    1    3    3    0    0  0.51546718198E+00 -0.33208316085E+01 -0.90933759591E+01  0.96944889150E+01  0.00000000000E+00 0.  1.
</event>
<event>
 7    1  0.2598019E-009  0.4778727E+02  0.7816164E-02  0.1312668E+00
        -11   -1    0    0    0    0  0.00000000000E+00  0.00000000000E+00  0.45593999997E+02  0.45594000000E+02  0.51100000000E-03 0.  1.
         11   -1    0    0    0    0 -0.00000000000E+00 -0.00000000000E+00 -0.45593999997E+02  0.45594000000E+02  0.51100000000E-03 0. -1.
    9900012    2    1    2    0    0  0.27134270272E+02 -0.78603044642E+01 -0.32947991288E+02  0.47787272593E+02  0.20000007062E+02 0.  0.
        -12    1    1    2    0    0 -0.27134270272E+02  0.78603044642E+01  0.32947991288E+02  0.43400727407E+02  0.00000000000E+00 0.  1.
         11    1    3    3    0    0  0.79904535676E+01  0.46034286286E+01 -0.45362273724E+01  0.10276977298E+02  0.51100000000E-03 0. -1.
        -11    1    3    3    0    0  0.13637656368E+02 -0.10306059917E+02 -0.14579702933E+02  0.22467048763E+02  0.51100000000E-03 0.  1.
         12    1    3    3    0    0  0.55061603364E+01 -0.21576731757E+01 -0.13832060983E+02  0.15043246532E+02  0.00000000000E+00 0. -1.
</event>
<event>
 7    1  0.2598019E-009  0.4778727E+02  0.7816164E-02  0.1312668E+00
        -11   -1    0    0    0    0  0.00000000000E+00  0.00000000000E+00  0.45593999997E+02  0.45594000000E+02  0.51100000000E-03 0.  1.
         11   -1    0    0    0    0 -0.00000000000E+00 -0.00000000000E+00 -0.45593999997E+02  0.45594000000E+02  0.51100000000E-03 0. -1.
    9900012    2    1    2    0    0  0.84505511183E+01 -0.40270862932E+02 -0.13801056003E+02  0.47787270026E+02  0.19999995356E+02 0.  0.
        -12    1    1    2    0    0 -0.84505511183E+01  0.40270862932E+02  0.13801056003E+02  0.43400729974E+02  0.00000000000E+00 0.  1.
         11    1    3    3    0    0 -0.41606146617E+00 -0.20578950812E+02 -0.12361090458E+02  0.24009641423E+02  0.51100000000E-03 0. -1.
        -11    1    3    3    0    0  0.17148180576E+01 -0.39791648335E+01  0.37714414478E+01  0.57443994115E+01  0.51100000000E-03 0.  1.
        -12    1    3    3    0    0  0.71517945268E+01 -0.15712747286E+02 -0.52114069933E+01  0.18033229192E+02  0.00000000000E+00 0.  1.
</event>
<event>
 7    1  0.2598019E-009  0.4778727E+02  0.7816164E-02  0.1312668E+00
        -11   -1    0    0    0    0  0.00000000000E+00  0.00000000000E+00  0.45593999997E+02  0.45594000000E+02  0.51100000000E-03 0. -1.
         11   -1    0    0    0    0 -0.00000000000E+00 -0.00000000000E+00 -0.45593999997E+02  0.45594000000E+02  0.51100000000E-03 0.  1.
    9900012    2    1    2    0    0 -0.22464756131E+02  0.37015435085E+02 -0.29691436065E+01  0.47787268252E+02  0.19999987267E+02 0.  0.
        -12    1    1    2    0    0  0.22464756131E+02 -0.37015435085E+02  0.29691436065E+01  0.43400731748E+02  0.00000000000E+00 0.  1.
         11    1    3    3    0    0 -0.14299049576E+02  0.80123202848E+01  0.49869521622E+00  0.16398438715E+02  0.51100000000E-03 0. -1.
        -11    1    3    3    0    0 -0.86164818774E+01  0.20572973074E+02 -0.48726939379E+01  0.22830552501E+02  0.51100000000E-03 0.  1.
        -12    1    3    3    0    0  0.45077532255E+00  0.84301417263E+01  0.14048551151E+01  0.85582770352E+01  0.00000000000E+00 0.  1.
</event>
<event>
 7    1  0.2598019E-009  0.4778727E+02  0.7816164E-02  0.1312668E+00
        -11   -1    0    0    0    0  0.00000000000E+00  0.00000000000E+00  0.45593999997E+02  0.45594000000E+02  0.51100000000E-03 0.  1.
         11   -1    0    0    0    0 -0.00000000000E+00 -0.00000000000E+00 -0.45593999997E+02  0.45594000000E+02  0.51100000000E-03 0. -1.
    9900012    2    1    2    0    0 -0.38514726152E+02  0.16904191973E+02  0.10699873303E+02  0.47787272754E+02  0.20000007794E+02 0.  0.
        -12    1    1    2    0    0  0.38514726152E+02 -0.16904191973E+02 -0.10699873303E+02  0.43400727246E+02  0.00000000000E+00 0.  1.
         11    1    3    3    0    0 -0.15885246931E+02  0.19807335864E-01  0.24777600940E+01  0.16077336774E+02  0.51100000000E-03 0. -1.
        -11    1    3    3    0    0 -0.10075562107E+01  0.65852687308E+01  0.13956585480E+01  0.68065260462E+01  0.51100000000E-03 0.  1.
        -12    1    3    3    0    0 -0.21621923010E+02  0.10299115906E+02  0.68264546606E+01  0.24903409934E+02  0.00000000000E+00 0.  1.
</event>
<event>
 7    1  0.2598019E-009  0.4778727E+02  0.7816164E-02  0.1312668E+00
        -11   -1    0    0    0    0  0.00000000000E+00  0.00000000000E+00  0.45593999997E+02  0.45594000000E+02  0.51100000000E-03 0.  1.
         11   -1    0    0    0    0 -0.00000000000E+00 -0.00000000000E+00 -0.45593999997E+02  0.45594000000E+02  0.51100000000E-03 0. -1.
    9900012    2    1    2    0    0 -0.10752450025E+02 -0.36809397297E+02 -0.20324279977E+02  0.47787271118E+02  0.20000000334E+02 0.  0.
        -12    1    1    2    0    0  0.10752450025E+02  0.36809397297E+02  0.20324279977E+02  0.43400728882E+02  0.00000000000E+00 0.  1.
         11    1    3    3    0    0 -0.12894697164E+02 -0.16424091646E+02 -0.85534912353E+01  0.22565154861E+02  0.51100000000E-03 0. -1.
        -11    1    3    3    0    0 -0.54013472234E-01 -0.19176469699E+02 -0.12128011462E+02  0.22689834064E+02  0.51100000000E-03 0.  1.
        -12    1    3    3    0    0  0.21962606106E+01 -0.12088359525E+01  0.35722272061E+00  0.25322821924E+01  0.00000000000E+00 0.  1.
</event>
<event>
 7    1  0.2598019E-009  0.4778726E+02  0.7816164E-02  0.1312668E+00
        -11   -1    0    0    0    0  0.00000000000E+00  0.00000000000E+00  0.45593999997E+02  0.45594000000E+02  0.51100000000E-03 0.  1.
         11   -1    0    0    0    0 -0.00000000000E+00 -0.00000000000E+00 -0.45593999997E+02  0.45594000000E+02  0.51100000000E-03 0. -1.
    9900012    2    1    2    0    0  0.24093292258E+02 -0.15044255317E+02 -0.32814754664E+02  0.47787257224E+02  0.19999936986E+02 0.  0.
        -12    1    1    2    0    0 -0.24093292258E+02  0.15044255317E+02  0.32814754664E+02  0.43400742776E+02  0.00000000000E+00 0.  1.
         11    1    3    3    0    0 -0.12562112751E+01 -0.57246303608E+00 -0.11432877644E+01  0.17924530311E+01  0.51100000000E-03 0. -1.
        -11    1    3    3    0    0 -0.22972958370E+01 -0.75755221537E+00 -0.31547783030E+01  0.39754345579E+01  0.51100000000E-03 0.  1.
         12    1    3    3    0    0  0.27646799370E+02 -0.13714240065E+02 -0.28516688597E+02  0.42019369635E+02  0.00000000000E+00 0. -1.
</event>
<event>
 7    1  0.2598019E-009  0.4778726E+02  0.7816164E-02  0.1312668E+00
        -11   -1    0    0    0    0  0.00000000000E+00  0.00000000000E+00  0.45593999997E+02  0.45594000000E+02  0.51100000000E-03 0. -1.
         11   -1    0    0    0    0 -0.00000000000E+00 -0.00000000000E+00 -0.45593999997E+02  0.45594000000E+02  0.51100000000E-03 0.  1.
    9900012    2    1    2    0    0  0.40572815716E+02  0.51731302952E+00  0.15401410719E+02  0.47787257610E+02  0.19999938745E+02 0.  0.
        -12    1    1    2    0    0 -0.40572815716E+02 -0.51731302952E+00 -0.15401410719E+02  0.43400742390E+02  0.00000000000E+00 0.  1.
         11    1    3    3    0    0  0.20587750088E+02 -0.70160675260E+01  0.39742381818E+01  0.22110522984E+02  0.51100000000E-03 0. -1.
        -11    1    3    3    0    0 -0.86228495692E+00  0.43923234610E+00  0.58811725310E+00  0.11324056540E+01  0.51100000000E-03 0.  1.
         12    1    3    3    0    0  0.20847350585E+02  0.70941482095E+01  0.10839055284E+02  0.24544328972E+02  0.00000000000E+00 0. -1.
</event>
<event>
 7    1  0.2598019E-009  0.4778728E+02  0.7816164E-02  0.1312668E+00
        -11   -1    0    0    0    0  0.00000000000E+00  0.00000000000E+00  0.45593999997E+02  0.45594000000E+02  0.51100000000E-03 0.  1.
         11   -1    0    0    0    0 -0.00000000000E+00 -0.00000000000E+00 -0.45593999997E+02  0.45594000000E+02  0.51100000000E-03 0. -1.
    9900012    2    1    2    0    0  0.31477683664E+02 -0.28369921156E+02 -0.93768793132E+01  0.47787275802E+02  0.20000021692E+02 0.  0.
        -12    1    1    2    0    0 -0.31477683664E+02  0.28369921156E+02  0.93768793132E+01  0.43400724198E+02  0.00000000000E+00 0.  1.
         11    1    3    3    0    0  0.22513214211E+02 -0.22638397315E+02 -0.11995911700E+02  0.34106359303E+02  0.51100000000E-03 0. -1.
        -11    1    3    3    0    0  0.10410324336E+02 -0.57918946801E+01  0.18951780288E+01  0.12062860224E+02  0.51100000000E-03 0.  1.
         12    1    3    3    0    0 -0.14458548826E+01  0.60370839560E-01  0.72385435755E+00  0.16180562755E+01  0.00000000000E+00 0. -1.
</event>
<event>
 7    1  0.2598019E-009  0.4778727E+02  0.7816164E-02  0.1312668E+00
        -11   -1    0    0    0    0  0.00000000000E+00  0.00000000000E+00  0.45593999997E+02  0.45594000000E+02  0.51100000000E-03 0. -1.
         11   -1    0    0    0    0 -0.00000000000E+00 -0.00000000000E+00 -0.45593999997E+02  0.45594000000E+02  0.51100000000E-03 0.  1.
    9900012    2    1    2    0    0 -0.30034173707E+02 -0.31240691987E+02 -0.23644897175E+01  0.47787271461E+02  0.20000001899E+02 0.  0.
        -12    1    1    2    0    0  0.30034173707E+02  0.31240691987E+02  0.23644897175E+01  0.43400728539E+02  0.00000000000E+00 0.  1.
         11    1    3    3    0    0 -0.20221489568E+02 -0.31401116826E+02 -0.32215335227E+01  0.37487558693E+02  0.51100000000E-03 0. -1.
        -11    1    3    3    0    0 -0.88133076759E+01 -0.75878985089E+00  0.35824817298E+00  0.88531630643E+01  0.51100000000E-03 0.  1.
         12    1    3    3    0    0 -0.99937646323E+00  0.91921469004E+00  0.49879563228E+00  0.14465497034E+01  0.00000000000E+00 0. -1.
</event>
<event>
 7    1  0.2598019E-009  0.4778727E+02  0.7816164E-02  0.1312668E+00
        -11   -1    0    0    0    0  0.00000000000E+00  0.00000000000E+00  0.45593999997E+02  0.45594000000E+02  0.51100000000E-03 0.  1.
         11   -1    0    0    0    0 -0.00000000000E+00 -0.00000000000E+00 -0.45593999997E+02  0.45594000000E+02  0.51100000000E-03 0. -1.
    9900012    2    1    2    0    0  0.60040616722E+00 -0.15032885057E+02 -0.40709644791E+02  0.47787270746E+02  0.19999998640E+02 0.  0.
        -12    1    1    2    0    0 -0.60040616722E+00  0.15032885057E+02  0.40709644791E+02  0.43400729254E+02  0.00000000000E+00 0.  1.
         11    1    3    3    0    0  0.55573102614E+01 -0.13413320696E+02 -0.20862995536E+02  0.25417817618E+02  0.51100000000E-03 0. -1.
        -11    1    3    3    0    0 -0.50402300126E+01  0.13394264747E+01 -0.49800951426E+01  0.72110560774E+01  0.51100000000E-03 0.  1.
         12    1    3    3    0    0  0.83325918384E-01 -0.29589908361E+01 -0.14866554112E+02  0.15158397051E+02  0.00000000000E+00 0. -1.
</event>
<event>
 7    1  0.2598019E-009  0.4778727E+02  0.7816164E-02  0.1312668E+00
        -11   -1    0    0    0    0  0.00000000000E+00  0.00000000000E+00  0.45593999997E+02  0.45594000000E+02  0.51100000000E-03 0. -1.
         11   -1    0    0    0    0 -0.00000000000E+00 -0.00000000000E+00 -0.45593999997E+02  0.45594000000E+02  0.51100000000E-03 0.  1.
    9900012    2    1    2    0    0  0.10064994040E+02 -0.24898657846E+02  0.34093633258E+02  0.47787273090E+02  0.20000009326E+02 0.  0.
        -12    1    1    2    0    0 -0.10064994040E+02  0.24898657846E+02 -0.34093633258E+02  0.43400726910E+02  0.00000000000E+00 0.  1.
         11    1    3    3    0    0  0.11929350293E+02 -0.19046529868E+02  0.27109878853E+02  0.35213991965E+02  0.51100000000E-03 0. -1.
        -11    1    3    3    0    0 -0.26515566556E+01 -0.73787509190E+01  0.74264833815E+01  0.10799508021E+02  0.51100000000E-03 0.  1.
         12    1    3    3    0    0  0.78720040251E+00  0.15266229408E+01 -0.44272897590E+00  0.17737731036E+01  0.00000000000E+00 0. -1.
</event>
<event>
 7    1  0.2598019E-009  0.4778727E+02  0.7816164E-02  0.1312668E+00
        -11   -1    0    0    0    0  0.00000000000E+00  0.00000000000E+00  0.45593999997E+02  0.45594000000E+02  0.51100000000E-03 0.  1.
         11   -1    0    0    0    0 -0.00000000000E+00 -0.00000000000E+00 -0.45593999997E+02  0.45594000000E+02  0.51100000000E-03 0. -1.
    9900012    2    1    2    0    0  0.11825641999E+02 -0.19407745275E+02 -0.36974543764E+02  0.47787271067E+02  0.20000000104E+02 0.  0.
        -12    1    1    2    0    0 -0.11825641999E+02  0.19407745275E+02  0.36974543764E+02  0.43400728933E+02  0.00000000000E+00 0.  1.
         11    1    3    3    0    0  0.14402056510E+02 -0.18728317398E+02 -0.24163638066E+02  0.33794237809E+02  0.51100000000E-03 0. -1.
        -11    1    3    3    0    0 -0.19475598135E+01  0.19728390168E+01 -0.49564046352E+01  0.56789990476E+01  0.51100000000E-03 0.  1.
         12    1    3    3    0    0 -0.62885469702E+00 -0.26522668941E+01 -0.78545010628E+01  0.83140342105E+01  0.00000000000E+00 0. -1.
</event>
<event>
 7    1  0.2598019E-009  0.4778727E+02  0.7816164E-02  0.1312668E+00
        -11   -1    0    0    0    0  0.00000000000E+00  0.00000000000E+00  0.45593999997E+02  0.45594000000E+02  0.51100000000E-03 0.  1.
         11   -1    0    0    0    0 -0.00000000000E+00 -0.00000000000E+00 -0.45593999997E+02  0.45594000000E+02  0.51100000000E-03 0. -1.
    9900012    2    1    2    0    0  0.31950350402E+02  0.27540072589E+02 -0.10214832869E+02  0.47787270749E+02  0.19999998653E+02 0.  0.
        -12    1    1    2    0    0 -0.31950350402E+02 -0.27540072589E+02  0.10214832869E+02  0.43400729251E+02  0.00000000000E+00 0.  1.
         11    1    3    3    0    0  0.29247695926E+02  0.21683210224E+02 -0.75119059017E+01  0.37175503401E+02  0.51100000000E-03 0. -1.
        -11    1    3    3    0    0 -0.34690011744E+00  0.53307964092E+01  0.13523716858E+01  0.55105933878E+01  0.51100000000E-03 0.  1.
         12    1    3    3    0    0  0.30495545932E+01  0.52606595545E+00 -0.40552986528E+01  0.51011739600E+01  0.00000000000E+00 0. -1.
</event>
<event>
 7    1  0.2598019E-009  0.4778727E+02  0.7816164E-02  0.1312668E+00
        -11   -1    0    0    0    0  0.00000000000E+00  0.00000000000E+00  0.45593999997E+02  0.45594000000E+02  0.51100000000E-03 0.  1.
         11   -1    0    0    0    0 -0.00000000000E+00 -0.00000000000E+00 -0.45593999997E+02  0.45594000000E+02  0.51100000000E-03 0. -1.
    9900012    2    1    2    0    0  0.21379282908E+02 -0.26438934280E+02 -0.26972809245E+02  0.47787269337E+02  0.19999992215E+02 0.  0.
        -12    1    1    2    0    0 -0.21379282908E+02  0.26438934280E+02  0.26972809245E+02  0.43400730663E+02  0.00000000000E+00 0.  1.
         11    1    3    3    0    0  0.51502174335E+01 -0.18974512144E+02 -0.14201257532E+02  0.24253506272E+02  0.51100000000E-03 0. -1.
        -11    1    3    3    0    0  0.70652308411E+01 -0.30862669532E+01 -0.67539405036E+00  0.77394242634E+01  0.51100000000E-03 0.  1.
        -12    1    3    3    0    0  0.91638346333E+01 -0.43781551828E+01 -0.12096157663E+02  0.15794338802E+02  0.00000000000E+00 0.  1.
</event>
<event>
 7    1  0.2598019E-009  0.4778726E+02  0.7816164E-02  0.1312668E+00
        -11   -1    0    0    0    0  0.00000000000E+00  0.00000000000E+00  0.45593999997E+02  0.45594000000E+02  0.51100000000E-03 0.  1.
         11   -1    0    0    0    0 -0.00000000000E+00 -0.00000000000E+00 -0.45593999997E+02  0.45594000000E+02  0.51100000000E-03 0. -1.
    9900012    2    1    2    0    0 -0.15500540579E+02 -0.28652910168E+02 -0.28676956567E+02  0.47787264323E+02  0.19999969356E+02 0.  0.
        -12    1    1    2    0    0  0.15500540579E+02  0.28652910168E+02  0.28676956567E+02  0.43400735677E+02  0.00000000000E+00 0.  1.
         11    1    3    3    0    0 -0.74797340432E+01 -0.68978650168E+01 -0.16550045162E+02  0.19427582410E+02  0.51100000000E-03 0. -1.
        -11    1    3    3    0    0 -0.93186365981E+01 -0.22161978549E+02 -0.12270903330E+02  0.26991949726E+02  0.51100000000E-03 0.  1.
        -12    1    3    3    0    0  0.12978300627E+01  0.40693339753E+00  0.14399192496E+00  0.13677321873E+01  0.00000000000E+00 0.  1.
</event>
<event>
 7    1  0.2598019E-009  0.4778728E+02  0.7816164E-02  0.1312668E+00
        -11   -1    0    0    0    0  0.00000000000E+00  0.00000000000E+00  0.45593999997E+02  0.45594000000E+02  0.51100000000E-03 0.  1.
         11   -1    0    0    0    0 -0.00000000000E+00 -0.00000000000E+00 -0.45593999997E+02  0.45594000000E+02  0.51100000000E-03 0. -1.
    9900012    2    1    2    0    0 -0.22869143258E+01  0.42309475484E+02 -0.93968704941E+01  0.47787275721E+02  0.20000021323E+02 0.  0.
        -12    1    1    2    0    0  0.22869143258E+01 -0.42309475484E+02  0.93968704941E+01  0.43400724279E+02  0.00000000000E+00 0.  1.
         11    1    3    3    0    0 -0.38557547748E+01  0.19916105188E+02  0.14722687025E+01  0.20339264149E+02  0.51100000000E-03 0. -1.
        -11    1    3    3    0    0  0.38554358611E+01  0.22527479027E+02 -0.10399739824E+02  0.25109884223E+02  0.51100000000E-03 0.  1.
        -12    1    3    3    0    0 -0.22865954121E+01 -0.13410873128E+00 -0.46939937237E+00  0.23381273492E+01  0.00000000000E+00 0.  1.
</event>
<event>
 7    1  0.2598019E-009  0.4778729E+02  0.7816164E-02  0.1312668E+00
        -11   -1    0    0    0    0  0.00000000000E+00  0.00000000000E+00  0.45593999997E+02  0.45594000000E+02  0.51100000000E-03 0. -1.
         11   -1    0    0    0    0 -0.00000000000E+00 -0.00000000000E+00 -0.45593999997E+02  0.45594000000E+02  0.51100000000E-03 0.  1.
    9900012    2    1    2    0    0 -0.90505738695E+01  0.26639735142E+02  0.33045927703E+02  0.47787289020E+02  0.20000081957E+02 0.  0.
        -12    1    1    2    0    0  0.90505738695E+01 -0.26639735142E+02 -0.33045927703E+02  0.43400710980E+02  0.00000000000E+00 0.  1.
         11    1    3    3    0    0 -0.11100917911E+02  0.10352340009E+02  0.13359323879E+02  0.20220604760E+02  0.51100000000E-03 0. -1.
        -11    1    3    3    0    0  0.20125177025E+01  0.17676734574E+02  0.17364815545E+02  0.24860691701E+02  0.51100000000E-03 0.  1.
        -12    1    3    3    0    0  0.37826338864E-01 -0.13893394401E+01  0.23217882796E+01  0.27059925585E+01  0.00000000000E+00 0.  1.
</event>
<event>
 7    1  0.2775011E-009  0.4778727E+02  0.7816164E-02  0.1312668E+00
        -11   -1    0    0    0    0  0.00000000000E+00  0.00000000000E+00  0.45593999997E+02  0.45594000000E+02  0.51100000000E-03 0. -1.
         11   -1    0    0    0    0 -0.00000000000E+00 -0.00000000000E+00 -0.45593999997E+02  0.45594000000E+02  0.51100000000E-03 0.  1.
    9900012    2    1    2    0    0  0.16716305982E+02  0.11873804483E+02  0.38251808545E+02  0.47787274482E+02  0.20000015672E+02 0.  0.
        -12    1    1    2    0    0 -0.16716305982E+02 -0.11873804483E+02 -0.38251808545E+02  0.43400725518E+02  0.00000000000E+00 0.  1.
         11    1    3    3    0    0  0.41974422734E+01  0.10913551348E+02  0.17327099247E+02  0.20903408651E+02  0.51100000000E-03 0. -1.
        -11    1    3    3    0    0  0.10984589522E+01 -0.33357607555E+01  0.12404393883E+01  0.37245942094E+01  0.51100000000E-03 0.  1.
         12    1    3    3    0    0  0.11420404756E+02  0.42960138898E+01  0.19684269909E+02  0.23159271621E+02  0.00000000000E+00 0. -1.
</event>
<event>
 7    1  0.2598019E-009  0.4778728E+02  0.7816164E-02  0.1312668E+00
        -11   -1    0    0    0    0  0.00000000000E+00  0.00000000000E+00  0.45593999997E+02  0.45594000000E+02  0.51100000000E-03 0.  1.
         11   -1    0    0    0    0 -0.00000000000E+00 -0.00000000000E+00 -0.45593999997E+02  0.45594000000E+02  0.51100000000E-03 0. -1.
    9900012    2    1    2    0    0  0.13591195778E+02  0.34917629986E+02 -0.21901164755E+02  0.47787279912E+02  0.20000040432E+02 0.  0.
        -12    1    1    2    0    0 -0.13591195778E+02 -0.34917629986E+02  0.21901164755E+02  0.43400720088E+02  0.00000000000E+00 0.  1.
         11    1    3    3    0    0  0.28678944535E+01  0.46524883709E+01 -0.35887473361E+01  0.65383158643E+01  0.51100000000E-03 0. -1.
        -11    1    3    3    0    0 -0.45146066475E+01  0.13332525122E+02 -0.54926036475E+01  0.15109817815E+02  0.51100000000E-03 0.  1.
        -12    1    3    3    0    0  0.15237907972E+02  0.16932616493E+02 -0.12819813771E+02  0.26139146233E+02  0.00000000000E+00 0.  1.
</event>
<event>
 7    1  0.2598019E-009  0.4778729E+02  0.7816164E-02  0.1312668E+00
        -11   -1    0    0    0    0  0.00000000000E+00  0.00000000000E+00  0.45593999997E+02  0.45594000000E+02  0.51100000000E-03 0.  1.
         11   -1    0    0    0    0 -0.00000000000E+00 -0.00000000000E+00 -0.45593999997E+02  0.45594000000E+02  0.51100000000E-03 0. -1.
    9900012    2    1    2    0    0  0.10823246101E+02 -0.33368907663E+02 -0.25553767879E+02  0.47787289088E+02  0.20000082269E+02 0.  0.
        -12    1    1    2    0    0 -0.10823246101E+02  0.33368907663E+02  0.25553767879E+02  0.43400710912E+02  0.00000000000E+00 0.  1.
         11    1    3    3    0    0  0.64764983108E+01 -0.18517614561E+02 -0.39403919940E+01  0.20009342036E+02  0.51100000000E-03 0. -1.
        -11    1    3    3    0    0  0.24960248764E+00  0.34849207520E+00  0.48399482007E+00  0.64652871188E+00  0.51100000000E-03 0.  1.
         12    1    3    3    0    0  0.40971453027E+01 -0.15199785178E+02 -0.22097370705E+02  0.27131418341E+02  0.00000000000E+00 0. -1.
</event>
<event>
 7    1  0.2598019E-009  0.4778727E+02  0.7816164E-02  0.1312668E+00
        -11   -1    0    0    0    0  0.00000000000E+00  0.00000000000E+00  0.45593999997E+02  0.45594000000E+02  0.51100000000E-03 0.  1.
         11   -1    0    0    0    0 -0.00000000000E+00 -0.00000000000E+00 -0.45593999997E+02  0.45594000000E+02  0.51100000000E-03 0. -1.
    9900012    2    1    2    0    0 -0.11744213126E+02 -0.29090118569E+02 -0.29991024832E+02  0.47787272923E+02  0.20000008566E+02 0.  0.
        -12    1    1    2    0    0  0.11744213126E+02  0.29090118569E+02  0.29991024832E+02  0.43400727077E+02  0.00000000000E+00 0.  1.
         11    1    3    3    0    0 -0.64322266505E+00 -0.10461947823E+02 -0.81312937584E+01  0.13265897109E+02  0.51100000000E-03 0. -1.
        -11    1    3    3    0    0 -0.83667789916E+01 -0.29670610943E+01 -0.14501881483E+02  0.17003264658E+02  0.51100000000E-03 0.  1.
        -12    1    3    3    0    0 -0.27342114693E+01 -0.15661109651E+02 -0.73578495909E+01  0.17518111156E+02  0.00000000000E+00 0.  1.
</event>
<event>
 7    1  0.2598019E-009  0.4778727E+02  0.7816164E-02  0.1312668E+00
        -11   -1    0    0    0    0  0.00000000000E+00  0.00000000000E+00  0.45593999997E+02  0.45594000000E+02  0.51100000000E-03 0.  1.
         11   -1    0    0    0    0 -0.00000000000E+00 -0.00000000000E+00 -0.45593999997E+02  0.45594000000E+02  0.51100000000E-03 0. -1.
    9900012    2    1    2    0    0  0.20749375040E+02  0.18157140621E+02 -0.33517233443E+02  0.47787271230E+02  0.20000000848E+02 0.  0.
        -12    1    1    2    0    0 -0.20749375040E+02 -0.18157140621E+02  0.33517233443E+02  0.43400728770E+02  0.00000000000E+00 0.  1.
         11    1    3    3    0    0  0.13207751730E+02  0.27396190208E+01 -0.78115937281E+01  0.15587533961E+02  0.51100000000E-03 0. -1.
        -11    1    3    3    0    0  0.88674673475E+01  0.12588834133E+02 -0.24313815761E+02  0.28779721318E+02  0.51100000000E-03 0.  1.
        -12    1    3    3    0    0 -0.13258440374E+01  0.28286874667E+01 -0.13918239532E+01  0.34200159521E+01  0.00000000000E+00 0.  1.
</event>
<event>
 7    1  0.2598019E-009  0.4778727E+02  0.7816164E-02  0.1312668E+00
        -11   -1    0    0    0    0  0.00000000000E+00  0.00000000000E+00  0.45593999997E+02  0.45594000000E+02  0.51100000000E-03 0.  1.
         11   -1    0    0    0    0 -0.00000000000E+00 -0.00000000000E+00 -0.45593999997E+02  0.45594000000E+02  0.51100000000E-03 0. -1.
    9900012    2    1    2    0    0 -0.42251224263E+02 -0.76268867723E+01  0.63472833754E+01  0.47787270054E+02  0.19999995485E+02 0.  0.
        -12    1    1    2    0    0  0.42251224263E+02  0.76268867723E+01 -0.63472833754E+01  0.43400729946E+02  0.00000000000E+00 0.  1.
         11    1    3    3    0    0 -0.82860887450E+01  0.11808452274E+01  0.71816124553E+01  0.11028563817E+02  0.51100000000E-03 0. -1.
        -11    1    3    3    0    0 -0.54549956274E+01 -0.20224222648E+01  0.39944318080E+01  0.70570996054E+01  0.51100000000E-03 0.  1.
         12    1    3    3    0    0 -0.28510139891E+02 -0.67853097349E+01 -0.48287608879E+01  0.29701606632E+02  0.00000000000E+00 0. -1.
</event>
<event>
 7    1  0.2598019E-009  0.4778728E+02  0.7816164E-02  0.1312668E+00
        -11   -1    0    0    0    0  0.00000000000E+00  0.00000000000E+00  0.45593999997E+02  0.45594000000E+02  0.51100000000E-03 0. -1.
         11   -1    0    0    0    0 -0.00000000000E+00 -0.00000000000E+00 -0.45593999997E+02  0.45594000000E+02  0.51100000000E-03 0.  1.
    9900012    2    1    2    0    0  0.30834881227E+02  0.28883808602E+02 -0.99276691136E+01  0.47787275194E+02  0.20000018921E+02 0.  0.
        -12    1    1    2    0    0 -0.30834881227E+02 -0.28883808602E+02  0.99276691136E+01  0.43400724806E+02  0.00000000000E+00 0.  1.
         11    1    3    3    0    0  0.18876417427E+02  0.95458595604E+01  0.24114705506E+01  0.21289851106E+02  0.51100000000E-03 0. -1.
        -11    1    3    3    0    0  0.10434625039E+02  0.12485387200E+02 -0.99959383041E+01  0.19096729460E+02  0.51100000000E-03 0.  1.
        -12    1    3    3    0    0  0.15238387604E+01  0.68525618422E+01 -0.23432013601E+01  0.74006946284E+01  0.00000000000E+00 0.  1.
</event>
<event>
 7    1  0.2598019E-009  0.4778727E+02  0.7816164E-02  0.1312668E+00
        -11   -1    0    0    0    0  0.00000000000E+00  0.00000000000E+00  0.45593999997E+02  0.45594000000E+02  0.51100000000E-03 0. -1.
         11   -1    0    0    0    0 -0.00000000000E+00 -0.00000000000E+00 -0.45593999997E+02  0.45594000000E+02  0.51100000000E-03 0.  1.
    9900012    2    1    2    0    0  0.37080837155E+02  0.22547351605E+02 -0.50184008644E+00  0.47787269684E+02  0.19999993798E+02 0.  0.
        -12    1    1    2    0    0 -0.37080837155E+02 -0.22547351605E+02  0.50184008644E+00  0.43400730316E+02  0.00000000000E+00 0.  1.
         11    1    3    3    0    0  0.38194179121E+01  0.27109053550E+01  0.18146763812E+01  0.50229485026E+01  0.51100000000E-03 0. -1.
        -11    1    3    3    0    0  0.53928463999E+01  0.63603801705E+01  0.65050996733E+01  0.10576083880E+02  0.51100000000E-03 0.  1.
        -12    1    3    3    0    0  0.27868572843E+02  0.13476066079E+02 -0.88216161409E+01  0.32188237302E+02  0.00000000000E+00 0.  1.
</event>
<event>
 7    1  0.2598019E-009  0.4778727E+02  0.7816164E-02  0.1312668E+00
        -11   -1    0    0    0    0  0.00000000000E+00  0.00000000000E+00  0.45593999997E+02  0.45594000000E+02  0.51100000000E-03 0.  1.
         11   -1    0    0    0    0 -0.00000000000E+00 -0.00000000000E+00 -0.45593999997E+02  0.45594000000E+02  0.51100000000E-03 0. -1.
    9900012    2    1    2    0    0 -0.35880429950E+02 -0.14138565457E+02 -0.19907760988E+02  0.47787271503E+02  0.20000002090E+02 0.  0.
        -12    1    1    2    0    0  0.35880429950E+02  0.14138565457E+02  0.19907760988E+02  0.43400728497E+02  0.00000000000E+00 0.  1.
         11    1    3    3    0    0  0.21144804419E+00 -0.40937943836E+01 -0.61489639718E+00  0.41451128538E+01  0.51100000000E-03 0. -1.
        -11    1    3    3    0    0 -0.19726731826E+02 -0.31563126289E+01 -0.15974078362E+02  0.25578847467E+02  0.51100000000E-03 0.  1.
        -12    1    3    3    0    0 -0.16365146168E+02 -0.68884584449E+01 -0.33187862284E+01  0.18063311182E+02  0.00000000000E+00 0.  1.
</event>
<event>
 7    1  0.2598019E-009  0.4778729E+02  0.7816164E-02  0.1312668E+00
        -11   -1    0    0    0    0  0.00000000000E+00  0.00000000000E+00  0.45593999997E+02  0.45594000000E+02  0.51100000000E-03 0.  1.
         11   -1    0    0    0    0 -0.00000000000E+00 -0.00000000000E+00 -0.45593999997E+02  0.45594000000E+02  0.51100000000E-03 0. -1.
    9900012    2    1    2    0    0 -0.69796159334E+01 -0.40024142210E+01 -0.42648412266E+02  0.47787292322E+02  0.20000097011E+02 0.  0.
        -12    1    1    2    0    0  0.69796159334E+01  0.40024142210E+01  0.42648412266E+02  0.43400707678E+02  0.00000000000E+00 0.  1.
         11    1    3    3    0    0 -0.88004648298E+00 -0.15088508932E+01 -0.87396060358E+01  0.89124534643E+01  0.51100000000E-03 0. -1.
        -11    1    3    3    0    0 -0.49664917885E+01 -0.94124309916E+01 -0.12879061944E+02  0.16707188114E+02  0.51100000000E-03 0.  1.
        -12    1    3    3    0    0 -0.11330776618E+01  0.69188676638E+01 -0.21029744286E+02  0.22167650743E+02  0.00000000000E+00 0.  1.
</event>
<event>
 7    1  0.2598019E-009  0.4778728E+02  0.7816164E-02  0.1312668E+00
        -11   -1    0    0    0    0  0.00000000000E+00  0.00000000000E+00  0.45593999997E+02  0.45594000000E+02  0.51100000000E-03 0. -1.
         11   -1    0    0    0    0 -0.00000000000E+00 -0.00000000000E+00 -0.45593999997E+02  0.45594000000E+02  0.51100000000E-03 0.  1.
    9900012    2    1    2    0    0  0.34371227551E+02  0.10993104010E+02  0.24112091890E+02  0.47787278871E+02  0.20000035687E+02 0.  0.
        -12    1    1    2    0    0 -0.34371227551E+02 -0.10993104010E+02 -0.24112091890E+02  0.43400721129E+02  0.00000000000E+00 0.  1.
         11    1    3    3    0    0  0.86384684853E+01  0.12224931414E+02  0.10155987709E+02  0.18089117514E+02  0.51100000000E-03 0. -1.
        -11    1    3    3    0    0  0.36684609884E+01  0.19478849112E+00  0.24546982992E+00  0.36818207830E+01  0.51100000000E-03 0.  1.
         12    1    3    3    0    0  0.22064298077E+02 -0.14266158945E+01  0.13710634352E+02  0.26016340574E+02  0.00000000000E+00 0. -1.
</event>
<event>
 7    1  0.2598019E-009  0.4778727E+02  0.7816164E-02  0.1312668E+00
        -11   -1    0    0    0    0  0.00000000000E+00  0.00000000000E+00  0.45593999997E+02  0.45594000000E+02  0.51100000000E-03 0.  1.
         11   -1    0    0    0    0 -0.00000000000E+00 -0.00000000000E+00 -0.45593999997E+02  0.45594000000E+02  0.51100000000E-03 0. -1.
    9900012    2    1    2    0    0  0.41419555886E+02  0.12268375778E+02  0.41869633426E+01  0.47787270558E+02  0.19999997784E+02 0.  0.
        -12    1    1    2    0    0 -0.41419555886E+02 -0.12268375778E+02 -0.41869633426E+01  0.43400729442E+02  0.00000000000E+00 0.  1.
         11    1    3    3    0    0  0.30439778505E+02  0.15841499193E+02  0.27872653331E+01  0.34428216051E+02  0.51100000000E-03 0. -1.
        -11    1    3    3    0    0  0.91500788160E+00 -0.20719352014E+01 -0.15730148089E+01  0.27576313663E+01  0.51100000000E-03 0.  1.
         12    1    3    3    0    0  0.10064769499E+02 -0.15011882138E+01  0.29727128184E+01  0.10601423141E+02  0.00000000000E+00 0. -1.
</event>
<event>
 7    1  0.2598019E-009  0.4778727E+02  0.7816164E-02  0.1312668E+00
        -11   -1    0    0    0    0  0.00000000000E+00  0.00000000000E+00  0.45593999997E+02  0.45594000000E+02  0.51100000000E-03 0.  1.
         11   -1    0    0    0    0 -0.00000000000E+00 -0.00000000000E+00 -0.45593999997E+02  0.45594000000E+02  0.51100000000E-03 0. -1.
    9900012    2    1    2    0    0 -0.22623002651E+02 -0.28609793909E+02 -0.23522381403E+02  0.47787274392E+02  0.20000015261E+02 0.  0.
        -12    1    1    2    0    0  0.22623002651E+02  0.28609793909E+02  0.23522381403E+02  0.43400725608E+02  0.00000000000E+00 0.  1.
         11    1    3    3    0    0 -0.28856655712E+01 -0.67282223142E+01 -0.62484100303E+01  0.96248984133E+01  0.51100000000E-03 0. -1.
        -11    1    3    3    0    0 -0.30036751974E+00 -0.11302923850E+02 -0.93002583069E+01  0.14640393200E+02  0.51100000000E-03 0.  1.
        -12    1    3    3    0    0 -0.19436969560E+02 -0.10578647745E+02 -0.79737130657E+01  0.23521982779E+02  0.00000000000E+00 0.  1.
</event>
<event>
 7    1  0.2598019E-009  0.4778726E+02  0.7816164E-02  0.1312668E+00
        -11   -1    0    0    0    0  0.00000000000E+00  0.00000000000E+00  0.45593999997E+02  0.45594000000E+02  0.51100000000E-03 0.  1.
         11   -1    0    0    0    0 -0.00000000000E+00 -0.00000000000E+00 -0.45593999997E+02  0.45594000000E+02  0.51100000000E-03 0. -1.
    9900012    2    1    2    0    0  0.24549164011E+02 -0.12053535514E+02 -0.33699776020E+02  0.47787261805E+02  0.19999957874E+02 0.  0.
        -12    1    1    2    0    0 -0.24549164011E+02  0.12053535514E+02  0.33699776020E+02  0.43400738195E+02  0.00000000000E+00 0.  1.
         11    1    3    3    0    0  0.75009994904E+01 -0.92753309119E+01 -0.11697925687E+02  0.16707430159E+02  0.51100000000E-03 0. -1.
        -11    1    3    3    0    0  0.18371294229E+02 -0.19480881424E+01 -0.22784181051E+02  0.29332889484E+02  0.51100000000E-03 0.  1.
        -12    1    3    3    0    0 -0.13231297084E+01 -0.83011646002E+00  0.78233071819E+00  0.17469421613E+01  0.00000000000E+00 0.  1.
</event>
<event>
 7    1  0.2598019E-009  0.4778726E+02  0.7816164E-02  0.1312668E+00
        -11   -1    0    0    0    0  0.00000000000E+00  0.00000000000E+00  0.45593999997E+02  0.45594000000E+02  0.51100000000E-03 0.  1.
         11   -1    0    0    0    0 -0.00000000000E+00 -0.00000000000E+00 -0.45593999997E+02  0.45594000000E+02  0.51100000000E-03 0. -1.
    9900012    2    1    2    0    0  0.72030874495E+01  0.48848134116E+01 -0.42519150240E+02  0.47787262587E+02  0.19999961437E+02 0.  0.
        -12    1    1    2    0    0 -0.72030874495E+01 -0.48848134116E+01  0.42519150240E+02  0.43400737413E+02  0.00000000000E+00 0.  1.
         11    1    3    3    0    0  0.96593936744E+01 -0.16402081308E+00 -0.32774014889E+02  0.34168213901E+02  0.51100000000E-03 0. -1.
        -11    1    3    3    0    0 -0.28797184116E+01  0.24093104507E+01 -0.25917775364E+00  0.37636057640E+01  0.51100000000E-03 0.  1.
         12    1    3    3    0    0  0.42341218672E+00  0.26395237739E+01 -0.94859575975E+01  0.98554429213E+01  0.00000000000E+00 0. -1.
</event>
<event>
 7    1  0.2598019E-009  0.4778727E+02  0.7816164E-02  0.1312668E+00
        -11   -1    0    0    0    0  0.00000000000E+00  0.00000000000E+00  0.45593999997E+02  0.45594000000E+02  0.51100000000E-03 0.  1.
         11   -1    0    0    0    0 -0.00000000000E+00 -0.00000000000E+00 -0.45593999997E+02  0.45594000000E+02  0.51100000000E-03 0. -1.
    9900012    2    1    2    0    0 -0.10723740386E+02  0.34771353467E+02 -0.23655400258E+02  0.47787267389E+02  0.19999983333E+02 0.  0.
        -12    1    1    2    0    0  0.10723740386E+02 -0.34771353467E+02  0.23655400258E+02  0.43400732611E+02  0.00000000000E+00 0.  1.
         11    1    3    3    0    0 -0.13575127877E+02  0.20913057616E+02 -0.18072482335E+02  0.30793744393E+02  0.51100000000E-03 0. -1.
        -11    1    3    3    0    0  0.27061880448E+01  0.10662597335E+01  0.27815487012E+00  0.29219400997E+01  0.51100000000E-03 0.  1.
         12    1    3    3    0    0  0.14519944617E+00  0.12792036117E+02 -0.58610727932E+01  0.14071582896E+02  0.00000000000E+00 0. -1.
</event>
<event>
 7    1  0.2598019E-009  0.4778727E+02  0.7816164E-02  0.1312668E+00
        -11   -1    0    0    0    0  0.00000000000E+00  0.00000000000E+00  0.45593999997E+02  0.45594000000E+02  0.51100000000E-03 0.  1.
         11   -1    0    0    0    0 -0.00000000000E+00 -0.00000000000E+00 -0.45593999997E+02  0.45594000000E+02  0.51100000000E-03 0. -1.
    9900012    2    1    2    0    0  0.37320463424E+02 -0.14339686710E+01 -0.22107690869E+02  0.47787271298E+02  0.20000001157E+02 0.  0.
        -12    1    1    2    0    0 -0.37320463424E+02  0.14339686710E+01  0.22107690869E+02  0.43400728702E+02  0.00000000000E+00 0.  1.
         11    1    3    3    0    0  0.84320970091E+01 -0.49863217760E+01 -0.58351450377E+01  0.11402306025E+02  0.51100000000E-03 0. -1.
        -11    1    3    3    0    0  0.19367383488E+02  0.92262430714E+01 -0.11091372979E+02  0.24150313853E+02  0.51100000000E-03 0.  1.
        -12    1    3    3    0    0  0.95209829265E+01 -0.56738899664E+01 -0.51811728526E+01  0.12234651420E+02  0.00000000000E+00 0.  1.
</event>
<event>
 7    1  0.2598019E-009  0.4778733E+02  0.7816164E-02  0.1312667E+00
        -11   -1    0    0    0    0  0.00000000000E+00  0.00000000000E+00  0.45593999997E+02  0.45594000000E+02  0.51100000000E-03 0. -1.
         11   -1    0    0    0    0 -0.00000000000E+00 -0.00000000000E+00 -0.45593999997E+02  0.45594000000E+02  0.51100000000E-03 0.  1.
    9900012    2    1    2    0    0  0.87876149485E+01  0.40901431827E+02  0.11552855504E+02  0.47787334426E+02  0.20000288979E+02 0.  0.
        -12    1    1    2    0    0 -0.87876149485E+01 -0.40901431827E+02 -0.11552855504E+02  0.43400665574E+02  0.00000000000E+00 0.  1.
         11    1    3    3    0    0  0.67776135101E+01  0.41011061573E+02  0.92791752809E+01  0.42590448581E+02  0.51100000000E-03 0. -1.
        -11    1    3    3    0    0  0.31525007299E+01 -0.90282592204E+00  0.16815577480E+01  0.36852397776E+01  0.51100000000E-03 0.  1.
         12    1    3    3    0    0 -0.11424992915E+01  0.79319617648E+00  0.59212247554E+00  0.15116460669E+01  0.00000000000E+00 0. -1.
</event>
<event>
 7    1  0.2598019E-009  0.4778727E+02  0.7816164E-02  0.1312668E+00
        -11   -1    0    0    0    0  0.00000000000E+00  0.00000000000E+00  0.45593999997E+02  0.45594000000E+02  0.51100000000E-03 0.  1.
         11   -1    0    0    0    0 -0.00000000000E+00 -0.00000000000E+00 -0.45593999997E+02  0.45594000000E+02  0.51100000000E-03 0. -1.
    9900012    2    1    2    0    0 -0.42067481218E+02  0.15329847894E+01  0.10564100499E+02  0.47787271460E+02  0.20000001897E+02 0.  0.
        -12    1    1    2    0    0  0.42067481218E+02 -0.15329847894E+01 -0.10564100499E+02  0.43400728540E+02  0.00000000000E+00 0.  1.
         11    1    3    3    0    0 -0.16545065460E+02  0.31008194073E+01  0.70126260138E+01  0.18235437915E+02  0.51100000000E-03 0. -1.
        -11    1    3    3    0    0 -0.23275182203E+02 -0.62880235014E+01  0.29612582155E+01  0.24290788308E+02  0.51100000000E-03 0.  1.
        -12    1    3    3    0    0 -0.22472335547E+01  0.47201888835E+01  0.59021626972E+00  0.52610452374E+01  0.00000000000E+00 0.  1.
</event>
<event>
 7    1  0.2598019E-009  0.4778728E+02  0.7816164E-02  0.1312668E+00
        -11   -1    0    0    0    0  0.00000000000E+00  0.00000000000E+00  0.45593999997E+02  0.45594000000E+02  0.51100000000E-03 0.  1.
         11   -1    0    0    0    0 -0.00000000000E+00 -0.00000000000E+00 -0.45593999997E+02  0.45594000000E+02  0.51100000000E-03 0. -1.
    9900012    2    1    2    0    0 -0.50366214267E+01 -0.36460399220E+02 -0.22997708403E+02  0.47787275830E+02  0.20000021821E+02 0.  0.
        -12    1    1    2    0    0  0.50366214267E+01  0.36460399220E+02  0.22997708403E+02  0.43400724170E+02  0.00000000000E+00 0.  1.
         11    1    3    3    0    0 -0.72827700125E+01 -0.23361492649E+02 -0.23494964482E+02  0.33923611750E+02  0.51100000000E-03 0. -1.
        -11    1    3    3    0    0  0.21524136493E+01 -0.11429173289E+02 -0.92704971646E+00  0.11666975102E+02  0.51100000000E-03 0.  1.
        -12    1    3    3    0    0  0.93734936513E-01 -0.16697332812E+01  0.14243057959E+01  0.21966889786E+01  0.00000000000E+00 0.  1.
</event>
<event>
 7    1  0.2598019E-009  0.4778727E+02  0.7816164E-02  0.1312668E+00
        -11   -1    0    0    0    0  0.00000000000E+00  0.00000000000E+00  0.45593999997E+02  0.45594000000E+02  0.51100000000E-03 0.  1.
         11   -1    0    0    0    0 -0.00000000000E+00 -0.00000000000E+00 -0.45593999997E+02  0.45594000000E+02  0.51100000000E-03 0. -1.
    9900012    2    1    2    0    0  0.57856426929E+01  0.12680961150E+02 -0.41101617801E+02  0.47787269327E+02  0.19999992170E+02 0.  0.
        -12    1    1    2    0    0 -0.57856426929E+01 -0.12680961150E+02  0.41101617801E+02  0.43400730673E+02  0.00000000000E+00 0.  1.
         11    1    3    3    0    0 -0.30335978738E+01  0.85537912848E+01 -0.24303819081E+02  0.25943124014E+02  0.51100000000E-03 0. -1.
        -11    1    3    3    0    0  0.89677394932E+01  0.12381080893E+01 -0.16644632592E+02  0.18947217676E+02  0.51100000000E-03 0.  1.
        -12    1    3    3    0    0 -0.14849892656E+00  0.28890617761E+01 -0.15316612813E+00  0.28969276381E+01  0.00000000000E+00 0.  1.
</event>
<event>
 7    1  0.2598019E-009  0.4778727E+02  0.7816164E-02  0.1312668E+00
        -11   -1    0    0    0    0  0.00000000000E+00  0.00000000000E+00  0.45593999997E+02  0.45594000000E+02  0.51100000000E-03 0.  1.
         11   -1    0    0    0    0 -0.00000000000E+00 -0.00000000000E+00 -0.45593999997E+02  0.45594000000E+02  0.51100000000E-03 0. -1.
    9900012    2    1    2    0    0  0.26232783211E+02 -0.60015303814E+01 -0.34050642763E+02  0.47787267812E+02  0.19999985262E+02 0.  0.
        -12    1    1    2    0    0 -0.26232783211E+02  0.60015303814E+01  0.34050642763E+02  0.43400732188E+02  0.00000000000E+00 0.  1.
         11    1    3    3    0    0  0.24196367921E+02 -0.83984918876E+00 -0.32238449174E+02  0.40317330922E+02  0.51100000000E-03 0. -1.
        -11    1    3    3    0    0  0.63583815855E-02 -0.51111241398E+01 -0.18590170293E+01  0.54387107827E+01  0.51100000000E-03 0.  1.
         12    1    3    3    0    0  0.20300569078E+01 -0.50557052846E-01  0.46823441081E-01  0.20312261074E+01  0.00000000000E+00 0. -1.
</event>
<event>
 7    1  0.2598019E-009  0.4778727E+02  0.7816164E-02  0.1312668E+00
        -11   -1    0    0    0    0  0.00000000000E+00  0.00000000000E+00  0.45593999997E+02  0.45594000000E+02  0.51100000000E-03 0.  1.
         11   -1    0    0    0    0 -0.00000000000E+00 -0.00000000000E+00 -0.45593999997E+02  0.45594000000E+02  0.51100000000E-03 0. -1.
    9900012    2    1    2    0    0 -0.15221707140E+02 -0.25342554001E+02 -0.31775427586E+02  0.47787271782E+02  0.20000003364E+02 0.  0.
        -12    1    1    2    0    0  0.15221707140E+02  0.25342554001E+02  0.31775427586E+02  0.43400728218E+02  0.00000000000E+00 0.  1.
         11    1    3    3    0    0 -0.29115006440E+01 -0.19402223582E+02 -0.18137545569E+02  0.26718788810E+02  0.51100000000E-03 0. -1.
        -11    1    3    3    0    0 -0.10514366319E+02 -0.89317584635E+00 -0.10361584290E+02  0.14788917859E+02  0.51100000000E-03 0.  1.
         12    1    3    3    0    0 -0.17958401775E+01 -0.50471545728E+01 -0.32762977269E+01  0.62795651139E+01  0.00000000000E+00 0. -1.
</event>
<event>
 7    1  0.2598019E-009  0.4778727E+02  0.7816164E-02  0.1312668E+00
        -11   -1    0    0    0    0  0.00000000000E+00  0.00000000000E+00  0.45593999997E+02  0.45594000000E+02  0.51100000000E-03 0. -1.
         11   -1    0    0    0    0 -0.00000000000E+00 -0.00000000000E+00 -0.45593999997E+02  0.45594000000E+02  0.51100000000E-03 0.  1.
    9900012    2    1    2    0    0 -0.17078389712E+02  0.39219100643E+02 -0.73358013863E+01  0.47787271523E+02  0.20000002181E+02 0.  0.
        -12    1    1    2    0    0  0.17078389712E+02 -0.39219100643E+02  0.73358013863E+01  0.43400728477E+02  0.00000000000E+00 0.  1.
         11    1    3    3    0    0 -0.73483636998E+01  0.29908983407E+02 -0.59401325461E+01  0.31366079010E+02  0.51100000000E-03 0. -1.
        -11    1    3    3    0    0 -0.11965697223E+01 -0.19089354820E+01  0.34201541108E-01  0.22532163192E+01  0.51100000000E-03 0.  1.
         12    1    3    3    0    0 -0.85334562897E+01  0.11219052718E+02 -0.14298703814E+01  0.14167976194E+02  0.00000000000E+00 0. -1.
</event>
<event>
 7    1  0.2598019E-009  0.4778727E+02  0.7816164E-02  0.1312668E+00
        -11   -1    0    0    0    0  0.00000000000E+00  0.00000000000E+00  0.45593999997E+02  0.45594000000E+02  0.51100000000E-03 0.  1.
         11   -1    0    0    0    0 -0.00000000000E+00 -0.00000000000E+00 -0.45593999997E+02  0.45594000000E+02  0.51100000000E-03 0. -1.
    9900012    2    1    2    0    0 -0.35749050834E+01  0.31376783866E+02 -0.29771476833E+02  0.47787270226E+02  0.19999996268E+02 0.  0.
        -12    1    1    2    0    0  0.35749050834E+01 -0.31376783866E+02  0.29771476833E+02  0.43400729774E+02  0.00000000000E+00 0.  1.
         11    1    3    3    0    0 -0.32863814327E+01  0.21383973277E+02 -0.25502364137E+02  0.33443163619E+02  0.51100000000E-03 0. -1.
        -11    1    3    3    0    0 -0.39698985137E+01  0.87801987461E+01 -0.19626559089E+01  0.98338193347E+01  0.51100000000E-03 0.  1.
         12    1    3    3    0    0  0.36813748630E+01  0.12126118423E+01 -0.23064567875E+01  0.45102872718E+01  0.00000000000E+00 0. -1.
</event>
<event>
 7    1  0.2598019E-009  0.4778727E+02  0.7816164E-02  0.1312668E+00
        -11   -1    0    0    0    0  0.00000000000E+00  0.00000000000E+00  0.45593999997E+02  0.45594000000E+02  0.51100000000E-03 0.  1.
         11   -1    0    0    0    0 -0.00000000000E+00 -0.00000000000E+00 -0.45593999997E+02  0.45594000000E+02  0.51100000000E-03 0. -1.
    9900012    2    1    2    0    0 -0.16193932524E+02  0.16359490073E+02 -0.36793301471E+02  0.47787269601E+02  0.19999993418E+02 0.  0.
        -12    1    1    2    0    0  0.16193932524E+02 -0.16359490073E+02  0.36793301471E+02  0.43400730399E+02  0.00000000000E+00 0.  1.
         11    1    3    3    0    0 -0.50919407191E+01 -0.15464481089E+01 -0.12104315533E+01  0.54575183781E+01  0.51100000000E-03 0. -1.
        -11    1    3    3    0    0 -0.15335955335E+01  0.25057773567E+01 -0.70549645632E+00  0.30213508457E+01  0.51100000000E-03 0.  1.
         12    1    3    3    0    0 -0.95683962718E+01  0.15400160825E+02 -0.34877373461E+02  0.39308400377E+02  0.00000000000E+00 0. -1.
</event>
<event>
 7    1  0.2598019E-009  0.4778727E+02  0.7816164E-02  0.1312668E+00
        -11   -1    0    0    0    0  0.00000000000E+00  0.00000000000E+00  0.45593999997E+02  0.45594000000E+02  0.51100000000E-03 0.  1.
         11   -1    0    0    0    0 -0.00000000000E+00 -0.00000000000E+00 -0.45593999997E+02  0.45594000000E+02  0.51100000000E-03 0. -1.
    9900012    2    1    2    0    0  0.64057637113E+01  0.21116697115E+02 -0.37372107329E+02  0.47787272910E+02  0.20000008506E+02 0.  0.
        -12    1    1    2    0    0 -0.64057637113E+01 -0.21116697115E+02  0.37372107329E+02  0.43400727090E+02  0.00000000000E+00 0.  1.
         11    1    3    3    0    0  0.10006893066E+02  0.14459547214E+02 -0.24442401186E+02  0.30110586020E+02  0.51100000000E-03 0. -1.
        -11    1    3    3    0    0  0.13950558494E+00 -0.81583686634E+00 -0.78574404282E+01  0.79009127286E+01  0.51100000000E-03 0.  1.
         12    1    3    3    0    0 -0.37406349400E+01  0.74729867671E+01 -0.50722657147E+01  0.97757741615E+01  0.00000000000E+00 0. -1.
</event>
<event>
 7    1  0.2598019E-009  0.4778727E+02  0.7816164E-02  0.1312668E+00
        -11   -1    0    0    0    0  0.00000000000E+00  0.00000000000E+00  0.45593999997E+02  0.45594000000E+02  0.51100000000E-03 0. -1.
         11   -1    0    0    0    0 -0.00000000000E+00 -0.00000000000E+00 -0.45593999997E+02  0.45594000000E+02  0.51100000000E-03 0.  1.
    9900012    2    1    2    0    0 -0.31629215713E+02 -0.29572897278E+02  0.29427310183E+01  0.47787271828E+02  0.20000003573E+02 0.  0.
        -12    1    1    2    0    0  0.31629215713E+02  0.29572897278E+02 -0.29427310183E+01  0.43400728172E+02  0.00000000000E+00 0.  1.
         11    1    3    3    0    0 -0.79791832217E+01 -0.51678794500E+01  0.31046859063E+01  0.10000670864E+02  0.51100000000E-03 0. -1.
        -11    1    3    3    0    0 -0.24452258640E+02 -0.25811876030E+02  0.13364774001E+01  0.35580220191E+02  0.51100000000E-03 0.  1.
        -12    1    3    3    0    0  0.80222614871E+00  0.14068582015E+01 -0.14984322881E+01  0.22063807729E+01  0.00000000000E+00 0.  1.
</event>
<event>
 7    1  0.2598019E-009  0.4778728E+02  0.7816164E-02  0.1312668E+00
        -11   -1    0    0    0    0  0.00000000000E+00  0.00000000000E+00  0.45593999997E+02  0.45594000000E+02  0.51100000000E-03 0. -1.
         11   -1    0    0    0    0 -0.00000000000E+00 -0.00000000000E+00 -0.45593999997E+02  0.45594000000E+02  0.51100000000E-03 0.  1.
    9900012    2    1    2    0    0 -0.43328332460E+02  0.19629253666E+01 -0.15571139288E+01  0.47787284873E+02  0.20000063048E+02 0.  0.
        -12    1    1    2    0    0  0.43328332460E+02 -0.19629253666E+01  0.15571139288E+01  0.43400715127E+02  0.00000000000E+00 0.  1.
         11    1    3    3    0    0 -0.12154772822E+02  0.43148939192E+01 -0.50337319562E+01  0.13845406081E+02  0.51100000000E-03 0. -1.
        -11    1    3    3    0    0 -0.27476479928E+02  0.50815128642E+00  0.66723594174E+01  0.28279595956E+02  0.51100000000E-03 0.  1.
        -12    1    3    3    0    0 -0.36970797100E+01 -0.28601198390E+01 -0.31957413899E+01  0.56622828353E+01  0.00000000000E+00 0.  1.
</event>
<event>
 7    1  0.2598019E-009  0.4778727E+02  0.7816164E-02  0.1312668E+00
        -11   -1    0    0    0    0  0.00000000000E+00  0.00000000000E+00  0.45593999997E+02  0.45594000000E+02  0.51100000000E-03 0.  1.
         11   -1    0    0    0    0 -0.00000000000E+00 -0.00000000000E+00 -0.45593999997E+02  0.45594000000E+02  0.51100000000E-03 0. -1.
    9900012    2    1    2    0    0  0.35580224883E+01 -0.32345835624E+02 -0.28717772491E+02  0.47787273473E+02  0.20000011072E+02 0.  0.
        -12    1    1    2    0    0 -0.35580224883E+01  0.32345835624E+02  0.28717772491E+02  0.43400726527E+02  0.00000000000E+00 0.  1.
         11    1    3    3    0    0  0.86375383806E+01 -0.24520608439E+02 -0.19003753151E+02  0.32202638736E+02  0.51100000000E-03 0. -1.
        -11    1    3    3    0    0 -0.55973504292E+01 -0.47692255489E+01 -0.10065117209E+02  0.12465248848E+02  0.51100000000E-03 0.  1.
        -12    1    3    3    0    0  0.51783453682E+00 -0.30560016361E+01  0.35109786846E+00  0.31193858884E+01  0.00000000000E+00 0.  1.
</event>
<event>
 7    1  0.2598019E-009  0.4778727E+02  0.7816164E-02  0.1312668E+00
        -11   -1    0    0    0    0  0.00000000000E+00  0.00000000000E+00  0.45593999997E+02  0.45594000000E+02  0.51100000000E-03 0.  1.
         11   -1    0    0    0    0 -0.00000000000E+00 -0.00000000000E+00 -0.45593999997E+02  0.45594000000E+02  0.51100000000E-03 0. -1.
    9900012    2    1    2    0    0 -0.26939012906E+02  0.33060398587E+02  0.80574652693E+01  0.47787272844E+02  0.20000008207E+02 0.  0.
        -12    1    1    2    0    0  0.26939012906E+02 -0.33060398587E+02 -0.80574652693E+01  0.43400727156E+02  0.00000000000E+00 0.  1.
         11    1    3    3    0    0 -0.96676881800E+01  0.21479918803E+02  0.40782171672E+01  0.23905709821E+02  0.51100000000E-03 0. -1.
        -11    1    3    3    0    0 -0.92780294069E+01  0.67684714352E+00  0.45375974773E+01  0.10350349891E+02  0.51100000000E-03 0.  1.
        -12    1    3    3    0    0 -0.79932953188E+01  0.10903632641E+02 -0.55834937525E+00  0.13531213133E+02  0.00000000000E+00 0.  1.
</event>
<event>
 7    1  0.2598019E-009  0.4778727E+02  0.7816164E-02  0.1312668E+00
        -11   -1    0    0    0    0  0.00000000000E+00  0.00000000000E+00  0.45593999997E+02  0.45594000000E+02  0.51100000000E-03 0. -1.
         11   -1    0    0    0    0 -0.00000000000E+00 -0.00000000000E+00 -0.45593999997E+02  0.45594000000E+02  0.51100000000E-03 0.  1.
    9900012    2    1    2    0    0 -0.11568360872E+02 -0.30691754824E+01  0.41717816237E+02  0.47787274165E+02  0.20000014227E+02 0.  0.
        -12    1    1    2    0    0  0.11568360872E+02  0.30691754824E+01 -0.41717816237E+02  0.43400725835E+02  0.00000000000E+00 0.  1.
         11    1    3    3    0    0  0.26092071288E+00 -0.91650554914E-01  0.22179943410E+02  0.22181667416E+02  0.51100000000E-03 0.  1.
        -11    1    3    3    0    0 -0.12935863147E+02 -0.49949456056E+00  0.18740491269E+02  0.22777007342E+02  0.51100000000E-03 0. -1.
        -12    1    3    3    0    0  0.11065815624E+01 -0.24780303669E+01  0.79738155825E+00  0.28285994066E+01  0.00000000000E+00 0.  1.
</event>
<event>
 7    1  0.2598019E-009  0.4778726E+02  0.7816164E-02  0.1312668E+00
        -11   -1    0    0    0    0  0.00000000000E+00  0.00000000000E+00  0.45593999997E+02  0.45594000000E+02  0.51100000000E-03 0.  1.
         11   -1    0    0    0    0 -0.00000000000E+00 -0.00000000000E+00 -0.45593999997E+02  0.45594000000E+02  0.51100000000E-03 0. -1.
    9900012    2    1    2    0    0 -0.38517675974E+02  0.17540783304E+02 -0.96090343480E+01  0.47787262881E+02  0.19999962781E+02 0.  0.
        -12    1    1    2    0    0  0.38517675974E+02 -0.17540783304E+02  0.96090343480E+01  0.43400737119E+02  0.00000000000E+00 0.  1.
         11    1    3    3    0    0 -0.23505032669E+02  0.86470043158E+01 -0.16422181089E+01  0.25098886927E+02  0.51100000000E-03 0. -1.
        -11    1    3    3    0    0  0.16656945818E+01  0.24983920461E+01 -0.27700578028E+01  0.40853055880E+01  0.51100000000E-03 0.  1.
        -12    1    3    3    0    0 -0.16678337887E+02  0.63953869423E+01 -0.51967584363E+01  0.18603070366E+02  0.00000000000E+00 0.  1.
</event>
<event>
 7    1  0.2598019E-009  0.4778727E+02  0.7816164E-02  0.1312668E+00
        -11   -1    0    0    0    0  0.00000000000E+00  0.00000000000E+00  0.45593999997E+02  0.45594000000E+02  0.51100000000E-03 0. -1.
         11   -1    0    0    0    0 -0.00000000000E+00 -0.00000000000E+00 -0.45593999997E+02  0.45594000000E+02  0.51100000000E-03 0.  1.
    9900012    2    1    2    0    0 -0.39500617094E+02 -0.15893953247E+02  0.84087358474E+01  0.47787270292E+02  0.19999996571E+02 0.  0.
        -12    1    1    2    0    0  0.39500617094E+02  0.15893953247E+02 -0.84087358474E+01  0.43400729708E+02  0.00000000000E+00 0.  1.
         11    1    3    3    0    0 -0.64657366496E+01 -0.29485779067E+01  0.72131238129E+01  0.10125661336E+02  0.51100000000E-03 0. -1.
        -11    1    3    3    0    0 -0.14330705367E+02 -0.20313197777E+00 -0.30029937302E+01  0.14643372238E+02  0.51100000000E-03 0.  1.
        -12    1    3    3    0    0 -0.18704175078E+02 -0.12742243362E+02  0.41986057647E+01  0.23018236718E+02  0.00000000000E+00 0.  1.
</event>
<event>
 7    1  0.2598019E-009  0.4778727E+02  0.7816164E-02  0.1312668E+00
        -11   -1    0    0    0    0  0.00000000000E+00  0.00000000000E+00  0.45593999997E+02  0.45594000000E+02  0.51100000000E-03 0. -1.
         11   -1    0    0    0    0 -0.00000000000E+00 -0.00000000000E+00 -0.45593999997E+02  0.45594000000E+02  0.51100000000E-03 0.  1.
    9900012    2    1    2    0    0 -0.15792267576E+02 -0.19451094310E+02  0.35438428382E+02  0.47787274301E+02  0.20000014847E+02 0.  0.
        -12    1    1    2    0    0  0.15792267576E+02  0.19451094310E+02 -0.35438428382E+02  0.43400725699E+02  0.00000000000E+00 0.  1.
         11    1    3    3    0    0 -0.57764265825E+01  0.20522364292E+01  0.11139421844E+02  0.12714774780E+02  0.51100000000E-03 0. -1.
        -11    1    3    3    0    0 -0.47718152146E+01 -0.22527200260E+01  0.41163515003E+01  0.66924821922E+01  0.51100000000E-03 0.  1.
         12    1    3    3    0    0 -0.52440257789E+01 -0.19250610714E+02  0.20182655037E+02  0.28380017328E+02  0.00000000000E+00 0. -1.
</event>
<event>
 7    1  0.2598019E-009  0.4778727E+02  0.7816164E-02  0.1312668E+00
        -11   -1    0    0    0    0  0.00000000000E+00  0.00000000000E+00  0.45593999997E+02  0.45594000000E+02  0.51100000000E-03 0.  1.
         11   -1    0    0    0    0 -0.00000000000E+00 -0.00000000000E+00 -0.45593999997E+02  0.45594000000E+02  0.51100000000E-03 0. -1.
    9900012    2    1    2    0    0 -0.32117489752E+02 -0.14769986985E+02 -0.25178116208E+02  0.47787271904E+02  0.20000003919E+02 0.  0.
        -12    1    1    2    0    0  0.32117489752E+02  0.14769986985E+02  0.25178116208E+02  0.43400728096E+02  0.00000000000E+00 0.  1.
         11    1    3    3    0    0 -0.18617019171E+02 -0.98379280016E+01 -0.21038124315E+02  0.29765431378E+02  0.51100000000E-03 0. -1.
        -11    1    3    3    0    0 -0.95551106378E+01  0.16991908787E+01 -0.12634020692E+01  0.97869082959E+01  0.51100000000E-03 0.  1.
         12    1    3    3    0    0 -0.39453599432E+01 -0.66312498621E+01 -0.28765898232E+01  0.82349322296E+01  0.00000000000E+00 0. -1.
</event>
<event>
 7    1  0.2598019E-009  0.4778727E+02  0.7816164E-02  0.1312668E+00
        -11   -1    0    0    0    0  0.00000000000E+00  0.00000000000E+00  0.45593999997E+02  0.45594000000E+02  0.51100000000E-03 0. -1.
         11   -1    0    0    0    0 -0.00000000000E+00 -0.00000000000E+00 -0.45593999997E+02  0.45594000000E+02  0.51100000000E-03 0.  1.
    9900012    2    1    2    0    0  0.21386891870E+02 -0.36851000731E+02  0.82600086565E+01  0.47787272567E+02  0.20000006943E+02 0.  0.
        -12    1    1    2    0    0 -0.21386891870E+02  0.36851000731E+02 -0.82600086565E+01  0.43400727433E+02  0.00000000000E+00 0.  1.
         11    1    3    3    0    0  0.18251261232E+02 -0.34595590578E+02  0.12207765674E+02  0.40975516678E+02  0.51100000000E-03 0. -1.
        -11    1    3    3    0    0  0.38897150536E+01 -0.10014338769E+01 -0.23868424477E+01  0.46722339559E+01  0.51100000000E-03 0.  1.
         12    1    3    3    0    0 -0.75408441639E+00 -0.12539762760E+01 -0.15609145701E+01  0.21395219333E+01  0.00000000000E+00 0. -1.
</event>
<event>
 7    1  0.2598019E-009  0.4778727E+02  0.7816164E-02  0.1312668E+00
        -11   -1    0    0    0    0  0.00000000000E+00  0.00000000000E+00  0.45593999997E+02  0.45594000000E+02  0.51100000000E-03 0.  1.
         11   -1    0    0    0    0 -0.00000000000E+00 -0.00000000000E+00 -0.45593999997E+02  0.45594000000E+02  0.51100000000E-03 0. -1.
    9900012    2    1    2    0    0 -0.47010380667E+01  0.43084623917E+02  0.22887742630E+01  0.47787273455E+02  0.20000010992E+02 0.  0.
        -12    1    1    2    0    0  0.47010380667E+01 -0.43084623917E+02 -0.22887742630E+01  0.43400726545E+02  0.00000000000E+00 0.  1.
         11    1    3    3    0    0 -0.96511701739E+01  0.37425438263E+02 -0.64387946606E+00  0.38655182006E+02  0.51100000000E-03 0. -1.
        -11    1    3    3    0    0  0.15854458219E-02  0.25685868518E+01 -0.71762150526E-01  0.25695896552E+01  0.51100000000E-03 0.  1.
        -12    1    3    3    0    0  0.49485466614E+01  0.30905988023E+01  0.30044158796E+01  0.65625017938E+01  0.00000000000E+00 0.  1.
</event>
<event>
 7    1  0.2598019E-009  0.4778726E+02  0.7816164E-02  0.1312668E+00
        -11   -1    0    0    0    0  0.00000000000E+00  0.00000000000E+00  0.45593999997E+02  0.45594000000E+02  0.51100000000E-03 0.  1.
         11   -1    0    0    0    0 -0.00000000000E+00 -0.00000000000E+00 -0.45593999997E+02  0.45594000000E+02  0.51100000000E-03 0. -1.
    9900012    2    1    2    0    0 -0.34503287306E+02 -0.17334810746E+02 -0.19815449274E+02  0.47787256591E+02  0.19999934100E+02 0.  0.
        -12    1    1    2    0    0  0.34503287306E+02  0.17334810746E+02  0.19815449274E+02  0.43400743409E+02  0.00000000000E+00 0.  1.
         11    1    3    3    0    0 -0.15871119972E+02 -0.33454922589E+01 -0.10209014500E+02  0.19165300544E+02  0.51100000000E-03 0. -1.
        -11    1    3    3    0    0 -0.10331000630E+01 -0.40537809336E+01  0.26820449984E+01  0.49692857870E+01  0.51100000000E-03 0.  1.
        -12    1    3    3    0    0 -0.17599067272E+02 -0.99355375530E+01 -0.12288479773E+02  0.23652670260E+02  0.00000000000E+00 0.  1.
</event>
<event>
 7    1  0.2598019E-009  0.4778727E+02  0.7816164E-02  0.1312668E+00
        -11   -1    0    0    0    0  0.00000000000E+00  0.00000000000E+00  0.45593999997E+02  0.45594000000E+02  0.51100000000E-03 0.  1.
         11   -1    0    0    0    0 -0.00000000000E+00 -0.00000000000E+00 -0.45593999997E+02  0.45594000000E+02  0.51100000000E-03 0. -1.
    9900012    2    1    2    0    0 -0.20352920925E+02 -0.91469355267E+01 -0.37225198848E+02  0.47787271331E+02  0.20000001307E+02 0.  0.
        -12    1    1    2    0    0  0.20352920925E+02  0.91469355267E+01  0.37225198848E+02  0.43400728669E+02  0.00000000000E+00 0.  1.
         11    1    3    3    0    0 -0.18153886300E+02 -0.81549672678E+01 -0.20125724258E+02  0.28303919448E+02  0.51100000000E-03 0. -1.
        -11    1    3    3    0    0 -0.35910575378E+01  0.26925367885E+01 -0.48133085410E+01  0.65812907525E+01  0.51100000000E-03 0.  1.
         12    1    3    3    0    0  0.13920229130E+01 -0.36845050474E+01 -0.12286166049E+02  0.12902061131E+02  0.00000000000E+00 0. -1.
</event>
<event>
 7    1  0.2598019E-009  0.4778726E+02  0.7816164E-02  0.1312668E+00
        -11   -1    0    0    0    0  0.00000000000E+00  0.00000000000E+00  0.45593999997E+02  0.45594000000E+02  0.51100000000E-03 0.  1.
         11   -1    0    0    0    0 -0.00000000000E+00 -0.00000000000E+00 -0.45593999997E+02  0.45594000000E+02  0.51100000000E-03 0. -1.
    9900012    2    1    2    0    0  0.23711751693E+02  0.32698897092E+02  0.15879512752E+02  0.47787263087E+02  0.19999963719E+02 0.  0.
        -12    1    1    2    0    0 -0.23711751693E+02 -0.32698897092E+02 -0.15879512752E+02  0.43400736913E+02  0.00000000000E+00 0.  1.
         11    1    3    3    0    0  0.94349023428E+01  0.25278279177E+02  0.75170927982E+01  0.28009203215E+02  0.51100000000E-03 0. -1.
        -11    1    3    3    0    0  0.37396715389E+01 -0.15501833740E+01  0.13745534677E+01  0.42752320649E+01  0.51100000000E-03 0.  1.
         12    1    3    3    0    0  0.10537177811E+02  0.89708012892E+01  0.69878664862E+01  0.15502827807E+02  0.00000000000E+00 0. -1.
</event>
<event>
 7    1  0.2598019E-009  0.4778727E+02  0.7816164E-02  0.1312668E+00
        -11   -1    0    0    0    0  0.00000000000E+00  0.00000000000E+00  0.45593999997E+02  0.45594000000E+02  0.51100000000E-03 0.  1.
         11   -1    0    0    0    0 -0.00000000000E+00 -0.00000000000E+00 -0.45593999997E+02  0.45594000000E+02  0.51100000000E-03 0. -1.
    9900012    2    1    2    0    0  0.31613713383E+02 -0.24825381472E+02 -0.16367564355E+02  0.47787267264E+02  0.19999982761E+02 0.  0.
        -12    1    1    2    0    0 -0.31613713383E+02  0.24825381472E+02  0.16367564355E+02  0.43400732736E+02  0.00000000000E+00 0.  1.
         11    1    3    3    0    0  0.19057310758E+02 -0.98594898318E+01 -0.17704080392E+02  0.27817711910E+02  0.51100000000E-03 0. -1.
        -11    1    3    3    0    0  0.11055231600E+02 -0.12106591820E+02  0.24001270310E+01  0.16569499729E+02  0.51100000000E-03 0.  1.
         12    1    3    3    0    0  0.15011710251E+01 -0.28592998203E+01 -0.10636109940E+01  0.34000556253E+01  0.00000000000E+00 0. -1.
</event>
<event>
 7    1  0.2598019E-009  0.4778727E+02  0.7816164E-02  0.1312668E+00
        -11   -1    0    0    0    0  0.00000000000E+00  0.00000000000E+00  0.45593999997E+02  0.45594000000E+02  0.51100000000E-03 0.  1.
         11   -1    0    0    0    0 -0.00000000000E+00 -0.00000000000E+00 -0.45593999997E+02  0.45594000000E+02  0.51100000000E-03 0. -1.
    9900012    2    1    2    0    0 -0.16037708019E+02 -0.36098706339E+02 -0.17980508194E+02  0.47787270136E+02  0.19999995858E+02 0.  0.
        -12    1    1    2    0    0  0.16037708019E+02  0.36098706339E+02  0.17980508194E+02  0.43400729864E+02  0.00000000000E+00 0.  1.
         11    1    3    3    0    0  0.17854351974E+00 -0.14093991549E+02 -0.13489215092E+02  0.19509777027E+02  0.51100000000E-03 0. -1.
        -11    1    3    3    0    0 -0.83149211336E+01 -0.15717324371E+02 -0.35871646559E+01  0.18139458354E+02  0.51100000000E-03 0.  1.
         12    1    3    3    0    0 -0.79013304053E+01 -0.62873904181E+01 -0.90412844574E+00  0.10138034755E+02  0.00000000000E+00 0. -1.
</event>
<event>
 7    1  0.2598019E-009  0.4778727E+02  0.7816164E-02  0.1312668E+00
        -11   -1    0    0    0    0  0.00000000000E+00  0.00000000000E+00  0.45593999997E+02  0.45594000000E+02  0.51100000000E-03 0.  1.
         11   -1    0    0    0    0 -0.00000000000E+00 -0.00000000000E+00 -0.45593999997E+02  0.45594000000E+02  0.51100000000E-03 0. -1.
    9900012    2    1    2    0    0 -0.91396567975E+01 -0.39246814071E+02 -0.16117618777E+02  0.47787269867E+02  0.19999994630E+02 0.  0.
        -12    1    1    2    0    0  0.91396567975E+01  0.39246814071E+02  0.16117618777E+02  0.43400730133E+02  0.00000000000E+00 0.  1.
         11    1    3    3    0    0 -0.33224452367E+01 -0.11288227761E+02  0.33820748026E+01  0.12243412864E+02  0.51100000000E-03 0. -1.
        -11    1    3    3    0    0 -0.55864756905E+01 -0.85106780180E+01 -0.80148496078E+01  0.12956780675E+02  0.51100000000E-03 0.  1.
         12    1    3    3    0    0 -0.23073587042E+00 -0.19447908292E+02 -0.11484843971E+02  0.22587076327E+02  0.00000000000E+00 0. -1.
</event>
<event>
 7    1  0.2598019E-009  0.4778727E+02  0.7816164E-02  0.1312668E+00
        -11   -1    0    0    0    0  0.00000000000E+00  0.00000000000E+00  0.45593999997E+02  0.45594000000E+02  0.51100000000E-03 0.  1.
         11   -1    0    0    0    0 -0.00000000000E+00 -0.00000000000E+00 -0.45593999997E+02  0.45594000000E+02  0.51100000000E-03 0. -1.
    9900012    2    1    2    0    0 -0.33794904560E+02  0.21489040997E+02 -0.16725688852E+02  0.47787272763E+02  0.20000007833E+02 0.  0.
        -12    1    1    2    0    0  0.33794904560E+02 -0.21489040997E+02  0.16725688852E+02  0.43400727237E+02  0.00000000000E+00 0.  1.
         11    1    3    3    0    0 -0.61331602193E+00 -0.28477607162E+01 -0.80697508382E+00  0.30227647422E+01  0.51100000000E-03 0. -1.
        -11    1    3    3    0    0 -0.10707669293E+02  0.11920448640E+02 -0.43537633271E+01  0.16604413053E+02  0.51100000000E-03 0.  1.
         12    1    3    3    0    0 -0.22473919245E+02  0.12416353073E+02 -0.11564950441E+02  0.28160094967E+02  0.00000000000E+00 0. -1.
</event>
<event>
 7    1  0.2598019E-009  0.4778727E+02  0.7816164E-02  0.1312668E+00
        -11   -1    0    0    0    0  0.00000000000E+00  0.00000000000E+00  0.45593999997E+02  0.45594000000E+02  0.51100000000E-03 0.  1.
         11   -1    0    0    0    0 -0.00000000000E+00 -0.00000000000E+00 -0.45593999997E+02  0.45594000000E+02  0.51100000000E-03 0. -1.
    9900012    2    1    2    0    0 -0.15274501844E+00 -0.27587724579E+02 -0.33503996859E+02  0.47787266320E+02  0.19999978458E+02 0.  0.
        -12    1    1    2    0    0  0.15274501844E+00  0.27587724579E+02  0.33503996859E+02  0.43400733680E+02  0.00000000000E+00 0.  1.
         11    1    3    3    0    0 -0.54779738952E+01 -0.21372355103E+02 -0.22857593718E+02  0.31768779509E+02  0.51100000000E-03 0. -1.
        -11    1    3    3    0    0  0.40230176150E+01 -0.60410326629E+01 -0.23651401752E+01  0.76336514641E+01  0.51100000000E-03 0.  1.
         12    1    3    3    0    0  0.13022112618E+01 -0.17433681342E+00 -0.82812629649E+01  0.83848353466E+01  0.00000000000E+00 0. -1.
</event>
<event>
 7    1  0.2598019E-009  0.4778727E+02  0.7816164E-02  0.1312668E+00
        -11   -1    0    0    0    0  0.00000000000E+00  0.00000000000E+00  0.45593999997E+02  0.45594000000E+02  0.51100000000E-03 0.  1.
         11   -1    0    0    0    0 -0.00000000000E+00 -0.00000000000E+00 -0.45593999997E+02  0.45594000000E+02  0.51100000000E-03 0. -1.
    9900012    2    1    2    0    0  0.15468765020E+02  0.89907153826E+00 -0.40540505048E+02  0.47787267628E+02  0.19999984423E+02 0.  0.
        -12    1    1    2    0    0 -0.15468765020E+02 -0.89907153826E+00  0.40540505048E+02  0.43400732372E+02  0.00000000000E+00 0.  1.
         11    1    3    3    0    0  0.38175567670E+01 -0.50552133042E+01 -0.51785221380E+01  0.81820543273E+01  0.51100000000E-03 0. -1.
        -11    1    3    3    0    0  0.89595234542E+01  0.33931871788E+01 -0.34480364500E+02  0.35786622026E+02  0.51100000000E-03 0.  1.
        -12    1    3    3    0    0  0.26916847991E+01  0.25610976636E+01 -0.88161841020E+00  0.38185912745E+01  0.00000000000E+00 0.  1.
</event>
<event>
 7    1  0.2598019E-009  0.4778728E+02  0.7816164E-02  0.1312668E+00
        -11   -1    0    0    0    0  0.00000000000E+00  0.00000000000E+00  0.45593999997E+02  0.45594000000E+02  0.51100000000E-03 0.  1.
         11   -1    0    0    0    0 -0.00000000000E+00 -0.00000000000E+00 -0.45593999997E+02  0.45594000000E+02  0.51100000000E-03 0. -1.
    9900012    2    1    2    0    0 -0.13280430375E+02  0.12315720021E+02 -0.39440791060E+02  0.47787276619E+02  0.20000025416E+02 0.  0.
        -12    1    1    2    0    0  0.13280430375E+02 -0.12315720021E+02  0.39440791060E+02  0.43400723381E+02  0.00000000000E+00 0.  1.
         11    1    3    3    0    0 -0.13517185543E+02  0.62848503180E+01 -0.37648649375E+02  0.40492399886E+02  0.51100000000E-03 0. -1.
        -11    1    3    3    0    0  0.16057380960E+01  0.20048786706E+01 -0.16244256191E+01  0.30391926839E+01  0.51100000000E-03 0.  1.
         12    1    3    3    0    0 -0.13689829277E+01  0.40259910321E+01 -0.16771606617E+00  0.42556840491E+01  0.00000000000E+00 0. -1.
</event>
<event>
 7    1  0.2598019E-009  0.4778727E+02  0.7816164E-02  0.1312668E+00
        -11   -1    0    0    0    0  0.00000000000E+00  0.00000000000E+00  0.45593999997E+02  0.45594000000E+02  0.51100000000E-03 0.  1.
         11   -1    0    0    0    0 -0.00000000000E+00 -0.00000000000E+00 -0.45593999997E+02  0.45594000000E+02  0.51100000000E-03 0. -1.
    9900012    2    1    2    0    0  0.11349117319E+02  0.27119090733E+02 -0.31927664350E+02  0.47787270779E+02  0.19999998788E+02 0.  0.
        -12    1    1    2    0    0 -0.11349117319E+02 -0.27119090733E+02  0.31927664350E+02  0.43400729221E+02  0.00000000000E+00 0.  1.
         11    1    3    3    0    0  0.16638656806E+02  0.22027150824E+02 -0.25484007421E+02  0.37569600852E+02  0.51100000000E-03 0. -1.
        -11    1    3    3    0    0 -0.37273755554E+01  0.17240760979E+01 -0.42281570618E+01  0.58943260279E+01  0.51100000000E-03 0.  1.
         12    1    3    3    0    0 -0.15621639315E+01  0.33678638114E+01 -0.22154998674E+01  0.43233438984E+01  0.00000000000E+00 0. -1.
</event>
<event>
 7    1  0.2598019E-009  0.4778727E+02  0.7816164E-02  0.1312668E+00
        -11   -1    0    0    0    0  0.00000000000E+00  0.00000000000E+00  0.45593999997E+02  0.45594000000E+02  0.51100000000E-03 0. -1.
         11   -1    0    0    0    0 -0.00000000000E+00 -0.00000000000E+00 -0.45593999997E+02  0.45594000000E+02  0.51100000000E-03 0.  1.
    9900012    2    1    2    0    0 -0.20086228924E+02  0.38086407095E+02 -0.54399075383E+01  0.47787267382E+02  0.19999983301E+02 0.  0.
        -12    1    1    2    0    0  0.20086228924E+02 -0.38086407095E+02  0.54399075383E+01  0.43400732618E+02  0.00000000000E+00 0.  1.
         11    1    3    3    0    0 -0.16352691089E+02  0.13859433809E+02 -0.72141378390E+01  0.22617210181E+02  0.51100000000E-03 0. -1.
        -11    1    3    3    0    0 -0.25430520604E+01  0.18333393796E+02 -0.10260095788E+01  0.18537344410E+02  0.51100000000E-03 0.  1.
         12    1    3    3    0    0 -0.11904857745E+01  0.58935794893E+01  0.28002398795E+01  0.66327127903E+01  0.00000000000E+00 0. -1.
</event>
<event>
 7    1  0.2598019E-009  0.4778727E+02  0.7816164E-02  0.1312668E+00
        -11   -1    0    0    0    0  0.00000000000E+00  0.00000000000E+00  0.45593999997E+02  0.45594000000E+02  0.51100000000E-03 0. -1.
         11   -1    0    0    0    0 -0.00000000000E+00 -0.00000000000E+00 -0.45593999997E+02  0.45594000000E+02  0.51100000000E-03 0.  1.
    9900012    2    1    2    0    0  0.24609611150E+01  0.33433167713E+02  0.27564292627E+02  0.47787271194E+02  0.20000000681E+02 0.  0.
        -12    1    1    2    0    0 -0.24609611150E+01 -0.33433167713E+02 -0.27564292627E+02  0.43400728806E+02  0.00000000000E+00 0.  1.
         11    1    3    3    0    0 -0.31784960727E+01  0.24171923414E+01  0.42892460754E+01  0.58603146891E+01  0.51100000000E-03 0. -1.
        -11    1    3    3    0    0  0.10351006947E+02  0.18333914683E+02  0.16762762558E+02  0.26912190198E+02  0.51100000000E-03 0.  1.
        -12    1    3    3    0    0 -0.47115497594E+01  0.12682060688E+02  0.65122839934E+01  0.15014766306E+02  0.00000000000E+00 0.  1.
</event>
<event>
 7    1  0.2622708E-009  0.4778727E+02  0.7816164E-02  0.1312668E+00
        -11   -1    0    0    0    0  0.00000000000E+00  0.00000000000E+00  0.45593999997E+02  0.45594000000E+02  0.51100000000E-03 0.  1.
         11   -1    0    0    0    0 -0.00000000000E+00 -0.00000000000E+00 -0.45593999997E+02  0.45594000000E+02  0.51100000000E-03 0. -1.
    9900012    2    1    2    0    0 -0.33837950708E+02  0.20817257118E+02 -0.17471636322E+02  0.47787272151E+02  0.20000005047E+02 0.  0.
        -12    1    1    2    0    0  0.33837950708E+02 -0.20817257118E+02  0.17471636322E+02  0.43400727849E+02  0.00000000000E+00 0.  1.
         11    1    3    3    0    0 -0.26147872033E+02  0.20409819113E+02 -0.12910305439E+02  0.35594211817E+02  0.51100000000E-03 0. -1.
        -11    1    3    3    0    0  0.12850046157E+01  0.34535342345E+00  0.97321210975E+00  0.16485290174E+01  0.51100000000E-03 0.  1.
         12    1    3    3    0    0 -0.89750832902E+01  0.62084582184E-01 -0.55345429921E+01  0.10544531317E+02  0.00000000000E+00 0. -1.
</event>
<event>
 7    1  0.2598019E-009  0.4778727E+02  0.7816164E-02  0.1312668E+00
        -11   -1    0    0    0    0  0.00000000000E+00  0.00000000000E+00  0.45593999997E+02  0.45594000000E+02  0.51100000000E-03 0. -1.
         11   -1    0    0    0    0 -0.00000000000E+00 -0.00000000000E+00 -0.45593999997E+02  0.45594000000E+02  0.51100000000E-03 0.  1.
    9900012    2    1    2    0    0  0.36973233333E+02 -0.14361980520E+02 -0.17616375000E+02  0.47787272636E+02  0.20000007257E+02 0.  0.
        -12    1    1    2    0    0 -0.36973233333E+02  0.14361980520E+02  0.17616375000E+02  0.43400727364E+02  0.00000000000E+00 0.  1.
         11    1    3    3    0    0  0.30238645641E+02 -0.11684901110E+02 -0.17266532680E+02  0.36729358220E+02  0.51100000000E-03 0. -1.
        -11    1    3    3    0    0  0.49537109309E+01  0.25198780014E+01 -0.10284716314E+00  0.55587422074E+01  0.51100000000E-03 0.  1.
         12    1    3    3    0    0  0.17808767608E+01 -0.51969574116E+01 -0.24699515709E+00  0.54991722089E+01  0.00000000000E+00 0. -1.
</event>
<event>
 7    1  0.2598019E-009  0.4778727E+02  0.7816164E-02  0.1312668E+00
        -11   -1    0    0    0    0  0.00000000000E+00  0.00000000000E+00  0.45593999997E+02  0.45594000000E+02  0.51100000000E-03 0.  1.
         11   -1    0    0    0    0 -0.00000000000E+00 -0.00000000000E+00 -0.45593999997E+02  0.45594000000E+02  0.51100000000E-03 0. -1.
    9900012    2    1    2    0    0  0.35837376829E+02  0.20751485330E+02 -0.12987763845E+02  0.47787265777E+02  0.19999975986E+02 0.  0.
        -12    1    1    2    0    0 -0.35837376829E+02 -0.20751485330E+02  0.12987763845E+02  0.43400734223E+02  0.00000000000E+00 0.  1.
         11    1    3    3    0    0  0.16880769043E+02  0.61434149009E+00 -0.68763190348E+01  0.18237914976E+02  0.51100000000E-03 0. -1.
        -11    1    3    3    0    0  0.64327688969E+00 -0.26834419479E+00 -0.16227086850E+01  0.17660683738E+01  0.51100000000E-03 0.  1.
        -12    1    3    3    0    0  0.18313330896E+02  0.20405488035E+02 -0.44887361253E+01  0.27783282427E+02  0.00000000000E+00 0.  1.
</event>
<event>
 7    1  0.2598019E-009  0.4778728E+02  0.7816164E-02  0.1312668E+00
        -11   -1    0    0    0    0  0.00000000000E+00  0.00000000000E+00  0.45593999997E+02  0.45594000000E+02  0.51100000000E-03 0.  1.
         11   -1    0    0    0    0 -0.00000000000E+00 -0.00000000000E+00 -0.45593999997E+02  0.45594000000E+02  0.51100000000E-03 0. -1.
    9900012    2    1    2    0    0  0.37445433618E+02  0.99985169642E+01 -0.19531804676E+02  0.47787283022E+02  0.20000054608E+02 0.  0.
        -12    1    1    2    0    0 -0.37445433618E+02 -0.99985169642E+01  0.19531804676E+02  0.43400716978E+02  0.00000000000E+00 0.  1.
         11    1    3    3    0    0  0.22166783139E+02  0.29770651224E+01 -0.17729033664E+02  0.28540284273E+02  0.51100000000E-03 0. -1.
        -11    1    3    3    0    0  0.73709437042E+01  0.67109971295E+00  0.30483145275E+01  0.80045866624E+01  0.51100000000E-03 0.  1.
         12    1    3    3    0    0  0.79077067749E+01  0.63503521288E+01 -0.48510855392E+01  0.11242412086E+02  0.00000000000E+00 0. -1.
</event>
<event>
 7    1  0.2598019E-009  0.4778727E+02  0.7816164E-02  0.1312668E+00
        -11   -1    0    0    0    0  0.00000000000E+00  0.00000000000E+00  0.45593999997E+02  0.45594000000E+02  0.51100000000E-03 0.  1.
         11   -1    0    0    0    0 -0.00000000000E+00 -0.00000000000E+00 -0.45593999997E+02  0.45594000000E+02  0.51100000000E-03 0. -1.
    9900012    2    1    2    0    0  0.23555932508E+02 -0.30922957808E+01 -0.36320499878E+02  0.47787274650E+02  0.20000016438E+02 0.  0.
        -12    1    1    2    0    0 -0.23555932508E+02  0.30922957808E+01  0.36320499878E+02  0.43400725350E+02  0.00000000000E+00 0.  1.
         11    1    3    3    0    0  0.11787481670E+02 -0.75228694544E+01 -0.30932259932E+02  0.33946177895E+02  0.51100000000E-03 0. -1.
        -11    1    3    3    0    0  0.77838252475E+01  0.36699124377E+01 -0.28946076934E+01  0.90793692922E+01  0.51100000000E-03 0.  1.
         12    1    3    3    0    0  0.39846255904E+01  0.76066123588E+00 -0.24936322529E+01  0.47617274622E+01  0.00000000000E+00 0. -1.
</event>
<event>
 7    1  0.2598019E-009  0.4778727E+02  0.7816164E-02  0.1312668E+00
        -11   -1    0    0    0    0  0.00000000000E+00  0.00000000000E+00  0.45593999997E+02  0.45594000000E+02  0.51100000000E-03 0. -1.
         11   -1    0    0    0    0 -0.00000000000E+00 -0.00000000000E+00 -0.45593999997E+02  0.45594000000E+02  0.51100000000E-03 0.  1.
    9900012    2    1    2    0    0  0.10397644574E+01  0.43365328923E+02  0.14109923959E+01  0.47787265418E+02  0.19999974345E+02 0.  0.
        -12    1    1    2    0    0 -0.10397644574E+01 -0.43365328923E+02 -0.14109923959E+01  0.43400734582E+02  0.00000000000E+00 0.  1.
         11    1    3    3    0    0  0.21852742892E+01  0.66780235010E+01  0.44229824650E+01  0.83026619675E+01  0.51100000000E-03 0. -1.
        -11    1    3    3    0    0 -0.43443716109E+01  0.35618570068E+02 -0.18979058318E+01  0.35932689089E+02  0.51100000000E-03 0.  1.
        -12    1    3    3    0    0  0.31988617791E+01  0.10687353546E+01 -0.11140842373E+01  0.35519143610E+01  0.00000000000E+00 0.  1.
</event>
<event>
 7    1  0.2598019E-009  0.4778727E+02  0.7816164E-02  0.1312668E+00
        -11   -1    0    0    0    0  0.00000000000E+00  0.00000000000E+00  0.45593999997E+02  0.45594000000E+02  0.51100000000E-03 0.  1.
         11   -1    0    0    0    0 -0.00000000000E+00 -0.00000000000E+00 -0.45593999997E+02  0.45594000000E+02  0.51100000000E-03 0. -1.
    9900012    2    1    2    0    0  0.37617745679E+02 -0.59103541954E+01 -0.20822969040E+02  0.47787272860E+02  0.20000008277E+02 0.  0.
        -12    1    1    2    0    0 -0.37617745679E+02  0.59103541954E+01  0.20822969040E+02  0.43400727140E+02  0.00000000000E+00 0.  1.
         11    1    3    3    0    0  0.73097121527E+01 -0.65198115753E+01 -0.12957963281E+02  0.16243418587E+02  0.51100000000E-03 0. -1.
        -11    1    3    3    0    0  0.95735370313E+01 -0.15540367637E+01 -0.23425934719E+01  0.99777445342E+01  0.51100000000E-03 0.  1.
         12    1    3    3    0    0  0.20734496495E+02  0.21634941436E+01 -0.55224122864E+01  0.21566109739E+02  0.00000000000E+00 0. -1.
</event>
<event>
 7    1  0.2598019E-009  0.4778727E+02  0.7816164E-02  0.1312668E+00
        -11   -1    0    0    0    0  0.00000000000E+00  0.00000000000E+00  0.45593999997E+02  0.45594000000E+02  0.51100000000E-03 0.  1.
         11   -1    0    0    0    0 -0.00000000000E+00 -0.00000000000E+00 -0.45593999997E+02  0.45594000000E+02  0.51100000000E-03 0. -1.
    9900012    2    1    2    0    0  0.21753290147E+01  0.30355349476E+02 -0.30942590381E+02  0.47787271924E+02  0.20000004008E+02 0.  0.
        -12    1    1    2    0    0 -0.21753290147E+01 -0.30355349476E+02  0.30942590381E+02  0.43400728076E+02  0.00000000000E+00 0.  1.
         11    1    3    3    0    0 -0.23838247859E+01  0.19399828504E+02 -0.23029180599E+02  0.30205614146E+02  0.51100000000E-03 0. -1.
        -11    1    3    3    0    0  0.74188540999E+01  0.88075058506E+01 -0.37902601360E+01  0.12123432997E+02  0.51100000000E-03 0.  1.
        -12    1    3    3    0    0 -0.28597002992E+01  0.21480151207E+01 -0.41231496460E+01  0.54582247813E+01  0.00000000000E+00 0.  1.
</event>
<event>
 7    1  0.2598019E-009  0.4778726E+02  0.7816164E-02  0.1312668E+00
        -11   -1    0    0    0    0  0.00000000000E+00  0.00000000000E+00  0.45593999997E+02  0.45594000000E+02  0.51100000000E-03 0.  1.
         11   -1    0    0    0    0 -0.00000000000E+00 -0.00000000000E+00 -0.45593999997E+02  0.45594000000E+02  0.51100000000E-03 0. -1.
    9900012    2    1    2    0    0 -0.92795136896E+01  0.37934974785E+02  0.18932832706E+02  0.47787264517E+02  0.19999970237E+02 0.  0.
        -12    1    1    2    0    0  0.92795136896E+01 -0.37934974785E+02 -0.18932832706E+02  0.43400735483E+02  0.00000000000E+00 0.  1.
         11    1    3    3    0    0 -0.10121997172E+02  0.20044212477E+02  0.82873242721E+01  0.23935434494E+02  0.51100000000E-03 0. -1.
        -11    1    3    3    0    0 -0.27842342925E+00  0.61578219450E+01  0.10368247818E+02  0.12062207666E+02  0.51100000000E-03 0.  1.
         12    1    3    3    0    0  0.11209069114E+01  0.11732940362E+02  0.27726061635E+00  0.11789622356E+02  0.00000000000E+00 0. -1.
</event>
<event>
 7    1  0.2598019E-009  0.4778728E+02  0.7816164E-02  0.1312668E+00
        -11   -1    0    0    0    0  0.00000000000E+00  0.00000000000E+00  0.45593999997E+02  0.45594000000E+02  0.51100000000E-03 0. -1.
         11   -1    0    0    0    0 -0.00000000000E+00 -0.00000000000E+00 -0.45593999997E+02  0.45594000000E+02  0.51100000000E-03 0.  1.
    9900012    2    1    2    0    0  0.75596573832E+01 -0.41769392502E+02 -0.90438849743E+01  0.47787280822E+02  0.20000044580E+02 0.  0.
        -12    1    1    2    0    0 -0.75596573832E+01  0.41769392502E+02  0.90438849743E+01  0.43400719178E+02  0.00000000000E+00 0.  1.
         11    1    3    3    0    0  0.36520746263E+01 -0.12283498672E+02  0.46341064695E+01  0.13627066146E+02  0.51100000000E-03 0. -1.
        -11    1    3    3    0    0  0.13759126556E+01 -0.27064833196E+02 -0.14238565069E+02  0.30612661874E+02  0.51100000000E-03 0.  1.
        -12    1    3    3    0    0  0.25316701012E+01 -0.24210606342E+01  0.56057362486E+00  0.35475528022E+01  0.00000000000E+00 0.  1.
</event>
<event>
 7    1  0.2598019E-009  0.4778727E+02  0.7816164E-02  0.1312668E+00
        -11   -1    0    0    0    0  0.00000000000E+00  0.00000000000E+00  0.45593999997E+02  0.45594000000E+02  0.51100000000E-03 0.  1.
         11   -1    0    0    0    0 -0.00000000000E+00 -0.00000000000E+00 -0.45593999997E+02  0.45594000000E+02  0.51100000000E-03 0. -1.
    9900012    2    1    2    0    0 -0.28871390558E+02  0.32404704492E+02  0.36948030704E-01  0.47787269233E+02  0.19999991739E+02 0.  0.
        -12    1    1    2    0    0  0.28871390558E+02 -0.32404704492E+02 -0.36948030704E-01  0.43400730767E+02  0.00000000000E+00 0.  1.
         11    1    3    3    0    0 -0.13781144773E+01 -0.12180472022E+00 -0.42731074452E+01  0.44914901093E+01  0.51100000000E-03 0. -1.
        -11    1    3    3    0    0 -0.75011636621E+01  0.13544991426E+02  0.23207943785E+01  0.15656319357E+02  0.51100000000E-03 0.  1.
         12    1    3    3    0    0 -0.19992112419E+02  0.18981517787E+02  0.19892610974E+01  0.27639459766E+02  0.00000000000E+00 0. -1.
</event>
<event>
 7    1  0.2598019E-009  0.4778727E+02  0.7816164E-02  0.1312668E+00
        -11   -1    0    0    0    0  0.00000000000E+00  0.00000000000E+00  0.45593999997E+02  0.45594000000E+02  0.51100000000E-03 0. -1.
         11   -1    0    0    0    0 -0.00000000000E+00 -0.00000000000E+00 -0.45593999997E+02  0.45594000000E+02  0.51100000000E-03 0.  1.
    9900012    2    1    2    0    0  0.10137238064E+02  0.29752658152E+02  0.29927231794E+02  0.47787268836E+02  0.19999989931E+02 0.  0.
        -12    1    1    2    0    0 -0.10137238064E+02 -0.29752658152E+02 -0.29927231794E+02  0.43400731164E+02  0.00000000000E+00 0.  1.
         11    1    3    3    0    0 -0.38711303834E+01  0.13189876987E+02  0.77251475131E+01  0.15768208831E+02  0.51100000000E-03 0.  1.
        -11    1    3    3    0    0  0.35076376558E+01  0.95110742884E+01  0.74124889608E+01  0.12558226344E+02  0.51100000000E-03 0. -1.
         12    1    3    3    0    0  0.10500730792E+02  0.70517068763E+01  0.14789595321E+02  0.19460833661E+02  0.00000000000E+00 0. -1.
</event>
<event>
 7    1  0.2598019E-009  0.4778727E+02  0.7816164E-02  0.1312668E+00
        -11   -1    0    0    0    0  0.00000000000E+00  0.00000000000E+00  0.45593999997E+02  0.45594000000E+02  0.51100000000E-03 0.  1.
         11   -1    0    0    0    0 -0.00000000000E+00 -0.00000000000E+00 -0.45593999997E+02  0.45594000000E+02  0.51100000000E-03 0. -1.
    9900012    2    1    2    0    0 -0.34890019446E+02  0.16215923813E+02 -0.20083665322E+02  0.47787271264E+02  0.20000001001E+02 0.  0.
        -12    1    1    2    0    0  0.34890019446E+02 -0.16215923813E+02  0.20083665322E+02  0.43400728736E+02  0.00000000000E+00 0.  1.
         11    1    3    3    0    0 -0.69959905408E+01  0.59952663124E+01 -0.61606588726E+01  0.11083357786E+02  0.51100000000E-03 0. -1.
        -11    1    3    3    0    0 -0.21364760715E+01  0.58146486374E+01  0.14819058716E+01  0.63695144284E+01  0.51100000000E-03 0.  1.
        -12    1    3    3    0    0 -0.25757552834E+02  0.44060088630E+01 -0.15404912321E+02  0.30334399050E+02  0.00000000000E+00 0.  1.
</event>
<event>
 7    1  0.2598019E-009  0.4778727E+02  0.7816164E-02  0.1312668E+00
        -11   -1    0    0    0    0  0.00000000000E+00  0.00000000000E+00  0.45593999997E+02  0.45594000000E+02  0.51100000000E-03 0. -1.
         11   -1    0    0    0    0 -0.00000000000E+00 -0.00000000000E+00 -0.45593999997E+02  0.45594000000E+02  0.51100000000E-03 0.  1.
    9900012    2    1    2    0    0 -0.20184139218E+02  0.33831341137E+02  0.18211647004E+02  0.47787271830E+02  0.20000003582E+02 0.  0.
        -12    1    1    2    0    0  0.20184139218E+02 -0.33831341137E+02 -0.18211647004E+02  0.43400728170E+02  0.00000000000E+00 0.  1.
         11    1    3    3    0    0  0.46780774522E+00  0.12326523283E+02  0.61244563406E+01  0.13772108991E+02  0.51100000000E-03 0. -1.
        -11    1    3    3    0    0 -0.10845516970E+02  0.51659006622E+01  0.12108495654E+01  0.12073852945E+02  0.51100000000E-03 0.  1.
        -12    1    3    3    0    0 -0.98064299934E+01  0.16338917192E+02  0.10876341098E+02  0.21941309895E+02  0.00000000000E+00 0.  1.
</event>
<event>
 7    1 -0.2598019E-009  0.4778727E+02  0.7816164E-02  0.1312668E+00
        -11   -1    0    0    0    0  0.00000000000E+00  0.00000000000E+00  0.45593999997E+02  0.45594000000E+02  0.51100000000E-03 0.  1.
         11   -1    0    0    0    0 -0.00000000000E+00 -0.00000000000E+00 -0.45593999997E+02  0.45594000000E+02  0.51100000000E-03 0. -1.
    9900012    2    1    2    0    0 -0.23951106962E+02  0.14668762622E+02 -0.33087689282E+02  0.47787270703E+02  0.19999998442E+02 0.  0.
        -12    1    1    2    0    0  0.23951106962E+02 -0.14668762622E+02  0.33087689282E+02  0.43400729297E+02  0.00000000000E+00 0.  1.
         11    1    3    3    0    0  0.12223881858E+01  0.15450420422E+01 -0.75877855705E+00  0.21111923050E+01  0.51100000000E-03 0. -1.
        -11    1    3    3    0    0 -0.16567312304E+02  0.11229469671E+02 -0.11555224290E+02  0.23110604378E+02  0.51100000000E-03 0.  1.
        -12    1    3    3    0    0 -0.86061828438E+01  0.18942509082E+01 -0.20773686435E+02  0.22565474020E+02  0.00000000000E+00 0.  1.
</event>
<event>
 7    1  0.2598019E-009  0.4778727E+02  0.7816164E-02  0.1312668E+00
        -11   -1    0    0    0    0  0.00000000000E+00  0.00000000000E+00  0.45593999997E+02  0.45594000000E+02  0.51100000000E-03 0.  1.
         11   -1    0    0    0    0 -0.00000000000E+00 -0.00000000000E+00 -0.45593999997E+02  0.45594000000E+02  0.51100000000E-03 0. -1.
    9900012    2    1    2    0    0  0.24966998432E+02 -0.23130870634E+02 -0.26930193142E+02  0.47787268558E+02  0.19999988664E+02 0.  0.
        -12    1    1    2    0    0 -0.24966998432E+02  0.23130870634E+02  0.26930193142E+02  0.43400731442E+02  0.00000000000E+00 0.  1.
         11    1    3    3    0    0 -0.20586030098E+01 -0.23805908874E+01 -0.62548050328E+01  0.70019744062E+01  0.51100000000E-03 0.  1.
        -11    1    3    3    0    0  0.14784363355E+02 -0.15887521512E+02 -0.15327985923E+02  0.26569491759E+02  0.51100000000E-03 0. -1.
        -12    1    3    3    0    0  0.12241238086E+02 -0.48627582351E+01 -0.53474021870E+01  0.14215802393E+02  0.00000000000E+00 0.  1.
</event>
<event>
 7    1  0.2598019E-009  0.4778727E+02  0.7816164E-02  0.1312668E+00
        -11   -1    0    0    0    0  0.00000000000E+00  0.00000000000E+00  0.45593999997E+02  0.45594000000E+02  0.51100000000E-03 0.  1.
         11   -1    0    0    0    0 -0.00000000000E+00 -0.00000000000E+00 -0.45593999997E+02  0.45594000000E+02  0.51100000000E-03 0. -1.
    9900012    2    1    2    0    0 -0.22448184973E+02 -0.31759164310E+02 -0.19262853787E+02  0.47787273482E+02  0.20000011114E+02 0.  0.
        -12    1    1    2    0    0  0.22448184973E+02  0.31759164310E+02  0.19262853787E+02  0.43400726518E+02  0.00000000000E+00 0.  1.
         11    1    3    3    0    0 -0.14558710427E+02 -0.16923959093E+02 -0.82966546158E+01  0.23816190265E+02  0.51100000000E-03 0. -1.
        -11    1    3    3    0    0 -0.19697346852E+01 -0.12295057565E+02 -0.12177295964E+02  0.17416510343E+02  0.51100000000E-03 0.  1.
        -12    1    3    3    0    0 -0.59197398609E+01 -0.25401476519E+01  0.12110967930E+01  0.65545728737E+01  0.00000000000E+00 0.  1.
</event>
<event>
 7    1  0.2598019E-009  0.4778728E+02  0.7816164E-02  0.1312668E+00
        -11   -1    0    0    0    0  0.00000000000E+00  0.00000000000E+00  0.45593999997E+02  0.45594000000E+02  0.51100000000E-03 0.  1.
         11   -1    0    0    0    0 -0.00000000000E+00 -0.00000000000E+00 -0.45593999997E+02  0.45594000000E+02  0.51100000000E-03 0. -1.
    9900012    2    1    2    0    0  0.60803640844E+01 -0.13875807545E+02 -0.40670800737E+02  0.47787275409E+02  0.20000019902E+02 0.  0.
        -12    1    1    2    0    0 -0.60803640844E+01  0.13875807545E+02  0.40670800737E+02  0.43400724591E+02  0.00000000000E+00 0.  1.
         11    1    3    3    0    0 -0.41025638048E+01 -0.23316760289E+01 -0.12079942320E+02  0.12968914742E+02  0.51100000000E-03 0. -1.
        -11    1    3    3    0    0  0.84927961414E+01 -0.17792168317E+01 -0.73204353366E+01  0.11352619637E+02  0.51100000000E-03 0.  1.
         12    1    3    3    0    0  0.16901317479E+01 -0.97649146840E+01 -0.21270423080E+02  0.23465741031E+02  0.00000000000E+00 0. -1.
</event>
<event>
 7    1  0.2598019E-009  0.4778727E+02  0.7816164E-02  0.1312668E+00
        -11   -1    0    0    0    0  0.00000000000E+00  0.00000000000E+00  0.45593999997E+02  0.45594000000E+02  0.51100000000E-03 0.  1.
         11   -1    0    0    0    0 -0.00000000000E+00 -0.00000000000E+00 -0.45593999997E+02  0.45594000000E+02  0.51100000000E-03 0. -1.
    9900012    2    1    2    0    0 -0.34124769250E+02  0.26751456483E+02 -0.18663039682E+01  0.47787269697E+02  0.19999993857E+02 0.  0.
        -12    1    1    2    0    0  0.34124769250E+02 -0.26751456483E+02  0.18663039682E+01  0.43400730303E+02  0.00000000000E+00 0.  1.
         11    1    3    3    0    0 -0.18686431191E+02  0.99903838624E+01 -0.48799410599E+01  0.21744063681E+02  0.51100000000E-03 0. -1.
        -11    1    3    3    0    0 -0.13247801678E+01  0.28864245920E+01  0.52396708370E+01  0.61270417136E+01  0.51100000000E-03 0.  1.
        -12    1    3    3    0    0 -0.14113557891E+02  0.13874648029E+02 -0.22260337454E+01  0.19916164302E+02  0.00000000000E+00 0.  1.
</event>
<event>
 7    1  0.2598019E-009  0.4778727E+02  0.7816164E-02  0.1312668E+00
        -11   -1    0    0    0    0  0.00000000000E+00  0.00000000000E+00  0.45593999997E+02  0.45594000000E+02  0.51100000000E-03 0. -1.
         11   -1    0    0    0    0 -0.00000000000E+00 -0.00000000000E+00 -0.45593999997E+02  0.45594000000E+02  0.51100000000E-03 0.  1.
    9900012    2    1    2    0    0  0.29532170335E+02  0.31664643839E+02  0.29706450196E+01  0.47787268601E+02  0.19999988858E+02 0.  0.
        -12    1    1    2    0    0 -0.29532170335E+02 -0.31664643839E+02 -0.29706450196E+01  0.43400731399E+02  0.00000000000E+00 0.  1.
         11    1    3    3    0    0  0.56035275758E+01  0.69233309372E+01  0.57914012307E+01  0.10624140484E+02  0.51100000000E-03 0.  1.
        -11    1    3    3    0    0  0.11309657253E+02  0.67502661014E+01  0.46268761112E+01  0.13960029457E+02  0.51100000000E-03 0. -1.
        -12    1    3    3    0    0  0.12618985506E+02  0.17991046801E+02 -0.74476323223E+01  0.23203098659E+02  0.00000000000E+00 0.  1.
</event>
<event>
 7    1  0.2598019E-009  0.4778727E+02  0.7816164E-02  0.1312668E+00
        -11   -1    0    0    0    0  0.00000000000E+00  0.00000000000E+00  0.45593999997E+02  0.45594000000E+02  0.51100000000E-03 0.  1.
         11   -1    0    0    0    0 -0.00000000000E+00 -0.00000000000E+00 -0.45593999997E+02  0.45594000000E+02  0.51100000000E-03 0. -1.
    9900012    2    1    2    0    0 -0.25457180614E+02 -0.31031045474E+02 -0.16511491827E+02  0.47787272006E+02  0.20000004385E+02 0.  0.
        -12    1    1    2    0    0  0.25457180614E+02  0.31031045474E+02  0.16511491827E+02  0.43400727994E+02  0.00000000000E+00 0.  1.
         11    1    3    3    0    0 -0.24594792195E+01 -0.39904554149E+01 -0.48056894878E+01  0.67132275519E+01  0.51100000000E-03 0. -1.
        -11    1    3    3    0    0 -0.76899799734E+01 -0.21853323688E+02 -0.59699715529E+01  0.23923714361E+02  0.51100000000E-03 0.  1.
        -12    1    3    3    0    0 -0.15307721421E+02 -0.51872663716E+01 -0.57358307862E+01  0.17150330094E+02  0.00000000000E+00 0.  1.
</event>
<event>
 7    1  0.2598019E-009  0.4778727E+02  0.7816164E-02  0.1312668E+00
        -11   -1    0    0    0    0  0.00000000000E+00  0.00000000000E+00  0.45593999997E+02  0.45594000000E+02  0.51100000000E-03 0. -1.
         11   -1    0    0    0    0 -0.00000000000E+00 -0.00000000000E+00 -0.45593999997E+02  0.45594000000E+02  0.51100000000E-03 0.  1.
    9900012    2    1    2    0    0  0.41639659028E+02  0.95752470855E+01 -0.76208086063E+01  0.47787270921E+02  0.19999999439E+02 0.  0.
        -12    1    1    2    0    0 -0.41639659028E+02 -0.95752470855E+01  0.76208086063E+01  0.43400729079E+02  0.00000000000E+00 0.  1.
         11    1    3    3    0    0  0.38401933456E+02  0.53696682069E+01 -0.36140939250E+01  0.38943593889E+02  0.51100000000E-03 0. -1.
        -11    1    3    3    0    0  0.48650652419E+00 -0.18896119086E-01 -0.37651775966E+01  0.37965258140E+01  0.51100000000E-03 0.  1.
        -12    1    3    3    0    0  0.27512190477E+01  0.42244749977E+01 -0.24153708472E+00  0.50471512180E+01  0.00000000000E+00 0.  1.
</event>
<event>
 7    1  0.2598019E-009  0.4778729E+02  0.7816164E-02  0.1312668E+00
        -11   -1    0    0    0    0  0.00000000000E+00  0.00000000000E+00  0.45593999997E+02  0.45594000000E+02  0.51100000000E-03 0. -1.
         11   -1    0    0    0    0 -0.00000000000E+00 -0.00000000000E+00 -0.45593999997E+02  0.45594000000E+02  0.51100000000E-03 0.  1.
    9900012    2    1    2    0    0  0.68033574961E+01  0.18543727164E+02  0.38645394809E+02  0.47787285371E+02  0.20000065320E+02 0.  0.
        -12    1    1    2    0    0 -0.68033574961E+01 -0.18543727164E+02 -0.38645394809E+02  0.43400714629E+02  0.00000000000E+00 0.  1.
         11    1    3    3    0    0  0.33013349190E+01  0.14044555283E+02  0.32859849278E+02  0.35887575011E+02  0.51100000000E-03 0. -1.
        -11    1    3    3    0    0  0.28232941256E+01  0.68150418601E+01  0.24303237452E+01  0.77667405675E+01  0.51100000000E-03 0.  1.
         12    1    3    3    0    0  0.67872845147E+00 -0.23158699790E+01  0.33552217858E+01  0.41329697921E+01  0.00000000000E+00 0. -1.
</event>
<event>
 7    1  0.2598019E-009  0.4778727E+02  0.7816164E-02  0.1312668E+00
        -11   -1    0    0    0    0  0.00000000000E+00  0.00000000000E+00  0.45593999997E+02  0.45594000000E+02  0.51100000000E-03 0.  1.
         11   -1    0    0    0    0 -0.00000000000E+00 -0.00000000000E+00 -0.45593999997E+02  0.45594000000E+02  0.51100000000E-03 0. -1.
    9900012    2    1    2    0    0  0.23026543996E+01 -0.40980524364E+02 -0.14103808135E+02  0.47787274219E+02  0.20000014475E+02 0.  0.
        -12    1    1    2    0    0 -0.23026543996E+01  0.40980524364E+02  0.14103808135E+02  0.43400725781E+02  0.00000000000E+00 0.  1.
         11    1    3    3    0    0  0.48237746440E+01 -0.36856769265E+02 -0.11403939115E+02  0.38881101708E+02  0.51100000000E-03 0. -1.
        -11    1    3    3    0    0 -0.85489099758E+00  0.19807753761E+01 -0.60562979060E+00  0.22407805365E+01  0.51100000000E-03 0.  1.
         12    1    3    3    0    0 -0.16662292469E+01 -0.61045304746E+01 -0.20942392298E+01  0.66653919742E+01  0.00000000000E+00 0. -1.
</event>
<event>
 7    1  0.2598019E-009  0.4778728E+02  0.7816164E-02  0.1312668E+00
        -11   -1    0    0    0    0  0.00000000000E+00  0.00000000000E+00  0.45593999997E+02  0.45594000000E+02  0.51100000000E-03 0. -1.
         11   -1    0    0    0    0 -0.00000000000E+00 -0.00000000000E+00 -0.45593999997E+02  0.45594000000E+02  0.51100000000E-03 0.  1.
    9900012    2    1    2    0    0 -0.31673898441E+02  0.16586883209E+02 -0.24602070138E+02  0.47787281203E+02  0.20000046315E+02 0.  0.
        -12    1    1    2    0    0  0.31673898441E+02 -0.16586883209E+02  0.24602070138E+02  0.43400718797E+02  0.00000000000E+00 0.  1.
         11    1    3    3    0    0 -0.12969315277E+02 -0.14226339464E+01 -0.81094718362E+01  0.15361984241E+02  0.51100000000E-03 0. -1.
        -11    1    3    3    0    0  0.56131849135E+00  0.40962659343E+01 -0.28719172148E+01  0.50341217509E+01  0.51100000000E-03 0.  1.
         12    1    3    3    0    0 -0.19265901655E+02  0.13913251221E+02 -0.13620681087E+02  0.27391175210E+02  0.00000000000E+00 0. -1.
</event>
<event>
 7    1  0.2598019E-009  0.4778727E+02  0.7816164E-02  0.1312668E+00
        -11   -1    0    0    0    0  0.00000000000E+00  0.00000000000E+00  0.45593999997E+02  0.45594000000E+02  0.51100000000E-03 0. -1.
         11   -1    0    0    0    0 -0.00000000000E+00 -0.00000000000E+00 -0.45593999997E+02  0.45594000000E+02  0.51100000000E-03 0.  1.
    9900012    2    1    2    0    0  0.39736861672E+02 -0.13889581041E+02  0.10568101110E+02  0.47787269613E+02  0.19999993474E+02 0.  0.
        -12    1    1    2    0    0 -0.39736861672E+02  0.13889581041E+02 -0.10568101110E+02  0.43400730387E+02  0.00000000000E+00 0.  1.
         11    1    3    3    0    0  0.29344567270E+02 -0.65059490903E+01  0.13427198917E+02  0.32919913014E+02  0.51100000000E-03 0. -1.
        -11    1    3    3    0    0  0.36288665715E+01 -0.57992487392E+01  0.10112493030E+01  0.69153874763E+01  0.51100000000E-03 0.  1.
         12    1    3    3    0    0  0.67634278310E+01 -0.15843832116E+01 -0.38703471098E+01  0.79519691232E+01  0.00000000000E+00 0. -1.
</event>
<event>
 7    1  0.2598019E-009  0.4778727E+02  0.7816164E-02  0.1312668E+00
        -11   -1    0    0    0    0  0.00000000000E+00  0.00000000000E+00  0.45593999997E+02  0.45594000000E+02  0.51100000000E-03 0. -1.
         11   -1    0    0    0    0 -0.00000000000E+00 -0.00000000000E+00 -0.45593999997E+02  0.45594000000E+02  0.51100000000E-03 0.  1.
    9900012    2    1    2    0    0  0.20745993168E+02  0.35246563091E+02  0.14522638823E+02  0.47787268662E+02  0.19999989138E+02 0.  0.
        -12    1    1    2    0    0 -0.20745993168E+02 -0.35246563091E+02 -0.14522638823E+02  0.43400731338E+02  0.00000000000E+00 0.  1.
         11    1    3    3    0    0  0.13927476953E+02  0.24849626655E+02  0.10731199205E+02  0.30440716085E+02  0.51100000000E-03 0. -1.
        -11    1    3    3    0    0 -0.25695235386E+01  0.59240527097E+01  0.22261706186E+01  0.68302772716E+01  0.51100000000E-03 0.  1.
        -12    1    3    3    0    0  0.93880397537E+01  0.44728837272E+01  0.15652689995E+01  0.10516275305E+02  0.00000000000E+00 0.  1.
</event>
<event>
 7    1  0.2598019E-009  0.4778727E+02  0.7816164E-02  0.1312668E+00
        -11   -1    0    0    0    0  0.00000000000E+00  0.00000000000E+00  0.45593999997E+02  0.45594000000E+02  0.51100000000E-03 0.  1.
         11   -1    0    0    0    0 -0.00000000000E+00 -0.00000000000E+00 -0.45593999997E+02  0.45594000000E+02  0.51100000000E-03 0. -1.
    9900012    2    1    2    0    0 -0.15086602225E+01 -0.18252352229E+01 -0.43336076773E+02  0.47787273171E+02  0.20000009694E+02 0.  0.
        -12    1    1    2    0    0  0.15086602225E+01  0.18252352229E+01  0.43336076773E+02  0.43400726829E+02  0.00000000000E+00 0.  1.
         11    1    3    3    0    0  0.27075222075E+01 -0.71926910731E+01 -0.26030576978E+02  0.27141415207E+02  0.51100000000E-03 0. -1.
        -11    1    3    3    0    0 -0.34948729885E+01  0.71016704834E+01 -0.83885458467E+01  0.11533237297E+02  0.51100000000E-03 0.  1.
        -12    1    3    3    0    0 -0.72130944150E+00 -0.17342146331E+01 -0.89169539480E+01  0.91126206666E+01  0.00000000000E+00 0.  1.
</event>
<event>
 7    1  0.2598019E-009  0.4778727E+02  0.7816164E-02  0.1312668E+00
        -11   -1    0    0    0    0  0.00000000000E+00  0.00000000000E+00  0.45593999997E+02  0.45594000000E+02  0.51100000000E-03 0.  1.
         11   -1    0    0    0    0 -0.00000000000E+00 -0.00000000000E+00 -0.45593999997E+02  0.45594000000E+02  0.51100000000E-03 0. -1.
    9900012    2    1    2    0    0 -0.25756337763E+02 -0.35229197431E+01 -0.34753756414E+02  0.47787268631E+02  0.19999988996E+02 0.  0.
        -12    1    1    2    0    0  0.25756337763E+02  0.35229197431E+01  0.34753756414E+02  0.43400731369E+02  0.00000000000E+00 0.  1.
         11    1    3    3    0    0 -0.80501818792E+01  0.63920964093E+01 -0.97924128996E+01  0.14197030515E+02  0.51100000000E-03 0.  1.
        -11    1    3    3    0    0  0.10650583607E+01 -0.11144921218E+01 -0.74629065485E+00  0.17127148052E+01  0.51100000000E-03 0. -1.
         12    1    3    3    0    0 -0.18771214244E+02 -0.88005240306E+01 -0.24215052860E+02  0.31877523311E+02  0.00000000000E+00 0. -1.
</event>
<event>
 7    1  0.2598019E-009  0.4778727E+02  0.7816164E-02  0.1312668E+00
        -11   -1    0    0    0    0  0.00000000000E+00  0.00000000000E+00  0.45593999997E+02  0.45594000000E+02  0.51100000000E-03 0.  1.
         11   -1    0    0    0    0 -0.00000000000E+00 -0.00000000000E+00 -0.45593999997E+02  0.45594000000E+02  0.51100000000E-03 0. -1.
    9900012    2    1    2    0    0  0.28954055498E+02  0.30730086843E+02  0.10047274214E+02  0.47787270901E+02  0.19999999348E+02 0.  0.
        -12    1    1    2    0    0 -0.28954055498E+02 -0.30730086843E+02 -0.10047274214E+02  0.43400729099E+02  0.00000000000E+00 0.  1.
         11    1    3    3    0    0  0.14556772157E+02  0.28159928025E+02  0.61231730514E+01  0.32285823677E+02  0.51100000000E-03 0. -1.
        -11    1    3    3    0    0  0.44821701079E+01 -0.64201602414E+00  0.63439819640E+00  0.45721433468E+01  0.51100000000E-03 0.  1.
         12    1    3    3    0    0  0.99151132334E+01  0.32121748415E+01  0.32897029664E+01  0.10929303878E+02  0.00000000000E+00 0. -1.
</event>
<event>
 7    1  0.2598019E-009  0.4778727E+02  0.7816164E-02  0.1312668E+00
        -11   -1    0    0    0    0  0.00000000000E+00  0.00000000000E+00  0.45593999997E+02  0.45594000000E+02  0.51100000000E-03 0.  1.
         11   -1    0    0    0    0 -0.00000000000E+00 -0.00000000000E+00 -0.45593999997E+02  0.45594000000E+02  0.51100000000E-03 0. -1.
    9900012    2    1    2    0    0  0.47827578276E+01  0.34960426842E+02 -0.25268893993E+02  0.47787271653E+02  0.20000002776E+02 0.  0.
        -12    1    1    2    0    0 -0.47827578276E+01 -0.34960426842E+02  0.25268893993E+02  0.43400728347E+02  0.00000000000E+00 0.  1.
         11    1    3    3    0    0  0.48672274031E+01  0.23087395672E+02 -0.17944774210E+02  0.29643425295E+02  0.51100000000E-03 0. -1.
        -11    1    3    3    0    0 -0.43726052947E+00  0.14114012072E+01  0.30608016865E+01  0.33987876315E+01  0.51100000000E-03 0.  1.
        -12    1    3    3    0    0  0.35279095395E+00  0.10461629963E+02 -0.10384921469E+02  0.14745058727E+02  0.00000000000E+00 0.  1.
</event>
<event>
 7    1  0.2598019E-009  0.4778727E+02  0.7816164E-02  0.1312668E+00
        -11   -1    0    0    0    0  0.00000000000E+00  0.00000000000E+00  0.45593999997E+02  0.45594000000E+02  0.51100000000E-03 0.  1.
         11   -1    0    0    0    0 -0.00000000000E+00 -0.00000000000E+00 -0.45593999997E+02  0.45594000000E+02  0.51100000000E-03 0. -1.
    9900012    2    1    2    0    0  0.40135521825E+02  0.16196773549E+02  0.32291969588E+01  0.47787270760E+02  0.19999998704E+02 0.  0.
        -12    1    1    2    0    0 -0.40135521825E+02 -0.16196773549E+02 -0.32291969588E+01  0.43400729240E+02  0.00000000000E+00 0.  1.
         11    1    3    3    0    0  0.31059510168E+01 -0.30618969130E+01  0.17428896265E+00  0.43649193954E+01  0.51100000000E-03 0. -1.
        -11    1    3    3    0    0  0.17179910028E+02  0.14041404760E+02  0.51922699691E+01  0.22787497096E+02  0.51100000000E-03 0.  1.
        -12    1    3    3    0    0  0.19849660780E+02  0.52172657019E+01 -0.21373619729E+01  0.20634854269E+02  0.00000000000E+00 0.  1.
</event>
<event>
 7    1  0.2598019E-009  0.4778727E+02  0.7816164E-02  0.1312668E+00
        -11   -1    0    0    0    0  0.00000000000E+00  0.00000000000E+00  0.45593999997E+02  0.45594000000E+02  0.51100000000E-03 0. -1.
         11   -1    0    0    0    0 -0.00000000000E+00 -0.00000000000E+00 -0.45593999997E+02  0.45594000000E+02  0.51100000000E-03 0.  1.
    9900012    2    1    2    0    0  0.38165229953E+02  0.20482304667E+02 -0.27411089948E+01  0.47787271200E+02  0.20000000710E+02 0.  0.
        -12    1    1    2    0    0 -0.38165229953E+02 -0.20482304667E+02  0.27411089948E+01  0.43400728800E+02  0.00000000000E+00 0.  1.
         11    1    3    3    0    0  0.81536115915E+01  0.13056328802E+02 -0.52885057738E+01  0.16276283278E+02  0.51100000000E-03 0. -1.
        -11    1    3    3    0    0  0.20546409659E+02  0.50935566496E+01  0.43150268228E+01  0.21603673900E+02  0.51100000000E-03 0.  1.
         12    1    3    3    0    0  0.94652087022E+01  0.23324192162E+01 -0.17676300439E+01  0.99073140229E+01  0.00000000000E+00 0. -1.
</event>
<event>
 7    1  0.2598019E-009  0.4778727E+02  0.7816164E-02  0.1312668E+00
        -11   -1    0    0    0    0  0.00000000000E+00  0.00000000000E+00  0.45593999997E+02  0.45594000000E+02  0.51100000000E-03 0.  1.
         11   -1    0    0    0    0 -0.00000000000E+00 -0.00000000000E+00 -0.45593999997E+02  0.45594000000E+02  0.51100000000E-03 0. -1.
    9900012    2    1    2    0    0  0.22012931480E+01  0.39643301155E+02 -0.17526724986E+02  0.47787272969E+02  0.20000008777E+02 0.  0.
        -12    1    1    2    0    0 -0.22012931480E+01 -0.39643301155E+02  0.17526724986E+02  0.43400727031E+02  0.00000000000E+00 0.  1.
         11    1    3    3    0    0 -0.14058463861E+01  0.93789147992E+01 -0.38563605628E+01  0.10237771433E+02  0.51100000000E-03 0. -1.
        -11    1    3    3    0    0  0.21985267572E+01  0.29740151493E+02 -0.68931267147E+01  0.30607602436E+02  0.51100000000E-03 0.  1.
        -12    1    3    3    0    0  0.14086127770E+01  0.52423486325E+00 -0.67772377090E+01  0.69418990998E+01  0.00000000000E+00 0.  1.
</event>
<event>
 7    1  0.2598019E-009  0.4778727E+02  0.7816164E-02  0.1312668E+00
        -11   -1    0    0    0    0  0.00000000000E+00  0.00000000000E+00  0.45593999997E+02  0.45594000000E+02  0.51100000000E-03 0.  1.
         11   -1    0    0    0    0 -0.00000000000E+00 -0.00000000000E+00 -0.45593999997E+02  0.45594000000E+02  0.51100000000E-03 0. -1.
    9900012    2    1    2    0    0 -0.14297176334E+02 -0.20853950428E+02 -0.35275016679E+02  0.47787270728E+02  0.19999998559E+02 0.  0.
        -12    1    1    2    0    0  0.14297176334E+02  0.20853950428E+02  0.35275016679E+02  0.43400729272E+02  0.00000000000E+00 0.  1.
         11    1    3    3    0    0 -0.10206020547E+02 -0.12651633835E+02 -0.84534831715E+01  0.18321792273E+02  0.51100000000E-03 0. -1.
        -11    1    3    3    0    0 -0.18088828479E+01  0.12911778851E+01 -0.74181582461E+01  0.77439182275E+01  0.51100000000E-03 0.  1.
         12    1    3    3    0    0 -0.22822729383E+01 -0.94934944788E+01 -0.19403375262E+02  0.21721560228E+02  0.00000000000E+00 0. -1.
</event>
<event>
 7    1  0.2598019E-009  0.4778727E+02  0.7816164E-02  0.1312668E+00
        -11   -1    0    0    0    0  0.00000000000E+00  0.00000000000E+00  0.45593999997E+02  0.45594000000E+02  0.51100000000E-03 0.  1.
         11   -1    0    0    0    0 -0.00000000000E+00 -0.00000000000E+00 -0.45593999997E+02  0.45594000000E+02  0.51100000000E-03 0. -1.
    9900012    2    1    2    0    0 -0.30124507986E+02  0.11760980358E+01 -0.31221049139E+02  0.47787273078E+02  0.20000009273E+02 0.  0.
        -12    1    1    2    0    0  0.30124507986E+02 -0.11760980358E+01  0.31221049139E+02  0.43400726922E+02  0.00000000000E+00 0.  1.
         11    1    3    3    0    0 -0.56113225815E+01  0.43055746133E+01 -0.15083504940E+01  0.72318763359E+01  0.51100000000E-03 0.  1.
        -11    1    3    3    0    0 -0.19331580543E+02 -0.21755132226E+01 -0.29430893695E+02  0.35279177542E+02  0.51100000000E-03 0. -1.
         12    1    3    3    0    0 -0.51816048616E+01 -0.95396335490E+00 -0.28180495005E+00  0.52762192007E+01  0.00000000000E+00 0. -1.
</event>
<event>
 7    1  0.2598019E-009  0.4778727E+02  0.7816164E-02  0.1312668E+00
        -11   -1    0    0    0    0  0.00000000000E+00  0.00000000000E+00  0.45593999997E+02  0.45594000000E+02  0.51100000000E-03 0.  1.
         11   -1    0    0    0    0 -0.00000000000E+00 -0.00000000000E+00 -0.45593999997E+02  0.45594000000E+02  0.51100000000E-03 0. -1.
    9900012    2    1    2    0    0  0.14480815695E+02  0.55263691632E+01 -0.40538728918E+02  0.47787270495E+02  0.19999997493E+02 0.  0.
        -12    1    1    2    0    0 -0.14480815695E+02 -0.55263691632E+01  0.40538728918E+02  0.43400729505E+02  0.00000000000E+00 0.  1.
         11    1    3    3    0    0  0.70614196772E+01 -0.19403504195E+01 -0.24087705728E+02  0.25176301855E+02  0.51100000000E-03 0. -1.
        -11    1    3    3    0    0 -0.16509182915E+01  0.19706138042E+01  0.49677694725E+00  0.26183272460E+01  0.51100000000E-03 0.  1.
         12    1    3    3    0    0  0.90703143096E+01  0.54961057785E+01 -0.16947800137E+02  0.19992641393E+02  0.00000000000E+00 0. -1.
</event>
<event>
 7    1  0.2598019E-009  0.4778727E+02  0.7816164E-02  0.1312668E+00
        -11   -1    0    0    0    0  0.00000000000E+00  0.00000000000E+00  0.45593999997E+02  0.45594000000E+02  0.51100000000E-03 0. -1.
         11   -1    0    0    0    0 -0.00000000000E+00 -0.00000000000E+00 -0.45593999997E+02  0.45594000000E+02  0.51100000000E-03 0.  1.
    9900012    2    1    2    0    0  0.11790856920E+02 -0.37894152993E+02 -0.17567934671E+02  0.47787268824E+02  0.19999989877E+02 0.  0.
        -12    1    1    2    0    0 -0.11790856920E+02  0.37894152993E+02  0.17567934671E+02  0.43400731176E+02  0.00000000000E+00 0.  1.
         11    1    3    3    0    0  0.17524101307E+01 -0.73611674187E+01  0.36516116824E+01  0.84019042587E+01  0.51100000000E-03 0. -1.
        -11    1    3    3    0    0  0.18896897870E+01 -0.41931292223E+00 -0.76750911858E+00  0.20822635102E+01  0.51100000000E-03 0.  1.
         12    1    3    3    0    0  0.81487570026E+01 -0.30113672652E+02 -0.20452037235E+02  0.37303101055E+02  0.00000000000E+00 0. -1.
</event>
<event>
 7    1  0.2598019E-009  0.4778727E+02  0.7816164E-02  0.1312668E+00
        -11   -1    0    0    0    0  0.00000000000E+00  0.00000000000E+00  0.45593999997E+02  0.45594000000E+02  0.51100000000E-03 0.  1.
         11   -1    0    0    0    0 -0.00000000000E+00 -0.00000000000E+00 -0.45593999997E+02  0.45594000000E+02  0.51100000000E-03 0. -1.
    9900012    2    1    2    0    0  0.29751829612E+02  0.19875129269E+02 -0.24564835225E+02  0.47787271223E+02  0.20000000816E+02 0.  0.
        -12    1    1    2    0    0 -0.29751829612E+02 -0.19875129269E+02  0.24564835225E+02  0.43400728777E+02  0.00000000000E+00 0.  1.
         11    1    3    3    0    0  0.10620453872E+02  0.49666935478E+01 -0.76140933863E+01  0.13979860643E+02  0.51100000000E-03 0.  1.
        -11    1    3    3    0    0  0.12799202910E+02  0.53828233598E+01 -0.17520030701E+02  0.22354996276E+02  0.51100000000E-03 0. -1.
        -12    1    3    3    0    0  0.63321728301E+01  0.95256123610E+01  0.56928886234E+00  0.11452414305E+02  0.00000000000E+00 0.  1.
</event>
<event>
 7    1  0.2598019E-009  0.4778727E+02  0.7816164E-02  0.1312668E+00
        -11   -1    0    0    0    0  0.00000000000E+00  0.00000000000E+00  0.45593999997E+02  0.45594000000E+02  0.51100000000E-03 0.  1.
         11   -1    0    0    0    0 -0.00000000000E+00 -0.00000000000E+00 -0.45593999997E+02  0.45594000000E+02  0.51100000000E-03 0. -1.
    9900012    2    1    2    0    0 -0.20210075502E+02  0.18398432907E+02 -0.33714594713E+02  0.47787269800E+02  0.19999994326E+02 0.  0.
        -12    1    1    2    0    0  0.20210075502E+02 -0.18398432907E+02  0.33714594713E+02  0.43400730200E+02  0.00000000000E+00 0.  1.
         11    1    3    3    0    0 -0.73645163891E+01  0.11461126003E+02 -0.25156998971E+02  0.28608881635E+02  0.51100000000E-03 0. -1.
        -11    1    3    3    0    0 -0.39885748565E+01  0.95200731967E+00  0.16289888331E+01  0.44123295663E+01  0.51100000000E-03 0.  1.
         12    1    3    3    0    0 -0.88569842568E+01  0.59852995841E+01 -0.10186584575E+02  0.14766058599E+02  0.00000000000E+00 0. -1.
</event>
<event>
 7    1  0.2598019E-009  0.4778727E+02  0.7816164E-02  0.1312668E+00
        -11   -1    0    0    0    0  0.00000000000E+00  0.00000000000E+00  0.45593999997E+02  0.45594000000E+02  0.51100000000E-03 0.  1.
         11   -1    0    0    0    0 -0.00000000000E+00 -0.00000000000E+00 -0.45593999997E+02  0.45594000000E+02  0.51100000000E-03 0. -1.
    9900012    2    1    2    0    0 -0.90575694500E+01  0.10697363739E+02 -0.41074934153E+02  0.47787269926E+02  0.19999994899E+02 0.  0.
        -12    1    1    2    0    0  0.90575694500E+01 -0.10697363739E+02  0.41074934153E+02  0.43400730074E+02  0.00000000000E+00 0.  1.
         11    1    3    3    0    0 -0.16311312398E+01  0.12717822827E+02 -0.18899402583E+02  0.22838367385E+02  0.51100000000E-03 0.  1.
        -11    1    3    3    0    0 -0.25120840639E+01 -0.45799384929E+01 -0.65992735184E+01  0.84164609055E+01  0.51100000000E-03 0. -1.
         12    1    3    3    0    0 -0.49143541464E+01  0.25594794045E+01 -0.15576258052E+02  0.16532441635E+02  0.00000000000E+00 0. -1.
</event>
<event>
 7    1  0.2598019E-009  0.4778725E+02  0.7816164E-02  0.1312668E+00
        -11   -1    0    0    0    0  0.00000000000E+00  0.00000000000E+00  0.45593999997E+02  0.45594000000E+02  0.51100000000E-03 0.  1.
         11   -1    0    0    0    0 -0.00000000000E+00 -0.00000000000E+00 -0.45593999997E+02  0.45594000000E+02  0.51100000000E-03 0. -1.
    9900012    2    1    2    0    0  0.17259104049E+02  0.80077791611E+01 -0.39007995487E+02  0.47787252177E+02  0.19999913976E+02 0.  0.
        -12    1    1    2    0    0 -0.17259104049E+02 -0.80077791611E+01  0.39007995487E+02  0.43400747823E+02  0.00000000000E+00 0.  1.
         11    1    3    3    0    0  0.62202915914E+01  0.73343436999E+01 -0.31301875770E+01  0.10113490966E+02  0.51100000000E-03 0. -1.
        -11    1    3    3    0    0  0.94836526542E+01 -0.46716005164E+00 -0.28120344764E+02  0.29680156605E+02  0.51100000000E-03 0.  1.
        -12    1    3    3    0    0  0.15551598035E+01  0.11405955129E+01 -0.77574631458E+01  0.79936046059E+01  0.00000000000E+00 0.  1.
</event>
<event>
 7    1  0.2598019E-009  0.4778727E+02  0.7816164E-02  0.1312668E+00
        -11   -1    0    0    0    0  0.00000000000E+00  0.00000000000E+00  0.45593999997E+02  0.45594000000E+02  0.51100000000E-03 0.  1.
         11   -1    0    0    0    0 -0.00000000000E+00 -0.00000000000E+00 -0.45593999997E+02  0.45594000000E+02  0.51100000000E-03 0. -1.
    9900012    2    1    2    0    0 -0.32169603822E+01  0.18218769868E+02 -0.39260045560E+02  0.47787267437E+02  0.19999983552E+02 0.  0.
        -12    1    1    2    0    0  0.32169603822E+01 -0.18218769868E+02  0.39260045560E+02  0.43400732563E+02  0.00000000000E+00 0.  1.
         11    1    3    3    0    0 -0.89933467813E+01  0.11870985379E+02 -0.26317458487E+02  0.30239199752E+02  0.51100000000E-03 0. -1.
        -11    1    3    3    0    0  0.43776764417E+00  0.52033971538E+01 -0.25558392538E+01  0.58137162816E+01  0.51100000000E-03 0.  1.
         12    1    3    3    0    0  0.53386187548E+01  0.11443873354E+01 -0.10386747820E+02  0.11734351403E+02  0.00000000000E+00 0. -1.
</event>
<event>
 7    1  0.2598019E-009  0.4778727E+02  0.7816164E-02  0.1312668E+00
        -11   -1    0    0    0    0  0.00000000000E+00  0.00000000000E+00  0.45593999997E+02  0.45594000000E+02  0.51100000000E-03 0.  1.
         11   -1    0    0    0    0 -0.00000000000E+00 -0.00000000000E+00 -0.45593999997E+02  0.45594000000E+02  0.51100000000E-03 0. -1.
    9900012    2    1    2    0    0 -0.25407010204E+01 -0.11548454788E+02 -0.41758848014E+02  0.47787270085E+02  0.19999995626E+02 0.  0.
        -12    1    1    2    0    0  0.25407010204E+01  0.11548454788E+02  0.41758848014E+02  0.43400729915E+02  0.00000000000E+00 0.  1.
         11    1    3    3    0    0 -0.59625957359E+01 -0.92273846392E+01 -0.36377863815E+02  0.38000607247E+02  0.51100000000E-03 0. -1.
        -11    1    3    3    0    0  0.15716569955E+01  0.21697932163E+01 -0.38567676534E+01  0.46960371918E+01  0.51100000000E-03 0.  1.
         12    1    3    3    0    0  0.18502377200E+01 -0.44908633654E+01 -0.15242165463E+01  0.50906256459E+01  0.00000000000E+00 0. -1.
</event>
<event>
 7    1  0.2598019E-009  0.4778728E+02  0.7816164E-02  0.1312668E+00
        -11   -1    0    0    0    0  0.00000000000E+00  0.00000000000E+00  0.45593999997E+02  0.45594000000E+02  0.51100000000E-03 0.  1.
         11   -1    0    0    0    0 -0.00000000000E+00 -0.00000000000E+00 -0.45593999997E+02  0.45594000000E+02  0.51100000000E-03 0. -1.
    9900012    2    1    2    0    0 -0.33916123268E+02 -0.26465893078E+02 -0.57337568480E+01  0.47787275564E+02  0.20000020608E+02 0.  0.
        -12    1    1    2    0    0  0.33916123268E+02  0.26465893078E+02  0.57337568480E+01  0.43400724436E+02  0.00000000000E+00 0.  1.
         11    1    3    3    0    0 -0.19739070524E+02 -0.85093614760E+01  0.29141876873E+01  0.21691764060E+02  0.51100000000E-03 0. -1.
        -11    1    3    3    0    0 -0.11820991302E+02 -0.15416393718E+02 -0.32728186110E+01  0.19700567823E+02  0.51100000000E-03 0.  1.
         12    1    3    3    0    0 -0.23560614413E+01 -0.25401378845E+01 -0.53751259243E+01  0.63949436815E+01  0.00000000000E+00 0. -1.
</event>
<event>
 7    1  0.2598019E-009  0.4778727E+02  0.7816164E-02  0.1312668E+00
        -11   -1    0    0    0    0  0.00000000000E+00  0.00000000000E+00  0.45593999997E+02  0.45594000000E+02  0.51100000000E-03 0.  1.
         11   -1    0    0    0    0 -0.00000000000E+00 -0.00000000000E+00 -0.45593999997E+02  0.45594000000E+02  0.51100000000E-03 0. -1.
    9900012    2    1    2    0    0  0.11890341415E+02 -0.12589875124E+02 -0.39796211563E+02  0.47787266949E+02  0.19999981327E+02 0.  0.
        -12    1    1    2    0    0 -0.11890341415E+02  0.12589875124E+02  0.39796211563E+02  0.43400733051E+02  0.00000000000E+00 0.  1.
         11    1    3    3    0    0  0.30373034293E+00 -0.25348248950E+01 -0.53668049827E+01  0.59430787773E+01  0.51100000000E-03 0. -1.
        -11    1    3    3    0    0  0.87227974620E+01 -0.41544470473E+01 -0.33915963996E+02  0.35265269599E+02  0.51100000000E-03 0.  1.
        -12    1    3    3    0    0  0.28638136097E+01 -0.59006031821E+01 -0.51344258423E+00  0.65789185731E+01  0.00000000000E+00 0.  1.
</event>
<event>
 7    1  0.2598019E-009  0.4778727E+02  0.7816164E-02  0.1312668E+00
        -11   -1    0    0    0    0  0.00000000000E+00  0.00000000000E+00  0.45593999997E+02  0.45594000000E+02  0.51100000000E-03 0. -1.
         11   -1    0    0    0    0 -0.00000000000E+00 -0.00000000000E+00 -0.45593999997E+02  0.45594000000E+02  0.51100000000E-03 0.  1.
    9900012    2    1    2    0    0  0.40752161616E+02  0.55576658857E+01  0.13856302547E+02  0.47787269053E+02  0.19999990921E+02 0.  0.
        -12    1    1    2    0    0 -0.40752161616E+02 -0.55576658857E+01 -0.13856302547E+02  0.43400730947E+02  0.00000000000E+00 0.  1.
         11    1    3    3    0    0  0.73871539554E+00  0.29351590577E+00 -0.91818146772E-01  0.80017676531E+00  0.51100000000E-03 0. -1.
        -11    1    3    3    0    0  0.40791737846E+02  0.60818723407E+01  0.16324750608E+02  0.44355975137E+02  0.51100000000E-03 0.  1.
        -12    1    3    3    0    0 -0.77829162584E+00 -0.81772236077E+00 -0.23766299142E+01  0.26311171512E+01  0.00000000000E+00 0.  1.
</event>
<event>
 7    1  0.2598019E-009  0.4778724E+02  0.7816164E-02  0.1312668E+00
        -11   -1    0    0    0    0  0.00000000000E+00  0.00000000000E+00  0.45593999997E+02  0.45594000000E+02  0.51100000000E-03 0. -1.
         11   -1    0    0    0    0 -0.00000000000E+00 -0.00000000000E+00 -0.45593999997E+02  0.45594000000E+02  0.51100000000E-03 0.  1.
    9900012    2    1    2    0    0  0.42563740147E+02  0.51617591471E+01 -0.67312886744E+01  0.47787239868E+02  0.19999857856E+02 0.  0.
        -12    1    1    2    0    0 -0.42563740147E+02 -0.51617591471E+01  0.67312886744E+01  0.43400760132E+02  0.00000000000E+00 0.  1.
         11    1    3    3    0    0  0.11383572738E+02  0.68750076086E+01 -0.91157002298E+00  0.13329756865E+02  0.51100000000E-03 0. -1.
        -11    1    3    3    0    0  0.51656222400E+01 -0.56302494649E+01 -0.90117569667E+00  0.76938598935E+01  0.51100000000E-03 0.  1.
        -12    1    3    3    0    0  0.26014545168E+02  0.39170010034E+01 -0.49185429547E+01  0.26763623110E+02  0.00000000000E+00 0.  1.
</event>
<event>
 7    1  0.2598019E-009  0.4778727E+02  0.7816164E-02  0.1312668E+00
        -11   -1    0    0    0    0  0.00000000000E+00  0.00000000000E+00  0.45593999997E+02  0.45594000000E+02  0.51100000000E-03 0.  1.
         11   -1    0    0    0    0 -0.00000000000E+00 -0.00000000000E+00 -0.45593999997E+02  0.45594000000E+02  0.51100000000E-03 0. -1.
    9900012    2    1    2    0    0  0.19599291740E+02  0.24977143921E+02 -0.29591102829E+02  0.47787270493E+02  0.19999997484E+02 0.  0.
        -12    1    1    2    0    0 -0.19599291740E+02 -0.24977143921E+02  0.29591102829E+02  0.43400729507E+02  0.00000000000E+00 0.  1.
         11    1    3    3    0    0  0.72056111654E+01  0.13491890551E+02 -0.18318456608E+02  0.23864571978E+02  0.51100000000E-03 0. -1.
        -11    1    3    3    0    0  0.99160956535E+01  0.16364057864E+01 -0.21637914966E+01  0.10280504404E+02  0.51100000000E-03 0.  1.
         12    1    3    3    0    0  0.24775849206E+01  0.98488475835E+01 -0.91088547242E+01  0.13642194110E+02  0.00000000000E+00 0. -1.
</event>
<event>
 7    1  0.2598019E-009  0.4778727E+02  0.7816164E-02  0.1312668E+00
        -11   -1    0    0    0    0  0.00000000000E+00  0.00000000000E+00  0.45593999997E+02  0.45594000000E+02  0.51100000000E-03 0.  1.
         11   -1    0    0    0    0 -0.00000000000E+00 -0.00000000000E+00 -0.45593999997E+02  0.45594000000E+02  0.51100000000E-03 0. -1.
    9900012    2    1    2    0    0  0.20257084762E+02 -0.13849848935E+02 -0.35797419362E+02  0.47787273836E+02  0.20000012727E+02 0.  0.
        -12    1    1    2    0    0 -0.20257084762E+02  0.13849848935E+02  0.35797419362E+02  0.43400726164E+02  0.00000000000E+00 0.  1.
         11    1    3    3    0    0  0.10562326680E+02 -0.17916594975E+01 -0.26410822971E+02  0.28500953650E+02  0.51100000000E-03 0.  1.
        -11    1    3    3    0    0  0.90600772369E+01 -0.84502367860E+01 -0.45045190908E+01  0.13182647450E+02  0.51100000000E-03 0. -1.
        -12    1    3    3    0    0  0.63468084499E+00 -0.36079526518E+01 -0.48820773002E+01  0.61036727367E+01  0.00000000000E+00 0.  1.
</event>
<event>
 7    1  0.2598019E-009  0.4778727E+02  0.7816164E-02  0.1312668E+00
        -11   -1    0    0    0    0  0.00000000000E+00  0.00000000000E+00  0.45593999997E+02  0.45594000000E+02  0.51100000000E-03 0. -1.
         11   -1    0    0    0    0 -0.00000000000E+00 -0.00000000000E+00 -0.45593999997E+02  0.45594000000E+02  0.51100000000E-03 0.  1.
    9900012    2    1    2    0    0 -0.22777844432E+02  0.32596106641E+02  0.17386401675E+02  0.47787270417E+02  0.19999997140E+02 0.  0.
        -12    1    1    2    0    0  0.22777844432E+02 -0.32596106641E+02 -0.17386401675E+02  0.43400729583E+02  0.00000000000E+00 0.  1.
         11    1    3    3    0    0 -0.38538045908E+01  0.10106598348E+02  0.24843136266E+01  0.11098060842E+02  0.51100000000E-03 0. -1.
        -11    1    3    3    0    0 -0.53364771080E+01  0.48913930407E+01 -0.32996854188E+01  0.79556041837E+01  0.51100000000E-03 0.  1.
        -12    1    3    3    0    0 -0.13587562733E+02  0.17598115252E+02  0.18201773467E+02  0.28733605392E+02  0.00000000000E+00 0.  1.
</event>
<event>
 7    1  0.2598019E-009  0.4778727E+02  0.7816164E-02  0.1312668E+00
        -11   -1    0    0    0    0  0.00000000000E+00  0.00000000000E+00  0.45593999997E+02  0.45594000000E+02  0.51100000000E-03 0. -1.
         11   -1    0    0    0    0 -0.00000000000E+00 -0.00000000000E+00 -0.45593999997E+02  0.45594000000E+02  0.51100000000E-03 0.  1.
    9900012    2    1    2    0    0  0.29641176779E+02  0.24683213595E+02  0.19893790159E+02  0.47787270961E+02  0.19999999621E+02 0.  0.
        -12    1    1    2    0    0 -0.29641176779E+02 -0.24683213595E+02 -0.19893790159E+02  0.43400729039E+02  0.00000000000E+00 0.  1.
         11    1    3    3    0    0  0.78648865520E+01 -0.15703548548E+01  0.78839055214E+01  0.11246262551E+02  0.51100000000E-03 0. -1.
        -11    1    3    3    0    0  0.14057505273E+02  0.20416086270E+02  0.77856717863E+01  0.25981661196E+02  0.51100000000E-03 0.  1.
        -12    1    3    3    0    0  0.77187849546E+01  0.58374821792E+01  0.42242128510E+01  0.10559347214E+02  0.00000000000E+00 0.  1.
</event>
<event>
 7    1  0.2598019E-009  0.4778727E+02  0.7816164E-02  0.1312668E+00
        -11   -1    0    0    0    0  0.00000000000E+00  0.00000000000E+00  0.45593999997E+02  0.45594000000E+02  0.51100000000E-03 0.  1.
         11   -1    0    0    0    0 -0.00000000000E+00 -0.00000000000E+00 -0.45593999997E+02  0.45594000000E+02  0.51100000000E-03 0. -1.
    9900012    2    1    2    0    0  0.65071821137E+01 -0.40736740206E+02 -0.13483260837E+02  0.47787265623E+02  0.19999975283E+02 0.  0.
        -12    1    1    2    0    0 -0.65071821137E+01  0.40736740206E+02  0.13483260837E+02  0.43400734377E+02  0.00000000000E+00 0.  1.
         11    1    3    3    0    0  0.56162199762E+01 -0.46652953338E+01 -0.42785843938E+01  0.84624578019E+01  0.51100000000E-03 0. -1.
        -11    1    3    3    0    0  0.77495993762E+00 -0.30071864604E+02 -0.22892180573E+01  0.30168827012E+02  0.51100000000E-03 0.  1.
        -12    1    3    3    0    0  0.11600219987E+00 -0.59995802675E+01 -0.69154583862E+01  0.91559808097E+01  0.00000000000E+00 0.  1.
</event>
<event>
 7    1  0.2598019E-009  0.4778727E+02  0.7816164E-02  0.1312668E+00
        -11   -1    0    0    0    0  0.00000000000E+00  0.00000000000E+00  0.45593999997E+02  0.45594000000E+02  0.51100000000E-03 0.  1.
         11   -1    0    0    0    0 -0.00000000000E+00 -0.00000000000E+00 -0.45593999997E+02  0.45594000000E+02  0.51100000000E-03 0. -1.
    9900012    2    1    2    0    0  0.30201672083E+02  0.84082316687E+01 -0.30013064415E+02  0.47787269683E+02  0.19999993794E+02 0.  0.
        -12    1    1    2    0    0 -0.30201672083E+02 -0.84082316687E+01  0.30013064415E+02  0.43400730317E+02  0.00000000000E+00 0.  1.
         11    1    3    3    0    0  0.17615162465E+02  0.18977958808E+01 -0.15063093712E+02  0.23254942922E+02  0.51100000000E-03 0. -1.
        -11    1    3    3    0    0  0.11703962007E+02  0.10223148418E+02 -0.10994995924E+02  0.19036423663E+02  0.51100000000E-03 0.  1.
        -12    1    3    3    0    0  0.88254761126E+00 -0.37127126304E+01 -0.39549747789E+01  0.54959030981E+01  0.00000000000E+00 0.  1.
</event>
<event>
 7    1  0.2598019E-009  0.4778724E+02  0.7816164E-02  0.1312668E+00
        -11   -1    0    0    0    0  0.00000000000E+00  0.00000000000E+00  0.45593999997E+02  0.45594000000E+02  0.51100000000E-03 0.  1.
         11   -1    0    0    0    0 -0.00000000000E+00 -0.00000000000E+00 -0.45593999997E+02  0.45594000000E+02  0.51100000000E-03 0. -1.
    9900012    2    1    2    0    0  0.28255933437E+02  0.10446557104E+02 -0.31242561824E+02  0.47787239650E+02  0.19999856857E+02 0.  0.
        -12    1    1    2    0    0 -0.28255933437E+02 -0.10446557104E+02  0.31242561824E+02  0.43400760350E+02  0.00000000000E+00 0.  1.
         11    1    3    3    0    0  0.13514438089E+02  0.11881824718E+01 -0.13851737402E+02  0.19388719498E+02  0.51100000000E-03 0. -1.
        -11    1    3    3    0    0  0.45765504326E+01  0.68839402182E+01 -0.15810329618E+02  0.17840963250E+02  0.51100000000E-03 0.  1.
        -12    1    3    3    0    0  0.10164944915E+02  0.23744344138E+01 -0.15804948035E+01  0.10557556902E+02  0.00000000000E+00 0.  1.
</event>
<event>
 7    1  0.2598019E-009  0.4778727E+02  0.7816164E-02  0.1312668E+00
        -11   -1    0    0    0    0  0.00000000000E+00  0.00000000000E+00  0.45593999997E+02  0.45594000000E+02  0.51100000000E-03 0.  1.
         11   -1    0    0    0    0 -0.00000000000E+00 -0.00000000000E+00 -0.45593999997E+02  0.45594000000E+02  0.51100000000E-03 0. -1.
    9900012    2    1    2    0    0  0.15919523662E+01 -0.42933882289E+02  0.61457851015E+01  0.47787271490E+02  0.20000002030E+02 0.  0.
        -12    1    1    2    0    0 -0.15919523662E+01  0.42933882289E+02 -0.61457851015E+01  0.43400728510E+02  0.00000000000E+00 0.  1.
         11    1    3    3    0    0 -0.65678531503E+00 -0.16108993857E+02  0.19346717097E+01  0.16238041905E+02  0.51100000000E-03 0. -1.
        -11    1    3    3    0    0  0.42002631766E+01 -0.24839024924E+02 -0.14574680270E+01  0.25233778616E+02  0.51100000000E-03 0.  1.
        -12    1    3    3    0    0 -0.19515254954E+01 -0.19858635074E+01  0.56685814188E+01  0.63154509681E+01  0.00000000000E+00 0.  1.
</event>
<event>
 7    1  0.2598019E-009  0.4778727E+02  0.7816164E-02  0.1312668E+00
        -11   -1    0    0    0    0  0.00000000000E+00  0.00000000000E+00  0.45593999997E+02  0.45594000000E+02  0.51100000000E-03 0. -1.
         11   -1    0    0    0    0 -0.00000000000E+00 -0.00000000000E+00 -0.45593999997E+02  0.45594000000E+02  0.51100000000E-03 0.  1.
    9900012    2    1    2    0    0 -0.10281059021E+02  0.27420271120E+02  0.32032050043E+02  0.47787266448E+02  0.19999979042E+02 0.  0.
        -12    1    1    2    0    0  0.10281059021E+02 -0.27420271120E+02 -0.32032050043E+02  0.43400733552E+02  0.00000000000E+00 0.  1.
         11    1    3    3    0    0 -0.49392668959E+01  0.22619714720E+02  0.29893974514E+02  0.37811341738E+02  0.51100000000E-03 0. -1.
        -11    1    3    3    0    0 -0.54598506406E+01  0.64576862751E+00  0.18838148590E+01  0.58116903584E+01  0.51100000000E-03 0.  1.
         12    1    3    3    0    0  0.11805851566E+00  0.41547877726E+01  0.25426067017E+00  0.41642343518E+01  0.00000000000E+00 0. -1.
</event>
<event>
 7    1  0.2598019E-009  0.4778727E+02  0.7816164E-02  0.1312668E+00
        -11   -1    0    0    0    0  0.00000000000E+00  0.00000000000E+00  0.45593999997E+02  0.45594000000E+02  0.51100000000E-03 0. -1.
         11   -1    0    0    0    0 -0.00000000000E+00 -0.00000000000E+00 -0.45593999997E+02  0.45594000000E+02  0.51100000000E-03 0.  1.
    9900012    2    1    2    0    0 -0.16980672951E+02 -0.28177487287E+02 -0.28307405996E+02  0.47787270998E+02  0.19999999790E+02 0.  0.
        -12    1    1    2    0    0  0.16980672951E+02  0.28177487287E+02  0.28307405996E+02  0.43400729002E+02  0.00000000000E+00 0.  1.
         11    1    3    3    0    0 -0.11229972401E+02 -0.13252399182E+02 -0.78307523898E+01  0.19054108414E+02  0.51100000000E-03 0. -1.
        -11    1    3    3    0    0 -0.49061102662E+01 -0.16653335607E+02 -0.20428351177E+02  0.26808973066E+02  0.51100000000E-03 0.  1.
        -12    1    3    3    0    0 -0.84459028333E+00  0.17282475026E+01 -0.48302429389E-01  0.19241895181E+01  0.00000000000E+00 0.  1.
</event>
<event>
 7    1  0.2598019E-009  0.4778727E+02  0.7816164E-02  0.1312668E+00
        -11   -1    0    0    0    0  0.00000000000E+00  0.00000000000E+00  0.45593999997E+02  0.45594000000E+02  0.51100000000E-03 0. -1.
         11   -1    0    0    0    0 -0.00000000000E+00 -0.00000000000E+00 -0.45593999997E+02  0.45594000000E+02  0.51100000000E-03 0.  1.
    9900012    2    1    2    0    0  0.20953840991E+02 -0.36333955694E+02  0.11153619620E+02  0.47787273978E+02  0.20000013375E+02 0.  0.
        -12    1    1    2    0    0 -0.20953840991E+02  0.36333955694E+02 -0.11153619620E+02  0.43400726022E+02  0.00000000000E+00 0.  1.
         11    1    3    3    0    0  0.13905830671E+02 -0.28715729651E+02  0.12661223176E+02  0.34325964351E+02  0.51100000000E-03 0. -1.
        -11    1    3    3    0    0  0.77162773479E+01 -0.81315677532E+01 -0.31251409082E+01  0.11637432543E+02  0.51100000000E-03 0.  1.
         12    1    3    3    0    0 -0.66826702789E+00  0.51334171084E+00  0.16175373517E+01  0.18238770838E+01  0.00000000000E+00 0. -1.
</event>
<event>
 7    1  0.2598019E-009  0.4778727E+02  0.7816164E-02  0.1312668E+00
        -11   -1    0    0    0    0  0.00000000000E+00  0.00000000000E+00  0.45593999997E+02  0.45594000000E+02  0.51100000000E-03 0. -1.
         11   -1    0    0    0    0 -0.00000000000E+00 -0.00000000000E+00 -0.45593999997E+02  0.45594000000E+02  0.51100000000E-03 0.  1.
    9900012    2    1    2    0    0  0.36078272709E+02  0.20282351910E+02  0.13061691406E+02  0.47787270248E+02  0.19999996368E+02 0.  0.
        -12    1    1    2    0    0 -0.36078272709E+02 -0.20282351910E+02 -0.13061691406E+02  0.43400729752E+02  0.00000000000E+00 0.  1.
         11    1    3    3    0    0  0.18917941939E+02  0.91159813338E+01  0.42656358114E+01  0.21428609195E+02  0.51100000000E-03 0. -1.
        -11    1    3    3    0    0  0.54245018759E+01 -0.11960392964E+01  0.74040704623E+01  0.92561325764E+01  0.51100000000E-03 0.  1.
        -12    1    3    3    0    0  0.11735828894E+02  0.12362409873E+02  0.13919851318E+01  0.17102528476E+02  0.00000000000E+00 0.  1.
</event>
<event>
 7    1  0.2598019E-009  0.4778727E+02  0.7816164E-02  0.1312668E+00
        -11   -1    0    0    0    0  0.00000000000E+00  0.00000000000E+00  0.45593999997E+02  0.45594000000E+02  0.51100000000E-03 0.  1.
         11   -1    0    0    0    0 -0.00000000000E+00 -0.00000000000E+00 -0.45593999997E+02  0.45594000000E+02  0.51100000000E-03 0. -1.
    9900012    2    1    2    0    0  0.19515108338E+02  0.27475569125E+02 -0.27347333487E+02  0.47787274188E+02  0.20000014334E+02 0.  0.
        -12    1    1    2    0    0 -0.19515108338E+02 -0.27475569125E+02  0.27347333487E+02  0.43400725812E+02  0.00000000000E+00 0.  1.
         11    1    3    3    0    0  0.74215074464E+01  0.49824498485E+01 -0.33613267990E+01  0.95499789204E+01  0.51100000000E-03 0. -1.
        -11    1    3    3    0    0 -0.27672663283E+01  0.47677243747E+00 -0.65513554587E+00  0.28834489303E+01  0.51100000000E-03 0.  1.
        -12    1    3    3    0    0  0.14860867220E+02  0.22016346839E+02 -0.23330871142E+02  0.35353846338E+02  0.00000000000E+00 0.  1.
</event>
<event>
 7    1  0.2598019E-009  0.4778727E+02  0.7816164E-02  0.1312668E+00
        -11   -1    0    0    0    0  0.00000000000E+00  0.00000000000E+00  0.45593999997E+02  0.45594000000E+02  0.51100000000E-03 0.  1.
         11   -1    0    0    0    0 -0.00000000000E+00 -0.00000000000E+00 -0.45593999997E+02  0.45594000000E+02  0.51100000000E-03 0. -1.
    9900012    2    1    2    0    0  0.15806324259E+02  0.40412982471E+02  0.75787926375E+00  0.47787269364E+02  0.19999992337E+02 0.  0.
        -12    1    1    2    0    0 -0.15806324259E+02 -0.40412982471E+02 -0.75787926375E+00  0.43400730636E+02  0.00000000000E+00 0.  1.
         11    1    3    3    0    0  0.12978713171E+02  0.39928309921E+02  0.41551248043E+01  0.42189832794E+02  0.51100000000E-03 0. -1.
        -11    1    3    3    0    0  0.28716271823E+01 -0.20898954830E+00 -0.91712391644E+00  0.30217603883E+01  0.51100000000E-03 0.  1.
         12    1    3    3    0    0 -0.44016095219E-01  0.69366209820E+00 -0.24801216241E+01  0.25756761818E+01  0.00000000000E+00 0. -1.
</event>
<event>
 7    1  0.2598019E-009  0.4778727E+02  0.7816164E-02  0.1312668E+00
        -11   -1    0    0    0    0  0.00000000000E+00  0.00000000000E+00  0.45593999997E+02  0.45594000000E+02  0.51100000000E-03 0. -1.
         11   -1    0    0    0    0 -0.00000000000E+00 -0.00000000000E+00 -0.45593999997E+02  0.45594000000E+02  0.51100000000E-03 0.  1.
    9900012    2    1    2    0    0 -0.31510276404E+01 -0.49253083766E+00  0.43283391039E+02  0.47787268420E+02  0.19999988033E+02 0.  0.
        -12    1    1    2    0    0  0.31510276404E+01  0.49253083766E+00 -0.43283391039E+02  0.43400731580E+02  0.00000000000E+00 0.  1.
         11    1    3    3    0    0  0.68240782818E+01 -0.37969859474E+00  0.12262409909E+02  0.14038479706E+02  0.51100000000E-03 0. -1.
        -11    1    3    3    0    0 -0.20793331404E+01 -0.32183790174E+01  0.45348600220E+01  0.59368801141E+01  0.51100000000E-03 0.  1.
         12    1    3    3    0    0 -0.78957727818E+01  0.31055467745E+01  0.26486121108E+02  0.27811908599E+02  0.00000000000E+00 0. -1.
</event>
<event>
 7    1  0.2598019E-009  0.4778725E+02  0.7816164E-02  0.1312668E+00
        -11   -1    0    0    0    0  0.00000000000E+00  0.00000000000E+00  0.45593999997E+02  0.45594000000E+02  0.51100000000E-03 0.  1.
         11   -1    0    0    0    0 -0.00000000000E+00 -0.00000000000E+00 -0.45593999997E+02  0.45594000000E+02  0.51100000000E-03 0. -1.
    9900012    2    1    2    0    0  0.39747372832E+02 -0.55852579381E+01 -0.16509892852E+02  0.47787247526E+02  0.19999892772E+02 0.  0.
        -12    1    1    2    0    0 -0.39747372832E+02  0.55852579381E+01  0.16509892852E+02  0.43400752474E+02  0.00000000000E+00 0.  1.
         11    1    3    3    0    0  0.63921368351E+01  0.34466113433E+00 -0.75385065449E+01  0.98897566099E+01  0.51100000000E-03 0. -1.
        -11    1    3    3    0    0  0.76507967933E+01 -0.77125063262E+01 -0.91908773477E+00  0.10902392762E+02  0.51100000000E-03 0.  1.
        -12    1    3    3    0    0  0.25704439204E+02  0.17825872537E+01 -0.80522985721E+01  0.26995098155E+02  0.00000000000E+00 0.  1.
</event>
<event>
 7    1  0.2598019E-009  0.4778726E+02  0.7816164E-02  0.1312668E+00
        -11   -1    0    0    0    0  0.00000000000E+00  0.00000000000E+00  0.45593999997E+02  0.45594000000E+02  0.51100000000E-03 0. -1.
         11   -1    0    0    0    0 -0.00000000000E+00 -0.00000000000E+00 -0.45593999997E+02  0.45594000000E+02  0.51100000000E-03 0.  1.
    9900012    2    1    2    0    0 -0.52258938928E+01  0.27976680386E+02  0.32766133386E+02  0.47787261418E+02  0.19999956107E+02 0.  0.
        -12    1    1    2    0    0  0.52258938928E+01 -0.27976680386E+02 -0.32766133386E+02  0.43400738582E+02  0.00000000000E+00 0.  1.
         11    1    3    3    0    0 -0.47374927054E+01  0.99033922902E+01  0.19078140827E+01  0.11142745210E+02  0.51100000000E-03 0. -1.
        -11    1    3    3    0    0  0.55782475656E+00  0.73310674913E+00 -0.30163242131E+00  0.96932777911E+00  0.51100000000E-03 0.  1.
         12    1    3    3    0    0 -0.10462259439E+01  0.17340181347E+02  0.31159951725E+02  0.35675188428E+02  0.00000000000E+00 0. -1.
</event>
<event>
 7    1  0.2598019E-009  0.4778727E+02  0.7816164E-02  0.1312668E+00
        -11   -1    0    0    0    0  0.00000000000E+00  0.00000000000E+00  0.45593999997E+02  0.45594000000E+02  0.51100000000E-03 0. -1.
         11   -1    0    0    0    0 -0.00000000000E+00 -0.00000000000E+00 -0.45593999997E+02  0.45594000000E+02  0.51100000000E-03 0.  1.
    9900012    2    1    2    0    0 -0.37289823323E+02  0.17697299099E+02  0.13412619421E+02  0.47787266382E+02  0.19999978742E+02 0.  0.
        -12    1    1    2    0    0  0.37289823323E+02 -0.17697299099E+02 -0.13412619421E+02  0.43400733618E+02  0.00000000000E+00 0.  1.
         11    1    3    3    0    0 -0.10438320356E+02  0.11979748421E+02  0.27381804780E+01  0.16123601852E+02  0.51100000000E-03 0. -1.
        -11    1    3    3    0    0 -0.17347910350E+02 -0.18182778128E+01  0.43147212755E+01  0.17968665718E+02  0.51100000000E-03 0.  1.
         12    1    3    3    0    0 -0.95035926171E+01  0.75358284906E+01  0.63597176672E+01  0.13694998813E+02  0.00000000000E+00 0. -1.
</event>
<event>
 7    1  0.2598019E-009  0.4778721E+02  0.7816164E-02  0.1312668E+00
        -11   -1    0    0    0    0  0.00000000000E+00  0.00000000000E+00  0.45593999997E+02  0.45594000000E+02  0.51100000000E-03 0.  1.
         11   -1    0    0    0    0 -0.00000000000E+00 -0.00000000000E+00 -0.45593999997E+02  0.45594000000E+02  0.51100000000E-03 0. -1.
    9900012    2    1    2    0    0 -0.32273727182E+02 -0.28195295195E+02  0.68600635956E+01  0.47787209571E+02  0.19999719714E+02 0.  0.
        -12    1    1    2    0    0  0.32273727182E+02  0.28195295195E+02 -0.68600635956E+01  0.43400790429E+02  0.00000000000E+00 0.  1.
         11    1    3    3    0    0 -0.24912487303E+02 -0.23561200085E+02  0.24579966970E+01  0.34377375134E+02  0.51100000000E-03 0. -1.
        -11    1    3    3    0    0 -0.53834072614E+01  0.12959409616E+01  0.45349419228E+01  0.71572505351E+01  0.51100000000E-03 0.  1.
         12    1    3    3    0    0 -0.19778326176E+01 -0.59300360721E+01 -0.13287502420E+00  0.62525839020E+01  0.00000000000E+00 0. -1.
</event>
<event>
 7    1  0.2598019E-009  0.4778727E+02  0.7816164E-02  0.1312668E+00
        -11   -1    0    0    0    0  0.00000000000E+00  0.00000000000E+00  0.45593999997E+02  0.45594000000E+02  0.51100000000E-03 0. -1.
         11   -1    0    0    0    0 -0.00000000000E+00 -0.00000000000E+00 -0.45593999997E+02  0.45594000000E+02  0.51100000000E-03 0.  1.
    9900012    2    1    2    0    0  0.41638646719E+02  0.92494422266E+01 -0.80183603626E+01  0.47787272068E+02  0.20000004668E+02 0.  0.
        -12    1    1    2    0    0 -0.41638646719E+02 -0.92494422266E+01  0.80183603626E+01  0.43400727932E+02  0.00000000000E+00 0.  1.
         11    1    3    3    0    0  0.63647993035E+01  0.51043267168E+01  0.18598198791E+01  0.83680195775E+01  0.51100000000E-03 0. -1.
        -11    1    3    3    0    0 -0.12659445406E+01 -0.18030144226E+00  0.13602552846E+00  0.12859344445E+01  0.51100000000E-03 0.  1.
        -12    1    3    3    0    0  0.36539791956E+02  0.43254169521E+01 -0.10014205770E+02  0.38133318046E+02  0.00000000000E+00 0.  1.
</event>
<event>
 7    1  0.2598019E-009  0.4778727E+02  0.7816164E-02  0.1312668E+00
        -11   -1    0    0    0    0  0.00000000000E+00  0.00000000000E+00  0.45593999997E+02  0.45594000000E+02  0.51100000000E-03 0. -1.
         11   -1    0    0    0    0 -0.00000000000E+00 -0.00000000000E+00 -0.45593999997E+02  0.45594000000E+02  0.51100000000E-03 0.  1.
    9900012    2    1    2    0    0 -0.33515027132E+02 -0.21857513390E+01  0.27487969520E+02  0.47787273958E+02  0.20000013286E+02 0.  0.
        -12    1    1    2    0    0  0.33515027132E+02  0.21857513390E+01 -0.27487969520E+02  0.43400726042E+02  0.00000000000E+00 0.  1.
         11    1    3    3    0    0 -0.56019920247E+01 -0.29337123177E+01  0.13852108026E+02  0.15227274202E+02  0.51100000000E-03 0. -1.
        -11    1    3    3    0    0 -0.41072441998E+01 -0.33777638081E+01  0.34571624913E+01  0.63427687970E+01  0.51100000000E-03 0.  1.
         12    1    3    3    0    0 -0.23805790908E+02  0.41257247868E+01  0.10178699003E+02  0.26217230959E+02  0.00000000000E+00 0. -1.
</event>
<event>
 7    1  0.2598019E-009  0.4778727E+02  0.7816164E-02  0.1312668E+00
        -11   -1    0    0    0    0  0.00000000000E+00  0.00000000000E+00  0.45593999997E+02  0.45594000000E+02  0.51100000000E-03 0.  1.
         11   -1    0    0    0    0 -0.00000000000E+00 -0.00000000000E+00 -0.45593999997E+02  0.45594000000E+02  0.51100000000E-03 0. -1.
    9900012    2    1    2    0    0 -0.64028818559E+01  0.18396677421E+02 -0.38783868788E+02  0.47787272882E+02  0.20000008380E+02 0.  0.
        -12    1    1    2    0    0  0.64028818559E+01 -0.18396677421E+02  0.38783868788E+02  0.43400727118E+02  0.00000000000E+00 0.  1.
         11    1    3    3    0    0 -0.52474541382E+01  0.14105435187E+02 -0.14461750154E+02  0.20872021812E+02  0.51100000000E-03 0. -1.
        -11    1    3    3    0    0  0.45252427043E+01  0.23244318537E+01 -0.14843160579E+02  0.15690768662E+02  0.51100000000E-03 0.  1.
         12    1    3    3    0    0 -0.56806704220E+01  0.19668103796E+01 -0.94789580553E+01  0.11224482408E+02  0.00000000000E+00 0. -1.
</event>
<event>
 7    1  0.2598019E-009  0.4778726E+02  0.7816164E-02  0.1312668E+00
        -11   -1    0    0    0    0  0.00000000000E+00  0.00000000000E+00  0.45593999997E+02  0.45594000000E+02  0.51100000000E-03 0. -1.
         11   -1    0    0    0    0 -0.00000000000E+00 -0.00000000000E+00 -0.45593999997E+02  0.45594000000E+02  0.51100000000E-03 0.  1.
    9900012    2    1    2    0    0 -0.13984860720E+02  0.32590201460E+02  0.25018522711E+02  0.47787262228E+02  0.19999959800E+02 0.  0.
        -12    1    1    2    0    0  0.13984860720E+02 -0.32590201460E+02 -0.25018522711E+02  0.43400737772E+02  0.00000000000E+00 0.  1.
         11    1    3    3    0    0 -0.25956243263E+01 -0.11078672841E+01  0.67578485332E+00  0.29019512387E+01  0.51100000000E-03 0. -1.
        -11    1    3    3    0    0 -0.70282904186E+01  0.30762778251E+02  0.23947887242E+02  0.39613718527E+02  0.51100000000E-03 0.  1.
        -12    1    3    3    0    0 -0.43609459751E+01  0.29352904936E+01  0.39485061545E+00  0.52715924622E+01  0.00000000000E+00 0.  1.
</event>
<event>
 7    1  0.2598019E-009  0.4778727E+02  0.7816164E-02  0.1312668E+00
        -11   -1    0    0    0    0  0.00000000000E+00  0.00000000000E+00  0.45593999997E+02  0.45594000000E+02  0.51100000000E-03 0. -1.
         11   -1    0    0    0    0 -0.00000000000E+00 -0.00000000000E+00 -0.45593999997E+02  0.45594000000E+02  0.51100000000E-03 0.  1.
    9900012    2    1    2    0    0 -0.30056791813E+02 -0.30022477740E+02 -0.88805074083E+01  0.47787270565E+02  0.19999997812E+02 0.  0.
        -12    1    1    2    0    0  0.30056791813E+02  0.30022477740E+02  0.88805074083E+01  0.43400729435E+02  0.00000000000E+00 0.  1.
         11    1    3    3    0    0 -0.11961788081E+02 -0.95575695066E+01  0.36386187327E+01  0.15737568285E+02  0.51100000000E-03 0. -1.
        -11    1    3    3    0    0 -0.73420006820E+01 -0.13341346507E+01 -0.43193149510E+01  0.86221442338E+01  0.51100000000E-03 0.  1.
         12    1    3    3    0    0 -0.10753003049E+02 -0.19130773583E+02 -0.81998111900E+01  0.23427558046E+02  0.00000000000E+00 0. -1.
</event>
<event>
 7    1  0.2598019E-009  0.4778727E+02  0.7816164E-02  0.1312668E+00
        -11   -1    0    0    0    0  0.00000000000E+00  0.00000000000E+00  0.45593999997E+02  0.45594000000E+02  0.51100000000E-03 0.  1.
         11   -1    0    0    0    0 -0.00000000000E+00 -0.00000000000E+00 -0.45593999997E+02  0.45594000000E+02  0.51100000000E-03 0. -1.
    9900012    2    1    2    0    0  0.12209090755E+02  0.28729934632E+02 -0.30152152922E+02  0.47787269974E+02  0.19999995117E+02 0.  0.
        -12    1    1    2    0    0 -0.12209090755E+02 -0.28729934632E+02  0.30152152922E+02  0.43400730026E+02  0.00000000000E+00 0.  1.
         11    1    3    3    0    0  0.72402731712E+01  0.25648599941E+02 -0.23650492462E+02  0.35631699770E+02  0.51100000000E-03 0. -1.
        -11    1    3    3    0    0 -0.16234056656E+01 -0.15254042481E+01 -0.14679595876E+01  0.26678099046E+01  0.51100000000E-03 0.  1.
         12    1    3    3    0    0  0.65922232496E+01  0.46067389390E+01 -0.50337008718E+01  0.94877602990E+01  0.00000000000E+00 0. -1.
</event>
<event>
 7    1  0.2598019E-009  0.4778727E+02  0.7816164E-02  0.1312668E+00
        -11   -1    0    0    0    0  0.00000000000E+00  0.00000000000E+00  0.45593999997E+02  0.45594000000E+02  0.51100000000E-03 0.  1.
         11   -1    0    0    0    0 -0.00000000000E+00 -0.00000000000E+00 -0.45593999997E+02  0.45594000000E+02  0.51100000000E-03 0. -1.
    9900012    2    1    2    0    0  0.12077828972E+02 -0.41041304744E+02  0.73048293555E+01  0.47787272130E+02  0.20000004948E+02 0.  0.
        -12    1    1    2    0    0 -0.12077828972E+02  0.41041304744E+02 -0.73048293555E+01  0.43400727870E+02  0.00000000000E+00 0.  1.
         11    1    3    3    0    0  0.90282378991E+01 -0.21188274308E+02  0.20608116774E+00  0.23032466595E+02  0.51100000000E-03 0. -1.
        -11    1    3    3    0    0 -0.27607259984E+01 -0.97008535277E+00 -0.14046735709E+01  0.32458868945E+01  0.51100000000E-03 0.  1.
        -12    1    3    3    0    0  0.58103170712E+01 -0.18882945083E+02  0.85034217587E+01  0.21508918640E+02  0.00000000000E+00 0.  1.
</event>
<event>
 7    1  0.2598019E-009  0.4778727E+02  0.7816164E-02  0.1312668E+00
        -11   -1    0    0    0    0  0.00000000000E+00  0.00000000000E+00  0.45593999997E+02  0.45594000000E+02  0.51100000000E-03 0. -1.
         11   -1    0    0    0    0 -0.00000000000E+00 -0.00000000000E+00 -0.45593999997E+02  0.45594000000E+02  0.51100000000E-03 0.  1.
    9900012    2    1    2    0    0 -0.25710225993E+01 -0.18734631359E+02  0.39064398067E+02  0.47787265378E+02  0.19999974165E+02 0.  0.
        -12    1    1    2    0    0  0.25710225993E+01  0.18734631359E+02 -0.39064398067E+02  0.43400734622E+02  0.00000000000E+00 0.  1.
         11    1    3    3    0    0 -0.10847552801E+02 -0.92721238569E+01  0.18068949466E+02  0.23024522094E+02  0.51100000000E-03 0. -1.
        -11    1    3    3    0    0  0.36717939454E+01 -0.28406043682E+01  0.48436229390E+01  0.67090824552E+01  0.51100000000E-03 0.  1.
         12    1    3    3    0    0  0.46047362564E+01 -0.66219031340E+01  0.16151825662E+02  0.18053660829E+02  0.00000000000E+00 0. -1.
</event>
<event>
 7    1  0.2598019E-009  0.4778728E+02  0.7816164E-02  0.1312668E+00
        -11   -1    0    0    0    0  0.00000000000E+00  0.00000000000E+00  0.45593999997E+02  0.45594000000E+02  0.51100000000E-03 0.  1.
         11   -1    0    0    0    0 -0.00000000000E+00 -0.00000000000E+00 -0.45593999997E+02  0.45594000000E+02  0.51100000000E-03 0. -1.
    9900012    2    1    2    0    0 -0.24397562511E+02  0.72086953908E+01 -0.35162715271E+02  0.47787275456E+02  0.20000020113E+02 0.  0.
        -12    1    1    2    0    0  0.24397562511E+02 -0.72086953908E+01  0.35162715271E+02  0.43400724544E+02  0.00000000000E+00 0.  1.
         11    1    3    3    0    0 -0.88379492738E+01  0.11633579962E+02 -0.15901419170E+02  0.21594088589E+02  0.51100000000E-03 0. -1.
        -11    1    3    3    0    0 -0.28751201291E+01 -0.17626818856E+01 -0.52823144467E+00  0.34135600049E+01  0.51100000000E-03 0.  1.
         12    1    3    3    0    0 -0.12684493108E+02 -0.26622026856E+01 -0.18733064657E+02  0.22779626862E+02  0.00000000000E+00 0. -1.
</event>
<event>
 7    1  0.2598019E-009  0.4778729E+02  0.7816164E-02  0.1312668E+00
        -11   -1    0    0    0    0  0.00000000000E+00  0.00000000000E+00  0.45593999997E+02  0.45594000000E+02  0.51100000000E-03 0.  1.
         11   -1    0    0    0    0 -0.00000000000E+00 -0.00000000000E+00 -0.45593999997E+02  0.45594000000E+02  0.51100000000E-03 0. -1.
    9900012    2    1    2    0    0  0.95462749239E+01 -0.25669410435E+02 -0.33668554846E+02  0.47787290531E+02  0.20000088847E+02 0.  0.
        -12    1    1    2    0    0 -0.95462749239E+01  0.25669410435E+02  0.33668554846E+02  0.43400709469E+02  0.00000000000E+00 0.  1.
         11    1    3    3    0    0  0.80077912758E+01 -0.56251844657E+01 -0.21289455884E+02  0.23430927286E+02  0.51100000000E-03 0. -1.
        -11    1    3    3    0    0  0.31626183842E+00 -0.11054160623E+02 -0.10157329225E+02  0.15015519501E+02  0.51100000000E-03 0.  1.
         12    1    3    3    0    0  0.12222218097E+01 -0.89900653468E+01 -0.22217697363E+01  0.93408437441E+01  0.00000000000E+00 0. -1.
</event>
<event>
 7    1  0.2598019E-009  0.4778727E+02  0.7816164E-02  0.1312668E+00
        -11   -1    0    0    0    0  0.00000000000E+00  0.00000000000E+00  0.45593999997E+02  0.45594000000E+02  0.51100000000E-03 0.  1.
         11   -1    0    0    0    0 -0.00000000000E+00 -0.00000000000E+00 -0.45593999997E+02  0.45594000000E+02  0.51100000000E-03 0. -1.
    9900012    2    1    2    0    0  0.33860784555E+02 -0.45293772726E+01 -0.26768549076E+02  0.47787271794E+02  0.20000003418E+02 0.  0.
        -12    1    1    2    0    0 -0.33860784555E+02  0.45293772726E+01  0.26768549076E+02  0.43400728206E+02  0.00000000000E+00 0.  1.
         11    1    3    3    0    0  0.17911093366E+02  0.20130926574E+01 -0.10510121574E+02  0.20864382651E+02  0.51100000000E-03 0.  1.
        -11    1    3    3    0    0  0.15489276169E+02 -0.29050447953E+01 -0.17001326898E+02  0.23181934304E+02  0.51100000000E-03 0. -1.
        -12    1    3    3    0    0  0.46041501997E+00 -0.36374251348E+01  0.74289939639E+00  0.37409548400E+01  0.00000000000E+00 0.  1.
</event>
<event>
 7    1  0.2598019E-009  0.4778727E+02  0.7816164E-02  0.1312668E+00
        -11   -1    0    0    0    0  0.00000000000E+00  0.00000000000E+00  0.45593999997E+02  0.45594000000E+02  0.51100000000E-03 0.  1.
         11   -1    0    0    0    0 -0.00000000000E+00 -0.00000000000E+00 -0.45593999997E+02  0.45594000000E+02  0.51100000000E-03 0. -1.
    9900012    2    1    2    0    0 -0.31397364878E+02  0.10152724762E+01 -0.29946585325E+02  0.47787271065E+02  0.20000000096E+02 0.  0.
        -12    1    1    2    0    0  0.31397364878E+02 -0.10152724762E+01  0.29946585325E+02  0.43400728935E+02  0.00000000000E+00 0.  1.
         11    1    3    3    0    0 -0.19389206547E+02 -0.95229523604E+00 -0.24075734614E+02  0.30927159492E+02  0.51100000000E-03 0. -1.
        -11    1    3    3    0    0 -0.11868895666E+02 -0.53256408727E-02 -0.13747790556E+01  0.11948252191E+02  0.51100000000E-03 0.  1.
        -12    1    3    3    0    0 -0.13926266390E+00  0.19728933531E+01 -0.44960716550E+01  0.49118593831E+01  0.00000000000E+00 0.  1.
</event>
<event>
 7    1  0.2598019E-009  0.4778728E+02  0.7816164E-02  0.1312668E+00
        -11   -1    0    0    0    0  0.00000000000E+00  0.00000000000E+00  0.45593999997E+02  0.45594000000E+02  0.51100000000E-03 0.  1.
         11   -1    0    0    0    0 -0.00000000000E+00 -0.00000000000E+00 -0.45593999997E+02  0.45594000000E+02  0.51100000000E-03 0. -1.
    9900012    2    1    2    0    0  0.16374180780E+02 -0.26870211173E+02 -0.29891480442E+02  0.47787278258E+02  0.20000032890E+02 0.  0.
        -12    1    1    2    0    0 -0.16374180780E+02  0.26870211173E+02  0.29891480442E+02  0.43400721742E+02  0.00000000000E+00 0.  1.
         11    1    3    3    0    0 -0.18332410589E+01 -0.93830864943E+01 -0.82814672364E+01  0.12648548723E+02  0.51100000000E-03 0. -1.
        -11    1    3    3    0    0  0.15238042941E+02 -0.87488221612E+01 -0.18205462378E+02  0.25301752954E+02  0.51100000000E-03 0.  1.
         12    1    3    3    0    0  0.29693788980E+01 -0.87383025174E+01 -0.34045508278E+01  0.98369765815E+01  0.00000000000E+00 0. -1.
</event>
<event>
 7    1  0.2598019E-009  0.4778727E+02  0.7816164E-02  0.1312668E+00
        -11   -1    0    0    0    0  0.00000000000E+00  0.00000000000E+00  0.45593999997E+02  0.45594000000E+02  0.51100000000E-03 0.  1.
         11   -1    0    0    0    0 -0.00000000000E+00 -0.00000000000E+00 -0.45593999997E+02  0.45594000000E+02  0.51100000000E-03 0. -1.
    9900012    2    1    2    0    0 -0.27530538589E+02  0.10860767368E+01 -0.33533757804E+02  0.47787273852E+02  0.20000012801E+02 0.  0.
        -12    1    1    2    0    0  0.27530538589E+02 -0.10860767368E+01  0.33533757804E+02  0.43400726148E+02  0.00000000000E+00 0.  1.
         11    1    3    3    0    0 -0.50600392061E+01  0.37404134264E+01 -0.52254998690E+01  0.81792749379E+01  0.51100000000E-03 0. -1.
        -11    1    3    3    0    0 -0.22962146567E+02 -0.18628953016E+01 -0.29910799099E+02  0.37754290575E+02  0.51100000000E-03 0.  1.
        -12    1    3    3    0    0  0.49164718352E+00 -0.79144138796E+00  0.16025411637E+01  0.18537083387E+01  0.00000000000E+00 0.  1.
</event>
<event>
 7    1  0.2598019E-009  0.4778726E+02  0.7816164E-02  0.1312668E+00
        -11   -1    0    0    0    0  0.00000000000E+00  0.00000000000E+00  0.45593999997E+02  0.45594000000E+02  0.51100000000E-03 0. -1.
         11   -1    0    0    0    0 -0.00000000000E+00 -0.00000000000E+00 -0.45593999997E+02  0.45594000000E+02  0.51100000000E-03 0.  1.
    9900012    2    1    2    0    0 -0.13825594373E+02  0.17024794684E+02  0.37451750278E+02  0.47787259307E+02  0.19999946484E+02 0.  0.
        -12    1    1    2    0    0  0.13825594373E+02 -0.17024794684E+02 -0.37451750278E+02  0.43400740693E+02  0.00000000000E+00 0.  1.
         11    1    3    3    0    0 -0.18166471306E+01  0.16991490227E+01  0.64660932341E+01  0.69280355204E+01  0.51100000000E-03 0. -1.
        -11    1    3    3    0    0 -0.39389336646E+01  0.42079496334E+01  0.25372380872E+02  0.26018834523E+02  0.51100000000E-03 0.  1.
        -12    1    3    3    0    0 -0.80700135775E+01  0.11117696028E+02  0.56132761718E+01  0.14840389264E+02  0.00000000000E+00 0.  1.
</event>
<event>
 7    1  0.2598019E-009  0.4778727E+02  0.7816164E-02  0.1312668E+00
        -11   -1    0    0    0    0  0.00000000000E+00  0.00000000000E+00  0.45593999997E+02  0.45594000000E+02  0.51100000000E-03 0. -1.
         11   -1    0    0    0    0 -0.00000000000E+00 -0.00000000000E+00 -0.45593999997E+02  0.45594000000E+02  0.51100000000E-03 0.  1.
    9900012    2    1    2    0    0  0.43248395361E+02  0.11951851230E+01 -0.34309317620E+01  0.47787268883E+02  0.19999990143E+02 0.  0.
        -12    1    1    2    0    0 -0.43248395361E+02 -0.11951851230E+01  0.34309317620E+01  0.43400731117E+02  0.00000000000E+00 0.  1.
         11    1    3    3    0    0  0.11497567374E+02  0.36871132742E+01  0.41025688024E+01  0.12752251991E+02  0.51100000000E-03 0. -1.
        -11    1    3    3    0    0  0.23320645014E+02  0.26637556932E+01 -0.88099465688E+01  0.25071163457E+02  0.51100000000E-03 0.  1.
        -12    1    3    3    0    0  0.84301829728E+01 -0.51556838444E+01  0.12764460044E+01  0.99638534343E+01  0.00000000000E+00 0.  1.
</event>
<event>
 7    1  0.2598019E-009  0.4778727E+02  0.7816164E-02  0.1312668E+00
        -11   -1    0    0    0    0  0.00000000000E+00  0.00000000000E+00  0.45593999997E+02  0.45594000000E+02  0.51100000000E-03 0. -1.
         11   -1    0    0    0    0 -0.00000000000E+00 -0.00000000000E+00 -0.45593999997E+02  0.45594000000E+02  0.51100000000E-03 0.  1.
    9900012    2    1    2    0    0  0.36552550549E+02  0.10873829839E+02 -0.20719408659E+02  0.47787273943E+02  0.20000013218E+02 0.  0.
        -12    1    1    2    0    0 -0.36552550549E+02 -0.10873829839E+02  0.20719408659E+02  0.43400726057E+02  0.00000000000E+00 0.  1.
         11    1    3    3    0    0  0.36890613077E+02  0.12471647498E+02 -0.19994582504E+02  0.43774908958E+02  0.51100000000E-03 0. -1.
        -11    1    3    3    0    0 -0.12804476931E+01 -0.14825722464E+01  0.88014775594E+00  0.21476096233E+01  0.51100000000E-03 0.  1.
         12    1    3    3    0    0  0.94238516551E+00 -0.11524541225E+00 -0.16049739113E+01  0.18647553623E+01  0.00000000000E+00 0. -1.
</event>
<event>
 7    1  0.2598019E-009  0.4778727E+02  0.7816164E-02  0.1312668E+00
        -11   -1    0    0    0    0  0.00000000000E+00  0.00000000000E+00  0.45593999997E+02  0.45594000000E+02  0.51100000000E-03 0.  1.
         11   -1    0    0    0    0 -0.00000000000E+00 -0.00000000000E+00 -0.45593999997E+02  0.45594000000E+02  0.51100000000E-03 0. -1.
    9900012    2    1    2    0    0  0.11206978230E+02 -0.38905788264E+02 -0.15632227492E+02  0.47787271229E+02  0.20000000843E+02 0.  0.
        -12    1    1    2    0    0 -0.11206978230E+02  0.38905788264E+02  0.15632227492E+02  0.43400728771E+02  0.00000000000E+00 0.  1.
         11    1    3    3    0    0  0.14081226339E+02 -0.29791331652E+02 -0.12225307238E+02  0.35146301571E+02  0.51100000000E-03 0. -1.
        -11    1    3    3    0    0 -0.12796148642E+01  0.98445191595E+00  0.50877322690E+00  0.16927522657E+01  0.51100000000E-03 0.  1.
         12    1    3    3    0    0 -0.15946332448E+01 -0.10098908528E+02 -0.39156934806E+01  0.10948217392E+02  0.00000000000E+00 0. -1.
</event>
<event>
 7    1  0.2598019E-009  0.4778727E+02  0.7816164E-02  0.1312668E+00
        -11   -1    0    0    0    0  0.00000000000E+00  0.00000000000E+00  0.45593999997E+02  0.45594000000E+02  0.51100000000E-03 0.  1.
         11   -1    0    0    0    0 -0.00000000000E+00 -0.00000000000E+00 -0.45593999997E+02  0.45594000000E+02  0.51100000000E-03 0. -1.
    9900012    2    1    2    0    0  0.28555400307E+02 -0.24258077839E+02 -0.21903381972E+02  0.47787269949E+02  0.19999995006E+02 0.  0.
        -12    1    1    2    0    0 -0.28555400307E+02  0.24258077839E+02  0.21903381972E+02  0.43400730051E+02  0.00000000000E+00 0.  1.
         11    1    3    3    0    0  0.11475314483E+02 -0.12594504761E+02 -0.17233556283E+02  0.24234270261E+02  0.51100000000E-03 0. -1.
        -11    1    3    3    0    0  0.16447638733E+02 -0.10806485736E+02 -0.97116185336E+00  0.19704012522E+02  0.51100000000E-03 0.  1.
        -12    1    3    3    0    0  0.63244709052E+00 -0.85708734226E+00 -0.36986638362E+01  0.38489871665E+01  0.00000000000E+00 0.  1.
</event>
<event>
 7    1  0.2598019E-009  0.4778727E+02  0.7816164E-02  0.1312668E+00
        -11   -1    0    0    0    0  0.00000000000E+00  0.00000000000E+00  0.45593999997E+02  0.45594000000E+02  0.51100000000E-03 0.  1.
         11   -1    0    0    0    0 -0.00000000000E+00 -0.00000000000E+00 -0.45593999997E+02  0.45594000000E+02  0.51100000000E-03 0. -1.
    9900012    2    1    2    0    0  0.16723890161E+02  0.10129824483E+02 -0.38746888510E+02  0.47787271718E+02  0.20000003071E+02 0.  0.
        -12    1    1    2    0    0 -0.16723890161E+02 -0.10129824483E+02  0.38746888510E+02  0.43400728282E+02  0.00000000000E+00 0.  1.
         11    1    3    3    0    0  0.11882662674E+02  0.74783448098E+01 -0.80896092321E+01  0.16203860377E+02  0.51100000000E-03 0. -1.
        -11    1    3    3    0    0  0.21357673197E+01  0.14946217235E+01 -0.25600429121E+02  0.25732807223E+02  0.51100000000E-03 0.  1.
         12    1    3    3    0    0  0.27054601673E+01  0.11568579499E+01 -0.50568501570E+01  0.58506041178E+01  0.00000000000E+00 0. -1.
</event>
<event>
 7    1  0.2598019E-009  0.4778727E+02  0.7816164E-02  0.1312668E+00
        -11   -1    0    0    0    0  0.00000000000E+00  0.00000000000E+00  0.45593999997E+02  0.45594000000E+02  0.51100000000E-03 0.  1.
         11   -1    0    0    0    0 -0.00000000000E+00 -0.00000000000E+00 -0.45593999997E+02  0.45594000000E+02  0.51100000000E-03 0. -1.
    9900012    2    1    2    0    0 -0.23622865541E+02  0.19873099858E+02 -0.30506449933E+02  0.47787270031E+02  0.19999995379E+02 0.  0.
        -12    1    1    2    0    0  0.23622865541E+02 -0.19873099858E+02  0.30506449933E+02  0.43400729969E+02  0.00000000000E+00 0.  1.
         11    1    3    3    0    0 -0.18449232616E+02  0.71339111018E+01 -0.23145826559E+02  0.30446611619E+02  0.51100000000E-03 0. -1.
        -11    1    3    3    0    0 -0.48484742148E+01  0.11468860126E+02 -0.30287536679E+01  0.12814671429E+02  0.51100000000E-03 0.  1.
         12    1    3    3    0    0 -0.32515871034E+00  0.12703286303E+01 -0.43318697066E+01  0.45259869830E+01  0.00000000000E+00 0. -1.
</event>
<event>
 7    1  0.2598019E-009  0.4778727E+02  0.7816164E-02  0.1312668E+00
        -11   -1    0    0    0    0  0.00000000000E+00  0.00000000000E+00  0.45593999997E+02  0.45594000000E+02  0.51100000000E-03 0.  1.
         11   -1    0    0    0    0 -0.00000000000E+00 -0.00000000000E+00 -0.45593999997E+02  0.45594000000E+02  0.51100000000E-03 0. -1.
    9900012    2    1    2    0    0 -0.68466190566E+01  0.17162035807E+02 -0.39271001437E+02  0.47787271672E+02  0.20000002860E+02 0.  0.
        -12    1    1    2    0    0  0.68466190566E+01 -0.17162035807E+02  0.39271001437E+02  0.43400728328E+02  0.00000000000E+00 0.  1.
         11    1    3    3    0    0 -0.47487174288E+00  0.25908416176E+01 -0.23700530841E+01  0.35433198193E+01  0.51100000000E-03 0. -1.
        -11    1    3    3    0    0 -0.40290733744E+01  0.96000977200E+01 -0.37307976412E+02  0.38733453406E+02  0.51100000000E-03 0.  1.
        -12    1    3    3    0    0 -0.23426739394E+01  0.49710964690E+01  0.40702805919E+00  0.55104984467E+01  0.00000000000E+00 0.  1.
</event>
<event>
 7    1  0.2598019E-009  0.4778727E+02  0.7816164E-02  0.1312668E+00
        -11   -1    0    0    0    0  0.00000000000E+00  0.00000000000E+00  0.45593999997E+02  0.45594000000E+02  0.51100000000E-03 0. -1.
         11   -1    0    0    0    0 -0.00000000000E+00 -0.00000000000E+00 -0.45593999997E+02  0.45594000000E+02  0.51100000000E-03 0.  1.
    9900012    2    1    2    0    0 -0.21366868892E+02 -0.25199927973E+02  0.28143280282E+02  0.47787266353E+02  0.19999978608E+02 0.  0.
        -12    1    1    2    0    0  0.21366868892E+02  0.25199927973E+02 -0.28143280282E+02  0.43400733647E+02  0.00000000000E+00 0.  1.
         11    1    3    3    0    0 -0.61524083277E+01  0.16086390277E+01  0.81801587123E+01  0.10361218296E+02  0.51100000000E-03 0. -1.
        -11    1    3    3    0    0 -0.25551542593E+01 -0.80472560351E+01  0.23988371468E+01  0.87773323339E+01  0.51100000000E-03 0.  1.
         12    1    3    3    0    0 -0.12659306305E+02 -0.18761310966E+02  0.17564284423E+02  0.28648715723E+02  0.00000000000E+00 0. -1.
</event>
<event>
 7    1  0.2598019E-009  0.4778727E+02  0.7816164E-02  0.1312668E+00
        -11   -1    0    0    0    0  0.00000000000E+00  0.00000000000E+00  0.45593999997E+02  0.45594000000E+02  0.51100000000E-03 0.  1.
         11   -1    0    0    0    0 -0.00000000000E+00 -0.00000000000E+00 -0.45593999997E+02  0.45594000000E+02  0.51100000000E-03 0. -1.
    9900012    2    1    2    0    0 -0.23500601843E+02  0.24278151228E+02 -0.27238145674E+02  0.47787268511E+02  0.19999988448E+02 0.  0.
        -12    1    1    2    0    0  0.23500601843E+02 -0.24278151228E+02  0.27238145674E+02  0.43400731489E+02  0.00000000000E+00 0.  1.
         11    1    3    3    0    0 -0.11455966841E+02  0.83825350257E+01 -0.19102797797E+02  0.23799641881E+02  0.51100000000E-03 0. -1.
        -11    1    3    3    0    0 -0.96350818638E+01  0.14445480108E+02 -0.23073450910E+01  0.17516578995E+02  0.51100000000E-03 0.  1.
        -12    1    3    3    0    0 -0.24095531381E+01  0.14501360949E+01 -0.58280027856E+01  0.64710476345E+01  0.00000000000E+00 0.  1.
</event>
<event>
 7    1  0.2598019E-009  0.4778729E+02  0.7816164E-02  0.1312668E+00
        -11   -1    0    0    0    0  0.00000000000E+00  0.00000000000E+00  0.45593999997E+02  0.45594000000E+02  0.51100000000E-03 0.  1.
         11   -1    0    0    0    0 -0.00000000000E+00 -0.00000000000E+00 -0.45593999997E+02  0.45594000000E+02  0.51100000000E-03 0. -1.
    9900012    2    1    2    0    0 -0.55661232354E+01 -0.18049563005E+02 -0.39074970089E+02  0.47787288716E+02  0.20000080571E+02 0.  0.
        -12    1    1    2    0    0  0.55661232354E+01  0.18049563005E+02  0.39074970089E+02  0.43400711284E+02  0.00000000000E+00 0.  1.
         11    1    3    3    0    0  0.10425293206E+01 -0.62751890717E+01 -0.82506335110E+01  0.10418148533E+02  0.51100000000E-03 0. -1.
        -11    1    3    3    0    0 -0.10395501510E+02 -0.13427099061E+02 -0.25307337776E+02  0.30476462827E+02  0.51100000000E-03 0.  1.
        -12    1    3    3    0    0  0.37868489544E+01  0.16527251279E+01 -0.55169988012E+01  0.68926773554E+01  0.00000000000E+00 0.  1.
</event>
<event>
 7    1  0.2598019E-009  0.4778726E+02  0.7816164E-02  0.1312668E+00
        -11   -1    0    0    0    0  0.00000000000E+00  0.00000000000E+00  0.45593999997E+02  0.45594000000E+02  0.51100000000E-03 0.  1.
         11   -1    0    0    0    0 -0.00000000000E+00 -0.00000000000E+00 -0.45593999997E+02  0.45594000000E+02  0.51100000000E-03 0. -1.
    9900012    2    1    2    0    0  0.40108463999E+02 -0.13347824131E+01  0.16527354864E+02  0.47787262826E+02  0.19999962528E+02 0.  0.
        -12    1    1    2    0    0 -0.40108463999E+02  0.13347824131E+01 -0.16527354864E+02  0.43400737174E+02  0.00000000000E+00 0.  1.
         11    1    3    3    0    0  0.12677137467E+02 -0.13019208494E+01  0.15494735008E+02  0.20062193935E+02  0.51100000000E-03 0. -1.
        -11    1    3    3    0    0  0.18738494114E+02  0.21359027599E+00 -0.10969631264E+01  0.18771790293E+02  0.51100000000E-03 0.  1.
         12    1    3    3    0    0  0.86928324189E+01 -0.24645183969E+00  0.21295829822E+01  0.89532785978E+01  0.00000000000E+00 0. -1.
</event>
<event>
 7    1  0.2598019E-009  0.4778727E+02  0.7816164E-02  0.1312668E+00
        -11   -1    0    0    0    0  0.00000000000E+00  0.00000000000E+00  0.45593999997E+02  0.45594000000E+02  0.51100000000E-03 0.  1.
         11   -1    0    0    0    0 -0.00000000000E+00 -0.00000000000E+00 -0.45593999997E+02  0.45594000000E+02  0.51100000000E-03 0. -1.
    9900012    2    1    2    0    0  0.20597544073E+02 -0.45542864529E+01 -0.37929186359E+02  0.47787268154E+02  0.19999986820E+02 0.  0.
        -12    1    1    2    0    0 -0.20597544073E+02  0.45542864529E+01  0.37929186359E+02  0.43400731846E+02  0.00000000000E+00 0.  1.
         11    1    3    3    0    0  0.42910610949E+01 -0.37236278557E+01 -0.18342120955E+02  0.19201875198E+02  0.51100000000E-03 0.  1.
        -11    1    3    3    0    0  0.12500720125E+02  0.52611340594E+01 -0.11634891579E+02  0.17869477819E+02  0.51100000000E-03 0. -1.
        -12    1    3    3    0    0  0.38057628533E+01 -0.60917926566E+01 -0.79521738255E+01  0.10715915137E+02  0.00000000000E+00 0.  1.
</event>
<event>
 7    1  0.2598019E-009  0.4778727E+02  0.7816164E-02  0.1312668E+00
        -11   -1    0    0    0    0  0.00000000000E+00  0.00000000000E+00  0.45593999997E+02  0.45594000000E+02  0.51100000000E-03 0.  1.
         11   -1    0    0    0    0 -0.00000000000E+00 -0.00000000000E+00 -0.45593999997E+02  0.45594000000E+02  0.51100000000E-03 0. -1.
    9900012    2    1    2    0    0  0.14796508703E+02  0.40498449978E+02 -0.49560034133E+01  0.47787273160E+02  0.20000009647E+02 0.  0.
        -12    1    1    2    0    0 -0.14796508703E+02 -0.40498449978E+02  0.49560034133E+01  0.43400726840E+02  0.00000000000E+00 0.  1.
         11    1    3    3    0    0  0.54760371558E+01  0.16254644957E+02 -0.70049621517E+01  0.18527545995E+02  0.51100000000E-03 0. -1.
        -11    1    3    3    0    0  0.70107944190E+01  0.31127777510E+01  0.22771361112E+01  0.80016231380E+01  0.51100000000E-03 0.  1.
        -12    1    3    3    0    0  0.23096771281E+01  0.21131027270E+02 -0.22817737283E+00  0.21258104027E+02  0.00000000000E+00 0.  1.
</event>
<event>
 7    1  0.2598019E-009  0.4778727E+02  0.7816164E-02  0.1312668E+00
        -11   -1    0    0    0    0  0.00000000000E+00  0.00000000000E+00  0.45593999997E+02  0.45594000000E+02  0.51100000000E-03 0.  1.
         11   -1    0    0    0    0 -0.00000000000E+00 -0.00000000000E+00 -0.45593999997E+02  0.45594000000E+02  0.51100000000E-03 0. -1.
    9900012    2    1    2    0    0 -0.14101549195E+02  0.29991062931E+02 -0.28023308377E+02  0.47787270077E+02  0.19999995591E+02 0.  0.
        -12    1    1    2    0    0  0.14101549195E+02 -0.29991062931E+02  0.28023308377E+02  0.43400729923E+02  0.00000000000E+00 0.  1.
         11    1    3    3    0    0  0.21320085911E+01  0.96899423833E+01 -0.11551427245E+02  0.15227472399E+02  0.51100000000E-03 0. -1.
        -11    1    3    3    0    0 -0.13513575118E+02  0.21248472285E+02 -0.14360754825E+02  0.28988714465E+02  0.51100000000E-03 0.  1.
        -12    1    3    3    0    0 -0.27199826683E+01 -0.94735173774E+00 -0.21111263072E+01  0.35710832132E+01  0.00000000000E+00 0.  1.
</event>
<event>
 7    1  0.2598019E-009  0.4778727E+02  0.7816164E-02  0.1312668E+00
        -11   -1    0    0    0    0  0.00000000000E+00  0.00000000000E+00  0.45593999997E+02  0.45594000000E+02  0.51100000000E-03 0. -1.
         11   -1    0    0    0    0 -0.00000000000E+00 -0.00000000000E+00 -0.45593999997E+02  0.45594000000E+02  0.51100000000E-03 0.  1.
    9900012    2    1    2    0    0  0.12118381075E+02 -0.29068863916E+01  0.41573042420E+02  0.47787274149E+02  0.20000014155E+02 0.  0.
        -12    1    1    2    0    0 -0.12118381075E+02  0.29068863916E+01 -0.41573042420E+02  0.43400725851E+02  0.00000000000E+00 0.  1.
         11    1    3    3    0    0 -0.97982880412E+00  0.41576090070E+01  0.58172030053E+01  0.72170373566E+01  0.51100000000E-03 0. -1.
        -11    1    3    3    0    0  0.13339307946E+02 -0.23022034835E+01  0.20330662567E+02  0.24424846326E+02  0.51100000000E-03 0.  1.
         12    1    3    3    0    0 -0.24109806651E+00 -0.47622919151E+01  0.15425176847E+02  0.16145390467E+02  0.00000000000E+00 0. -1.
</event>
<event>
 7    1  0.2598019E-009  0.4778727E+02  0.7816164E-02  0.1312668E+00
        -11   -1    0    0    0    0  0.00000000000E+00  0.00000000000E+00  0.45593999997E+02  0.45594000000E+02  0.51100000000E-03 0.  1.
         11   -1    0    0    0    0 -0.00000000000E+00 -0.00000000000E+00 -0.45593999997E+02  0.45594000000E+02  0.51100000000E-03 0. -1.
    9900012    2    1    2    0    0 -0.12970041221E+01 -0.32333826788E+02 -0.28921697508E+02  0.47787272342E+02  0.20000005918E+02 0.  0.
        -12    1    1    2    0    0  0.12970041221E+01  0.32333826788E+02  0.28921697508E+02  0.43400727658E+02  0.00000000000E+00 0.  1.
         11    1    3    3    0    0 -0.61314109856E+01 -0.13909568652E+02 -0.46386091632E+01  0.15892985748E+02  0.51100000000E-03 0. -1.
        -11    1    3    3    0    0  0.29764019758E+01 -0.16484624788E+02 -0.23893100935E+02  0.29180166135E+02  0.51100000000E-03 0.  1.
        -12    1    3    3    0    0  0.18580048877E+01 -0.19396333478E+01 -0.38998740983E+00  0.27141204591E+01  0.00000000000E+00 0.  1.
</event>
<event>
 7    1  0.2598019E-009  0.4778727E+02  0.7816164E-02  0.1312668E+00
        -11   -1    0    0    0    0  0.00000000000E+00  0.00000000000E+00  0.45593999997E+02  0.45594000000E+02  0.51100000000E-03 0.  1.
         11   -1    0    0    0    0 -0.00000000000E+00 -0.00000000000E+00 -0.45593999997E+02  0.45594000000E+02  0.51100000000E-03 0. -1.
    9900012    2    1    2    0    0  0.97636296113E+00 -0.15677135750E+02 -0.40458586417E+02  0.47787273223E+02  0.20000009933E+02 0.  0.
        -12    1    1    2    0    0 -0.97636296113E+00  0.15677135750E+02  0.40458586417E+02  0.43400726777E+02  0.00000000000E+00 0.  1.
         11    1    3    3    0    0 -0.62671102359E+01 -0.66751360922E+01 -0.27064662347E+02  0.28571490349E+02  0.51100000000E-03 0. -1.
        -11    1    3    3    0    0  0.50136563012E+01 -0.16939258721E+01 -0.23595980957E+01  0.57942935549E+01  0.51100000000E-03 0.  1.
         12    1    3    3    0    0  0.22298168959E+01 -0.73080737853E+01 -0.11034325974E+02  0.13421489319E+02  0.00000000000E+00 0. -1.
</event>
<event>
 7    1  0.2598019E-009  0.4778729E+02  0.7816164E-02  0.1312668E+00
        -11   -1    0    0    0    0  0.00000000000E+00  0.00000000000E+00  0.45593999997E+02  0.45594000000E+02  0.51100000000E-03 0.  1.
         11   -1    0    0    0    0 -0.00000000000E+00 -0.00000000000E+00 -0.45593999997E+02  0.45594000000E+02  0.51100000000E-03 0. -1.
    9900012    2    1    2    0    0 -0.65387489860E+01  0.31836262809E+02 -0.28763152488E+02  0.47787287920E+02  0.20000076944E+02 0.  0.
        -12    1    1    2    0    0  0.65387489860E+01 -0.31836262809E+02  0.28763152488E+02  0.43400712080E+02  0.00000000000E+00 0.  1.
         11    1    3    3    0    0 -0.78460309399E+01  0.22458596224E+02 -0.27463213481E+02  0.36334237859E+02  0.51100000000E-03 0. -1.
        -11    1    3    3    0    0  0.32693176280E+00  0.15153791651E+01  0.22812416813E+01  0.27581374624E+01  0.51100000000E-03 0.  1.
         12    1    3    3    0    0  0.98035019103E+00  0.78622874200E+01 -0.35811806890E+01  0.86949125986E+01  0.00000000000E+00 0. -1.
</event>
<event>
 7    1  0.2598019E-009  0.4778727E+02  0.7816164E-02  0.1312668E+00
        -11   -1    0    0    0    0  0.00000000000E+00  0.00000000000E+00  0.45593999997E+02  0.45594000000E+02  0.51100000000E-03 0.  1.
         11   -1    0    0    0    0 -0.00000000000E+00 -0.00000000000E+00 -0.45593999997E+02  0.45594000000E+02  0.51100000000E-03 0. -1.
    9900012    2    1    2    0    0 -0.33906437039E+01 -0.42988981363E+02 -0.49065673196E+01  0.47787269750E+02  0.19999994097E+02 0.  0.
        -12    1    1    2    0    0  0.33906437039E+01  0.42988981363E+02  0.49065673196E+01  0.43400730250E+02  0.00000000000E+00 0.  1.
         11    1    3    3    0    0  0.92801078807E+00 -0.34786791941E+02 -0.93250083707E+01  0.36026904932E+02  0.51100000000E-03 0. -1.
        -11    1    3    3    0    0 -0.21420240939E+01 -0.83899085849E+01  0.39897665771E+01  0.95339955361E+01  0.51100000000E-03 0.  1.
         12    1    3    3    0    0 -0.21766303981E+01  0.18771916300E+00  0.42867447401E+00  0.22263692817E+01  0.00000000000E+00 0. -1.
</event>
<event>
 7    1  0.2598019E-009  0.4778727E+02  0.7816164E-02  0.1312668E+00
        -11   -1    0    0    0    0  0.00000000000E+00  0.00000000000E+00  0.45593999997E+02  0.45594000000E+02  0.51100000000E-03 0.  1.
         11   -1    0    0    0    0 -0.00000000000E+00 -0.00000000000E+00 -0.45593999997E+02  0.45594000000E+02  0.51100000000E-03 0. -1.
    9900012    2    1    2    0    0 -0.98527354193E+01 -0.58657430382E+01 -0.41858569147E+02  0.47787272498E+02  0.20000006628E+02 0.  0.
        -12    1    1    2    0    0  0.98527354193E+01  0.58657430382E+01  0.41858569147E+02  0.43400727502E+02  0.00000000000E+00 0.  1.
         11    1    3    3    0    0 -0.12683429543E+02 -0.46910115930E+01 -0.33526076657E+02  0.36150695581E+02  0.51100000000E-03 0. -1.
        -11    1    3    3    0    0  0.30289287171E+01 -0.65292507360E+00 -0.96875756147E+01  0.10171029539E+02  0.51100000000E-03 0.  1.
        -12    1    3    3    0    0 -0.19823459370E+00 -0.52180637160E+00  0.13550831245E+01  0.14655473782E+01  0.00000000000E+00 0.  1.
</event>
<event>
 7    1  0.2598019E-009  0.4778727E+02  0.7816164E-02  0.1312668E+00
        -11   -1    0    0    0    0  0.00000000000E+00  0.00000000000E+00  0.45593999997E+02  0.45594000000E+02  0.51100000000E-03 0. -1.
         11   -1    0    0    0    0 -0.00000000000E+00 -0.00000000000E+00 -0.45593999997E+02  0.45594000000E+02  0.51100000000E-03 0.  1.
    9900012    2    1    2    0    0  0.11410371488E+02  0.35810816007E+02 -0.21702821875E+02  0.47787267312E+02  0.19999982981E+02 0.  0.
        -12    1    1    2    0    0 -0.11410371488E+02 -0.35810816007E+02  0.21702821875E+02  0.43400732688E+02  0.00000000000E+00 0.  1.
         11    1    3    3    0    0  0.11780527092E+02  0.13392428766E+02 -0.10087216317E+02  0.20491215193E+02  0.51100000000E-03 0. -1.
        -11    1    3    3    0    0 -0.27102292855E+01  0.66729775271E+00 -0.17774613668E+01  0.33090781560E+01  0.51100000000E-03 0.  1.
         12    1    3    3    0    0  0.23400736815E+01  0.21751089488E+02 -0.98381441910E+01  0.23986973963E+02  0.00000000000E+00 0. -1.
</event>
<event>
 7    1  0.2598019E-009  0.4778727E+02  0.7816164E-02  0.1312668E+00
        -11   -1    0    0    0    0  0.00000000000E+00  0.00000000000E+00  0.45593999997E+02  0.45594000000E+02  0.51100000000E-03 0.  1.
         11   -1    0    0    0    0 -0.00000000000E+00 -0.00000000000E+00 -0.45593999997E+02  0.45594000000E+02  0.51100000000E-03 0. -1.
    9900012    2    1    2    0    0  0.86772080003E+01  0.10090089905E+02 -0.41310038456E+02  0.47787272699E+02  0.20000007544E+02 0.  0.
        -12    1    1    2    0    0 -0.86772080003E+01 -0.10090089905E+02  0.41310038456E+02  0.43400727301E+02  0.00000000000E+00 0.  1.
         11    1    3    3    0    0 -0.10544744756E+01 -0.39053272528E+00 -0.12323206751E+02  0.12374403304E+02  0.51100000000E-03 0. -1.
        -11    1    3    3    0    0  0.13444852545E+02  0.95866972821E+01 -0.23986726019E+02  0.29120986420E+02  0.51100000000E-03 0.  1.
        -12    1    3    3    0    0 -0.37131700694E+01  0.89392534826E+00 -0.50001056866E+01  0.62918829749E+01  0.00000000000E+00 0.  1.
</event>
<event>
 7    1  0.2598019E-009  0.4778727E+02  0.7816164E-02  0.1312668E+00
        -11   -1    0    0    0    0  0.00000000000E+00  0.00000000000E+00  0.45593999997E+02  0.45594000000E+02  0.51100000000E-03 0.  1.
         11   -1    0    0    0    0 -0.00000000000E+00 -0.00000000000E+00 -0.45593999997E+02  0.45594000000E+02  0.51100000000E-03 0. -1.
    9900012    2    1    2    0    0 -0.15359429331E+02 -0.98975766846E+01 -0.39366855391E+02  0.47787269626E+02  0.19999993535E+02 0.  0.
        -12    1    1    2    0    0  0.15359429331E+02  0.98975766846E+01  0.39366855391E+02  0.43400730374E+02  0.00000000000E+00 0.  1.
         11    1    3    3    0    0 -0.17356701302E+01  0.12561709084E+01 -0.27449352781E+01  0.34821237908E+01  0.51100000000E-03 0. -1.
        -11    1    3    3    0    0 -0.63541928211E+01  0.35727246995E+01 -0.18308773397E+02  0.19706631161E+02  0.51100000000E-03 0.  1.
        -12    1    3    3    0    0 -0.72695663801E+01 -0.14726472292E+02 -0.18313146716E+02  0.24598514674E+02  0.00000000000E+00 0.  1.
</event>
<event>
 7    1  0.2598019E-009  0.4778727E+02  0.7816164E-02  0.1312668E+00
        -11   -1    0    0    0    0  0.00000000000E+00  0.00000000000E+00  0.45593999997E+02  0.45594000000E+02  0.51100000000E-03 0.  1.
         11   -1    0    0    0    0 -0.00000000000E+00 -0.00000000000E+00 -0.45593999997E+02  0.45594000000E+02  0.51100000000E-03 0. -1.
    9900012    2    1    2    0    0  0.18872200774E+02  0.27850531990E+02 -0.27419173289E+02  0.47787272379E+02  0.20000006086E+02 0.  0.
        -12    1    1    2    0    0 -0.18872200774E+02 -0.27850531990E+02  0.27419173289E+02  0.43400727621E+02  0.00000000000E+00 0.  1.
         11    1    3    3    0    0  0.37035939319E+01  0.90961354419E+01 -0.19704221681E+02  0.22016190413E+02  0.51100000000E-03 0. -1.
        -11    1    3    3    0    0  0.13208304577E+02  0.14074545961E+02 -0.74527692039E+01  0.20690479039E+02  0.51100000000E-03 0.  1.
         12    1    3    3    0    0  0.19603022651E+01  0.46798505867E+01 -0.26218240366E+00  0.50806029266E+01  0.00000000000E+00 0. -1.
</event>
<event>
 7    1  0.2598019E-009  0.4778728E+02  0.7816164E-02  0.1312668E+00
        -11   -1    0    0    0    0  0.00000000000E+00  0.00000000000E+00  0.45593999997E+02  0.45594000000E+02  0.51100000000E-03 0.  1.
         11   -1    0    0    0    0 -0.00000000000E+00 -0.00000000000E+00 -0.45593999997E+02  0.45594000000E+02  0.51100000000E-03 0. -1.
    9900012    2    1    2    0    0  0.22732356754E+02  0.11739840201E+02 -0.35057643432E+02  0.47787282788E+02  0.20000053542E+02 0.  0.
        -12    1    1    2    0    0 -0.22732356754E+02 -0.11739840201E+02  0.35057643432E+02  0.43400717212E+02  0.00000000000E+00 0.  1.
         11    1    3    3    0    0  0.14827479116E+02  0.33922186268E+00 -0.25485957092E+02  0.29487339955E+02  0.51100000000E-03 0. -1.
        -11    1    3    3    0    0 -0.32145273001E+00  0.44002424443E+01 -0.10340219830E+01  0.45315192981E+01  0.51100000000E-03 0.  1.
        -12    1    3    3    0    0  0.82263303675E+01  0.70003758938E+01 -0.85376643569E+01  0.13768423535E+02  0.00000000000E+00 0.  1.
</event>
<event>
 7    1  0.2598019E-009  0.4778727E+02  0.7816164E-02  0.1312668E+00
        -11   -1    0    0    0    0  0.00000000000E+00  0.00000000000E+00  0.45593999997E+02  0.45594000000E+02  0.51100000000E-03 0.  1.
         11   -1    0    0    0    0 -0.00000000000E+00 -0.00000000000E+00 -0.45593999997E+02  0.45594000000E+02  0.51100000000E-03 0. -1.
    9900012    2    1    2    0    0 -0.72142784291E+01 -0.20610968407E+02 -0.37506874985E+02  0.47787268404E+02  0.19999987963E+02 0.  0.
        -12    1    1    2    0    0  0.72142784291E+01  0.20610968407E+02  0.37506874985E+02  0.43400731596E+02  0.00000000000E+00 0.  1.
         11    1    3    3    0    0  0.42576005663E+01 -0.18760831112E-01 -0.52503134840E+01  0.67596824254E+01  0.51100000000E-03 0. -1.
        -11    1    3    3    0    0 -0.96257365709E+01 -0.11398088326E+02 -0.25225092699E+02  0.29306595230E+02  0.51100000000E-03 0.  1.
        -12    1    3    3    0    0 -0.18461424244E+01 -0.91941192502E+01 -0.70314688012E+01  0.11720990749E+02  0.00000000000E+00 0.  1.
</event>
<event>
 7    1  0.2598019E-009  0.4778727E+02  0.7816164E-02  0.1312668E+00
        -11   -1    0    0    0    0  0.00000000000E+00  0.00000000000E+00  0.45593999997E+02  0.45594000000E+02  0.51100000000E-03 0.  1.
         11   -1    0    0    0    0 -0.00000000000E+00 -0.00000000000E+00 -0.45593999997E+02  0.45594000000E+02  0.51100000000E-03 0. -1.
    9900012    2    1    2    0    0 -0.95771902780E+01 -0.90437116609E+01 -0.41353498847E+02  0.47787272344E+02  0.20000005923E+02 0.  0.
        -12    1    1    2    0    0  0.95771902780E+01  0.90437116609E+01  0.41353498847E+02  0.43400727656E+02  0.00000000000E+00 0.  1.
         11    1    3    3    0    0 -0.40453923743E+01 -0.31976290410E+01 -0.14392263177E+02  0.15288141502E+02  0.51100000000E-03 0. -1.
        -11    1    3    3    0    0 -0.43434547955E+01 -0.94598315607E+01 -0.79150911988E+01  0.13076799366E+02  0.51100000000E-03 0.  1.
        -12    1    3    3    0    0 -0.11883431083E+01  0.36137489408E+01 -0.19046144471E+02  0.19422331476E+02  0.00000000000E+00 0.  1.
</event>
<event>
 7    1  0.2598019E-009  0.4778727E+02  0.7816164E-02  0.1312668E+00
        -11   -1    0    0    0    0  0.00000000000E+00  0.00000000000E+00  0.45593999997E+02  0.45594000000E+02  0.51100000000E-03 0. -1.
         11   -1    0    0    0    0 -0.00000000000E+00 -0.00000000000E+00 -0.45593999997E+02  0.45594000000E+02  0.51100000000E-03 0.  1.
    9900012    2    1    2    0    0 -0.30170146722E+02  0.23933843489E+02  0.20013914062E+02  0.47787269897E+02  0.19999994767E+02 0.  0.
        -12    1    1    2    0    0  0.30170146722E+02 -0.23933843489E+02 -0.20013914062E+02  0.43400730103E+02  0.00000000000E+00 0.  1.
         11    1    3    3    0    0 -0.26604921489E+02  0.11544515362E+02  0.13748072659E+02  0.32095282901E+02  0.51100000000E-03 0. -1.
        -11    1    3    3    0    0 -0.94255666009E+00  0.97810181050E+01  0.68069891608E+01  0.11953737069E+02  0.51100000000E-03 0.  1.
         12    1    3    3    0    0 -0.26226685731E+01  0.26083100221E+01 -0.54114775804E+00  0.37382499263E+01  0.00000000000E+00 0. -1.
</event>
<event>
 7    1  0.2598019E-009  0.4778727E+02  0.7816164E-02  0.1312668E+00
        -11   -1    0    0    0    0  0.00000000000E+00  0.00000000000E+00  0.45593999997E+02  0.45594000000E+02  0.51100000000E-03 0. -1.
         11   -1    0    0    0    0 -0.00000000000E+00 -0.00000000000E+00 -0.45593999997E+02  0.45594000000E+02  0.51100000000E-03 0.  1.
    9900012    2    1    2    0    0  0.15065433301E+02 -0.23155921489E+02  0.33473261839E+02  0.47787271449E+02  0.20000001846E+02 0.  0.
        -12    1    1    2    0    0 -0.15065433301E+02  0.23155921489E+02 -0.33473261839E+02  0.43400728551E+02  0.00000000000E+00 0.  1.
         11    1    3    3    0    0  0.12601738622E+02 -0.47920224370E+01  0.12008735657E+02  0.18054833914E+02  0.51100000000E-03 0. -1.
        -11    1    3    3    0    0 -0.21036081851E+01 -0.75476403773E+01  0.43035313720E+01  0.89393749889E+01  0.51100000000E-03 0.  1.
         12    1    3    3    0    0  0.45673028649E+01 -0.10816258675E+02  0.17160994810E+02  0.20793062546E+02  0.00000000000E+00 0. -1.
</event>
<event>
 7    1  0.2598019E-009  0.4778727E+02  0.7816164E-02  0.1312668E+00
        -11   -1    0    0    0    0  0.00000000000E+00  0.00000000000E+00  0.45593999997E+02  0.45594000000E+02  0.51100000000E-03 0.  1.
         11   -1    0    0    0    0 -0.00000000000E+00 -0.00000000000E+00 -0.45593999997E+02  0.45594000000E+02  0.51100000000E-03 0. -1.
    9900012    2    1    2    0    0  0.47179128266E+01  0.32129817115E+02 -0.28793045474E+02  0.47787270548E+02  0.19999997738E+02 0.  0.
        -12    1    1    2    0    0 -0.47179128266E+01 -0.32129817115E+02  0.28793045474E+02  0.43400729452E+02  0.00000000000E+00 0.  1.
         11    1    3    3    0    0  0.32721531858E+01  0.30311469885E+02 -0.20018537768E+02  0.36472373760E+02  0.51100000000E-03 0. -1.
        -11    1    3    3    0    0 -0.14420595535E+00 -0.23261144677E+01 -0.14335142315E+01  0.27361592036E+01  0.51100000000E-03 0.  1.
        -12    1    3    3    0    0  0.15899655961E+01  0.41444616982E+01 -0.73409934741E+01  0.85787375850E+01  0.00000000000E+00 0.  1.
</event>
<event>
 7    1  0.2598019E-009  0.4778729E+02  0.7816164E-02  0.1312668E+00
        -11   -1    0    0    0    0  0.00000000000E+00  0.00000000000E+00  0.45593999997E+02  0.45594000000E+02  0.51100000000E-03 0.  1.
         11   -1    0    0    0    0 -0.00000000000E+00 -0.00000000000E+00 -0.45593999997E+02  0.45594000000E+02  0.51100000000E-03 0. -1.
    9900012    2    1    2    0    0 -0.41544424100E+02 -0.12066292579E+02  0.34766550020E+01  0.47787288941E+02  0.20000081596E+02 0.  0.
        -12    1    1    2    0    0  0.41544424100E+02  0.12066292579E+02 -0.34766550020E+01  0.43400711059E+02  0.00000000000E+00 0.  1.
         11    1    3    3    0    0 -0.12408904856E+02 -0.68002100425E+01 -0.58994027646E+01  0.15330581515E+02  0.51100000000E-03 0. -1.
        -11    1    3    3    0    0 -0.14524254165E+02 -0.47328247562E+01  0.92045224932E+01  0.17834708403E+02  0.51100000000E-03 0.  1.
        -12    1    3    3    0    0 -0.14611265079E+02 -0.53325778071E+00  0.17153527342E+00  0.14621999023E+02  0.00000000000E+00 0.  1.
</event>
<event>
 7    1  0.2598019E-009  0.4778729E+02  0.7816164E-02  0.1312668E+00
        -11   -1    0    0    0    0  0.00000000000E+00  0.00000000000E+00  0.45593999997E+02  0.45594000000E+02  0.51100000000E-03 0.  1.
         11   -1    0    0    0    0 -0.00000000000E+00 -0.00000000000E+00 -0.45593999997E+02  0.45594000000E+02  0.51100000000E-03 0. -1.
    9900012    2    1    2    0    0 -0.57957539310E+01  0.14747594335E+02 -0.40404695050E+02  0.47787289356E+02  0.20000083492E+02 0.  0.
        -12    1    1    2    0    0  0.57957539310E+01 -0.14747594335E+02  0.40404695050E+02  0.43400710644E+02  0.00000000000E+00 0.  1.
         11    1    3    3    0    0  0.32858495413E+01  0.10934287369E+01 -0.31424182711E+01  0.46762363566E+01  0.51100000000E-03 0. -1.
        -11    1    3    3    0    0 -0.10719695059E+02  0.15664029717E+02 -0.34048728939E+02  0.38981914163E+02  0.51100000000E-03 0.  1.
        -12    1    3    3    0    0  0.16380915867E+01 -0.20098641189E+01 -0.32135478393E+01  0.41291388373E+01  0.00000000000E+00 0.  1.
</event>
<event>
 7    1  0.2598019E-009  0.4778726E+02  0.7816164E-02  0.1312668E+00
        -11   -1    0    0    0    0  0.00000000000E+00  0.00000000000E+00  0.45593999997E+02  0.45594000000E+02  0.51100000000E-03 0.  1.
         11   -1    0    0    0    0 -0.00000000000E+00 -0.00000000000E+00 -0.45593999997E+02  0.45594000000E+02  0.51100000000E-03 0. -1.
    9900012    2    1    2    0    0 -0.22483196773E+02  0.27299963470E+02 -0.25156359081E+02  0.47787256403E+02  0.19999933243E+02 0.  0.
        -12    1    1    2    0    0  0.22483196773E+02 -0.27299963470E+02  0.25156359081E+02  0.43400743597E+02  0.00000000000E+00 0.  1.
         11    1    3    3    0    0  0.10794617990E+01  0.31259408846E+00 -0.44583613917E+01  0.45978189829E+01  0.51100000000E-03 0. -1.
        -11    1    3    3    0    0 -0.11513736463E+02  0.20502174294E+02 -0.89665678842E+01  0.25165544262E+02  0.51100000000E-03 0.  1.
        -12    1    3    3    0    0 -0.12048922109E+02  0.64851950875E+01 -0.11731429805E+02  0.18023893158E+02  0.00000000000E+00 0.  1.
</event>
<event>
 7    1  0.2598019E-009  0.4778727E+02  0.7816164E-02  0.1312668E+00
        -11   -1    0    0    0    0  0.00000000000E+00  0.00000000000E+00  0.45593999997E+02  0.45594000000E+02  0.51100000000E-03 0.  1.
         11   -1    0    0    0    0 -0.00000000000E+00 -0.00000000000E+00 -0.45593999997E+02  0.45594000000E+02  0.51100000000E-03 0. -1.
    9900012    2    1    2    0    0 -0.17911838282E+02 -0.22587957900E+02 -0.32443388205E+02  0.47787271539E+02  0.20000002255E+02 0.  0.
        -12    1    1    2    0    0  0.17911838282E+02  0.22587957900E+02  0.32443388205E+02  0.43400728461E+02  0.00000000000E+00 0.  1.
         11    1    3    3    0    0 -0.82317086922E+01 -0.14757027226E+02 -0.23400404620E+02  0.28863641787E+02  0.51100000000E-03 0. -1.
        -11    1    3    3    0    0  0.72307730711E+00 -0.24266824014E+01  0.16778019244E+01  0.30375397656E+01  0.51100000000E-03 0.  1.
        -12    1    3    3    0    0 -0.10403206896E+02 -0.54042482720E+01 -0.10720785510E+02  0.15886089987E+02  0.00000000000E+00 0.  1.
</event>
<event>
 7    1  0.2598019E-009  0.4778727E+02  0.7816164E-02  0.1312668E+00
        -11   -1    0    0    0    0  0.00000000000E+00  0.00000000000E+00  0.45593999997E+02  0.45594000000E+02  0.51100000000E-03 0. -1.
         11   -1    0    0    0    0 -0.00000000000E+00 -0.00000000000E+00 -0.45593999997E+02  0.45594000000E+02  0.51100000000E-03 0.  1.
    9900012    2    1    2    0    0 -0.25992327590E+02  0.33687019993E+02 -0.85560897046E+01  0.47787273271E+02  0.20000010154E+02 0.  0.
        -12    1    1    2    0    0  0.25992327590E+02 -0.33687019993E+02  0.85560897046E+01  0.43400726729E+02  0.00000000000E+00 0.  1.
         11    1    3    3    0    0 -0.21640451940E+02  0.28613255964E+02 -0.13302735926E+02  0.38262126972E+02  0.51100000000E-03 0. -1.
        -11    1    3    3    0    0 -0.21562892466E+01  0.54538864310E+01  0.42486520493E+01  0.72419268854E+01  0.51100000000E-03 0.  1.
         12    1    3    3    0    0 -0.21955864034E+01 -0.38012240245E+00  0.49799417260E+00  0.22832194138E+01  0.00000000000E+00 0. -1.
</event>
<event>
 7    1  0.2598019E-009  0.4778727E+02  0.7816164E-02  0.1312668E+00
        -11   -1    0    0    0    0  0.00000000000E+00  0.00000000000E+00  0.45593999997E+02  0.45594000000E+02  0.51100000000E-03 0.  1.
         11   -1    0    0    0    0 -0.00000000000E+00 -0.00000000000E+00 -0.45593999997E+02  0.45594000000E+02  0.51100000000E-03 0. -1.
    9900012    2    1    2    0    0  0.32205618782E+02  0.27145044353E+02 -0.10467479310E+02  0.47787269163E+02  0.19999991423E+02 0.  0.
        -12    1    1    2    0    0 -0.32205618782E+02 -0.27145044353E+02  0.10467479310E+02  0.43400730837E+02  0.00000000000E+00 0.  1.
         11    1    3    3    0    0  0.25963798908E+02  0.14650177521E+02 -0.23183595225E+01  0.29901861920E+02  0.51100000000E-03 0. -1.
        -11    1    3    3    0    0  0.64415380780E+01  0.12529374325E+02 -0.91928234524E+01  0.16822206665E+02  0.51100000000E-03 0.  1.
        -12    1    3    3    0    0 -0.19971820411E+00 -0.34507493544E-01  0.10437036653E+01  0.10632005780E+01  0.00000000000E+00 0.  1.
</event>
<event>
 7    1  0.2598019E-009  0.4778727E+02  0.7816164E-02  0.1312668E+00
        -11   -1    0    0    0    0  0.00000000000E+00  0.00000000000E+00  0.45593999997E+02  0.45594000000E+02  0.51100000000E-03 0.  1.
         11   -1    0    0    0    0 -0.00000000000E+00 -0.00000000000E+00 -0.45593999997E+02  0.45594000000E+02  0.51100000000E-03 0. -1.
    9900012    2    1    2    0    0  0.14904815044E+02  0.29049939078E+02 -0.28593189875E+02  0.47787274440E+02  0.20000015480E+02 0.  0.
        -12    1    1    2    0    0 -0.14904815044E+02 -0.29049939078E+02  0.28593189875E+02  0.43400725560E+02  0.00000000000E+00 0.  1.
         11    1    3    3    0    0  0.53170451437E+01  0.23099546480E+01 -0.58797391017E+00  0.58268836539E+01  0.51100000000E-03 0.  1.
        -11    1    3    3    0    0  0.68341848539E+01  0.26491702777E+02 -0.28066495623E+02  0.39194955995E+02  0.51100000000E-03 0. -1.
         12    1    3    3    0    0  0.27535850462E+01  0.24828165361E+00  0.61279657999E-01  0.27654347909E+01  0.00000000000E+00 0. -1.
</event>
<event>
 7    1  0.2598019E-009  0.4778725E+02  0.7816164E-02  0.1312668E+00
        -11   -1    0    0    0    0  0.00000000000E+00  0.00000000000E+00  0.45593999997E+02  0.45594000000E+02  0.51100000000E-03 0. -1.
         11   -1    0    0    0    0 -0.00000000000E+00 -0.00000000000E+00 -0.45593999997E+02  0.45594000000E+02  0.51100000000E-03 0.  1.
    9900012    2    1    2    0    0 -0.13802473160E+02 -0.10221643234E+02  0.39857685461E+02  0.47787247172E+02  0.19999891154E+02 0.  0.
        -12    1    1    2    0    0  0.13802473160E+02  0.10221643234E+02 -0.39857685461E+02  0.43400752828E+02  0.00000000000E+00 0.  1.
         11    1    3    3    0    0 -0.11822166846E+02 -0.43045372168E+01  0.18259713926E+02  0.22174530942E+02  0.51100000000E-03 0. -1.
        -11    1    3    3    0    0  0.14095887963E+01  0.19292656873E+01  0.47445602442E-02  0.23893575369E+01  0.51100000000E-03 0.  1.
        -12    1    3    3    0    0 -0.33898951109E+01 -0.78463717044E+01  0.21593226975E+02  0.23223358693E+02  0.00000000000E+00 0.  1.
</event>
<event>
 7    1  0.2598019E-009  0.4778728E+02  0.7816164E-02  0.1312668E+00
        -11   -1    0    0    0    0  0.00000000000E+00  0.00000000000E+00  0.45593999997E+02  0.45594000000E+02  0.51100000000E-03 0. -1.
         11   -1    0    0    0    0 -0.00000000000E+00 -0.00000000000E+00 -0.45593999997E+02  0.45594000000E+02  0.51100000000E-03 0.  1.
    9900012    2    1    2    0    0 -0.35674597725E+02 -0.24619003860E+02 -0.22023367350E+01  0.47787279257E+02  0.20000037445E+02 0.  0.
        -12    1    1    2    0    0  0.35674597725E+02  0.24619003860E+02  0.22023367350E+01  0.43400720743E+02  0.00000000000E+00 0.  1.
         11    1    3    3    0    0 -0.53397661663E+01 -0.58001200948E+01  0.23595673728E+01  0.82293410594E+01  0.51100000000E-03 0. -1.
        -11    1    3    3    0    0 -0.28579565675E+02 -0.15683668733E+02  0.13630352216E+01  0.32628620939E+02  0.51100000000E-03 0.  1.
        -12    1    3    3    0    0 -0.17552658841E+01 -0.31352150321E+01 -0.59249393294E+01  0.69293172592E+01  0.00000000000E+00 0.  1.
</event>
<event>
 7    1  0.2598019E-009  0.4778728E+02  0.7816164E-02  0.1312668E+00
        -11   -1    0    0    0    0  0.00000000000E+00  0.00000000000E+00  0.45593999997E+02  0.45594000000E+02  0.51100000000E-03 0.  1.
         11   -1    0    0    0    0 -0.00000000000E+00 -0.00000000000E+00 -0.45593999997E+02  0.45594000000E+02  0.51100000000E-03 0. -1.
    9900012    2    1    2    0    0 -0.10343654250E+02 -0.34840258683E+02  0.23723155410E+02  0.47787275225E+02  0.20000019063E+02 0.  0.
        -12    1    1    2    0    0  0.10343654250E+02  0.34840258683E+02 -0.23723155410E+02  0.43400724775E+02  0.00000000000E+00 0.  1.
         11    1    3    3    0    0  0.34248794675E+01 -0.13497832779E+02  0.66618806677E+01  0.15437031560E+02  0.51100000000E-03 0. -1.
        -11    1    3    3    0    0 -0.61347436575E+01 -0.12275798399E+02  0.14981343380E+02  0.20316765387E+02  0.51100000000E-03 0.  1.
         12    1    3    3    0    0 -0.76337900598E+01 -0.90666275059E+01  0.20799313620E+01  0.12033478278E+02  0.00000000000E+00 0. -1.
</event>
<event>
 7    1  0.2598019E-009  0.4778727E+02  0.7816164E-02  0.1312668E+00
        -11   -1    0    0    0    0  0.00000000000E+00  0.00000000000E+00  0.45593999997E+02  0.45594000000E+02  0.51100000000E-03 0.  1.
         11   -1    0    0    0    0 -0.00000000000E+00 -0.00000000000E+00 -0.45593999997E+02  0.45594000000E+02  0.51100000000E-03 0. -1.
    9900012    2    1    2    0    0 -0.33121685819E+02 -0.20881474297E+02 -0.18722752174E+02  0.47787268563E+02  0.19999988685E+02 0.  0.
        -12    1    1    2    0    0  0.33121685819E+02  0.20881474297E+02  0.18722752174E+02  0.43400731437E+02  0.00000000000E+00 0.  1.
         11    1    3    3    0    0 -0.21195858877E+02 -0.13539947862E+02 -0.15329936980E+02  0.29455077486E+02  0.51100000000E-03 0. -1.
        -11    1    3    3    0    0 -0.34041978392E+01 -0.64694694036E+01 -0.59136269888E+01  0.94028496594E+01  0.51100000000E-03 0.  1.
         12    1    3    3    0    0 -0.85216291030E+01 -0.87205703169E+00  0.25208117953E+01  0.89293414171E+01  0.00000000000E+00 0. -1.
</event>
<event>
 7    1  0.2598019E-009  0.4778727E+02  0.7816164E-02  0.1312668E+00
        -11   -1    0    0    0    0  0.00000000000E+00  0.00000000000E+00  0.45593999997E+02  0.45594000000E+02  0.51100000000E-03 0.  1.
         11   -1    0    0    0    0 -0.00000000000E+00 -0.00000000000E+00 -0.45593999997E+02  0.45594000000E+02  0.51100000000E-03 0. -1.
    9900012    2    1    2    0    0 -0.36573905152E+02  0.59084810668E+01 -0.22606690672E+02  0.47787272475E+02  0.20000006524E+02 0.  0.
        -12    1    1    2    0    0  0.36573905152E+02 -0.59084810668E+01  0.22606690672E+02  0.43400727525E+02  0.00000000000E+00 0.  1.
         11    1    3    3    0    0 -0.14848934499E+02  0.46602406921E+01 -0.18012083679E+02  0.23804282342E+02  0.51100000000E-03 0.  1.
        -11    1    3    3    0    0 -0.15370103654E+02  0.47933038238E+01 -0.18513413650E+01  0.16206273878E+02  0.51100000000E-03 0. -1.
         12    1    3    3    0    0 -0.63548669978E+01 -0.35450634491E+01 -0.27432656273E+01  0.77767162556E+01  0.00000000000E+00 0. -1.
</event>
<event>
 7    1  0.2598019E-009  0.4778727E+02  0.7816164E-02  0.1312668E+00
        -11   -1    0    0    0    0  0.00000000000E+00  0.00000000000E+00  0.45593999997E+02  0.45594000000E+02  0.51100000000E-03 0. -1.
         11   -1    0    0    0    0 -0.00000000000E+00 -0.00000000000E+00 -0.45593999997E+02  0.45594000000E+02  0.51100000000E-03 0.  1.
    9900012    2    1    2    0    0 -0.32283622265E+02 -0.21790517806E+02  0.19145873584E+02  0.47787269499E+02  0.19999992953E+02 0.  0.
        -12    1    1    2    0    0  0.32283622265E+02  0.21790517806E+02 -0.19145873584E+02  0.43400730501E+02  0.00000000000E+00 0.  1.
         11    1    3    3    0    0 -0.76588903450E+01 -0.66526675730E+01  0.90519717423E+01  0.13596131061E+02  0.51100000000E-03 0. -1.
        -11    1    3    3    0    0 -0.99485617807E+01 -0.14833866968E+02  0.40387298918E+01  0.18311985969E+02  0.51100000000E-03 0.  1.
        -12    1    3    3    0    0 -0.14676170139E+02 -0.30398326447E+00  0.60551719495E+01  0.15879152468E+02  0.00000000000E+00 0.  1.
</event>
<event>
 7    1  0.2598019E-009  0.4778729E+02  0.7816164E-02  0.1312668E+00
        -11   -1    0    0    0    0  0.00000000000E+00  0.00000000000E+00  0.45593999997E+02  0.45594000000E+02  0.51100000000E-03 0.  1.
         11   -1    0    0    0    0 -0.00000000000E+00 -0.00000000000E+00 -0.45593999997E+02  0.45594000000E+02  0.51100000000E-03 0. -1.
    9900012    2    1    2    0    0 -0.42016736147E+01 -0.13696875271E+02 -0.40967831769E+02  0.47787289254E+02  0.20000083027E+02 0.  0.
        -12    1    1    2    0    0  0.42016736147E+01  0.13696875271E+02  0.40967831769E+02  0.43400710746E+02  0.00000000000E+00 0.  1.
         11    1    3    3    0    0  0.54463161284E+00  0.41773987109E+00 -0.94992239165E+01  0.95239899974E+01  0.51100000000E-03 0. -1.
        -11    1    3    3    0    0  0.45509694349E+01 -0.11054643939E+02 -0.18200865978E+02  0.21775858147E+02  0.51100000000E-03 0.  1.
        -12    1    3    3    0    0 -0.92972746625E+01 -0.30599712024E+01 -0.13267741875E+02  0.16487441111E+02  0.00000000000E+00 0.  1.
</event>
<event>
 7    1  0.2598019E-009  0.4778727E+02  0.7816164E-02  0.1312668E+00
        -11   -1    0    0    0    0  0.00000000000E+00  0.00000000000E+00  0.45593999997E+02  0.45594000000E+02  0.51100000000E-03 0. -1.
         11   -1    0    0    0    0 -0.00000000000E+00 -0.00000000000E+00 -0.45593999997E+02  0.45594000000E+02  0.51100000000E-03 0.  1.
    9900012    2    1    2    0    0  0.29977495053E+02 -0.25405415985E+02  0.18426555501E+02  0.47787270529E+02  0.19999997651E+02 0.  0.
        -12    1    1    2    0    0 -0.29977495053E+02  0.25405415985E+02 -0.18426555501E+02  0.43400729471E+02  0.00000000000E+00 0.  1.
         11    1    3    3    0    0  0.12744519549E+02 -0.12125643633E+02  0.23733340570E+01  0.17750682433E+02  0.51100000000E-03 0. -1.
        -11    1    3    3    0    0  0.15290171158E+02 -0.98610941767E+01  0.18048042466E+02  0.25627375002E+02  0.51100000000E-03 0.  1.
        -12    1    3    3    0    0  0.19428043459E+01 -0.34186781753E+01 -0.19948210226E+01  0.44092130936E+01  0.00000000000E+00 0.  1.
</event>
<event>
 7    1  0.2598019E-009  0.4778727E+02  0.7816164E-02  0.1312668E+00
        -11   -1    0    0    0    0  0.00000000000E+00  0.00000000000E+00  0.45593999997E+02  0.45594000000E+02  0.51100000000E-03 0.  1.
         11   -1    0    0    0    0 -0.00000000000E+00 -0.00000000000E+00 -0.45593999997E+02  0.45594000000E+02  0.51100000000E-03 0. -1.
    9900012    2    1    2    0    0  0.20210572264E+02 -0.32477453265E+02 -0.20502949070E+02  0.47787272790E+02  0.20000007957E+02 0.  0.
        -12    1    1    2    0    0 -0.20210572264E+02  0.32477453265E+02  0.20502949070E+02  0.43400727210E+02  0.00000000000E+00 0.  1.
         11    1    3    3    0    0  0.17591049953E+02 -0.31309218468E+02 -0.13987475539E+02  0.38540390135E+02  0.51100000000E-03 0. -1.
        -11    1    3    3    0    0 -0.13346584541E+01  0.11434317350E+00 -0.43663628305E+01  0.45672214945E+01  0.51100000000E-03 0.  1.
        -12    1    3    3    0    0  0.39541807649E+01 -0.12825779705E+01 -0.21491107004E+01  0.46796611602E+01  0.00000000000E+00 0.  1.
</event>
<event>
 7    1  0.2598019E-009  0.4778727E+02  0.7816164E-02  0.1312668E+00
        -11   -1    0    0    0    0  0.00000000000E+00  0.00000000000E+00  0.45593999997E+02  0.45594000000E+02  0.51100000000E-03 0.  1.
         11   -1    0    0    0    0 -0.00000000000E+00 -0.00000000000E+00 -0.45593999997E+02  0.45594000000E+02  0.51100000000E-03 0. -1.
    9900012    2    1    2    0    0 -0.16686760158E+02 -0.32983910680E+01 -0.39928638368E+02  0.47787268323E+02  0.19999987592E+02 0.  0.
        -12    1    1    2    0    0  0.16686760158E+02  0.32983910680E+01  0.39928638368E+02  0.43400731677E+02  0.00000000000E+00 0.  1.
         11    1    3    3    0    0 -0.60803881084E+01 -0.79190706924E+01 -0.16828758449E+02  0.19567572955E+02  0.51100000000E-03 0. -1.
        -11    1    3    3    0    0 -0.10100084778E+02  0.72856182261E+01 -0.22024726003E+02  0.25301788499E+02  0.51100000000E-03 0.  1.
        -12    1    3    3    0    0 -0.50628727191E+00 -0.26649386017E+01 -0.10751539157E+01  0.29179068688E+01  0.00000000000E+00 0.  1.
</event>
<event>
 7    1  0.2598019E-009  0.4778727E+02  0.7816164E-02  0.1312668E+00
        -11   -1    0    0    0    0  0.00000000000E+00  0.00000000000E+00  0.45593999997E+02  0.45594000000E+02  0.51100000000E-03 0. -1.
         11   -1    0    0    0    0 -0.00000000000E+00 -0.00000000000E+00 -0.45593999997E+02  0.45594000000E+02  0.51100000000E-03 0.  1.
    9900012    2    1    2    0    0 -0.42520671598E+02  0.86719193184E+01  0.64343245229E+00  0.47787266099E+02  0.19999977453E+02 0.  0.
        -12    1    1    2    0    0  0.42520671598E+02 -0.86719193184E+01 -0.64343245229E+00  0.43400733901E+02  0.00000000000E+00 0.  1.
         11    1    3    3    0    0 -0.18453861174E+02  0.43841880604E+01  0.44047442974E+01  0.19472233302E+02  0.51100000000E-03 0. -1.
        -11    1    3    3    0    0 -0.35327299782E+01 -0.40304106615E+01 -0.30110535637E+01  0.61474250726E+01  0.51100000000E-03 0.  1.
        -12    1    3    3    0    0 -0.20534080446E+02  0.83181419194E+01 -0.75025828143E+00  0.22167607725E+02  0.00000000000E+00 0.  1.
</event>
<event>
 7    1  0.2598019E-009  0.4778728E+02  0.7816164E-02  0.1312668E+00
        -11   -1    0    0    0    0  0.00000000000E+00  0.00000000000E+00  0.45593999997E+02  0.45594000000E+02  0.51100000000E-03 0. -1.
         11   -1    0    0    0    0 -0.00000000000E+00 -0.00000000000E+00 -0.45593999997E+02  0.45594000000E+02  0.51100000000E-03 0.  1.
    9900012    2    1    2    0    0 -0.35301177743E+02  0.25185533071E+02 -0.17714036710E+01  0.47787284602E+02  0.20000061814E+02 0.  0.
        -12    1    1    2    0    0  0.35301177743E+02 -0.25185533071E+02  0.17714036710E+01  0.43400715398E+02  0.00000000000E+00 0.  1.
         11    1    3    3    0    0 -0.29265005585E+02  0.20109305844E+02  0.31550345913E+01  0.35647986997E+02  0.51100000000E-03 0. -1.
        -11    1    3    3    0    0 -0.44639075171E+01  0.67441856530E+01 -0.18392210578E+01  0.82941693258E+01  0.51100000000E-03 0.  1.
         12    1    3    3    0    0 -0.15722646407E+01 -0.16679584263E+01 -0.30872172045E+01  0.38451282787E+01  0.00000000000E+00 0. -1.
</event>
<event>
 7    1  0.2598019E-009  0.4778728E+02  0.7816164E-02  0.1312668E+00
        -11   -1    0    0    0    0  0.00000000000E+00  0.00000000000E+00  0.45593999997E+02  0.45594000000E+02  0.51100000000E-03 0. -1.
         11   -1    0    0    0    0 -0.00000000000E+00 -0.00000000000E+00 -0.45593999997E+02  0.45594000000E+02  0.51100000000E-03 0.  1.
    9900012    2    1    2    0    0 -0.22547985290E+02  0.36893000989E+02  0.37573551633E+01  0.47787275577E+02  0.20000020665E+02 0.  0.
        -12    1    1    2    0    0  0.22547985290E+02 -0.36893000989E+02 -0.37573551633E+01  0.43400724423E+02  0.00000000000E+00 0.  1.
         11    1    3    3    0    0 -0.18981880034E+01  0.36012753083E+01  0.25839113124E+01  0.48217112599E+01  0.51100000000E-03 0. -1.
        -11    1    3    3    0    0 -0.98919562504E+01  0.29398903063E+02  0.37327830769E+01  0.31242278559E+02  0.51100000000E-03 0.  1.
        -12    1    3    3    0    0 -0.10757841036E+02  0.38928226175E+01 -0.25593392259E+01  0.11723285758E+02  0.00000000000E+00 0.  1.
</event>
<event>
 7    1  0.2598019E-009  0.4778727E+02  0.7816164E-02  0.1312668E+00
        -11   -1    0    0    0    0  0.00000000000E+00  0.00000000000E+00  0.45593999997E+02  0.45594000000E+02  0.51100000000E-03 0. -1.
         11   -1    0    0    0    0 -0.00000000000E+00 -0.00000000000E+00 -0.45593999997E+02  0.45594000000E+02  0.51100000000E-03 0.  1.
    9900012    2    1    2    0    0 -0.29498869937E+02 -0.73359609107E+01  0.30977795268E+02  0.47787269019E+02  0.19999990766E+02 0.  0.
        -12    1    1    2    0    0  0.29498869937E+02  0.73359609107E+01 -0.30977795268E+02  0.43400730981E+02  0.00000000000E+00 0.  1.
         11    1    3    3    0    0  0.39424672199E+00  0.81576215358E+00  0.27632710396E+01  0.29080174463E+01  0.51100000000E-03 0. -1.
        -11    1    3    3    0    0 -0.21243699970E+02  0.18472496204E+01  0.20460203004E+02  0.29552106977E+02  0.51100000000E-03 0.  1.
        -12    1    3    3    0    0 -0.86494166889E+01 -0.99989726846E+01  0.77543212241E+01  0.15327144596E+02  0.00000000000E+00 0.  1.
</event>
<event>
 7    1  0.2598019E-009  0.4778727E+02  0.7816164E-02  0.1312668E+00
        -11   -1    0    0    0    0  0.00000000000E+00  0.00000000000E+00  0.45593999997E+02  0.45594000000E+02  0.51100000000E-03 0.  1.
         11   -1    0    0    0    0 -0.00000000000E+00 -0.00000000000E+00 -0.45593999997E+02  0.45594000000E+02  0.51100000000E-03 0. -1.
    9900012    2    1    2    0    0  0.22428587956E+02 -0.15054348664E+02 -0.33969812135E+02  0.47787272957E+02  0.20000008719E+02 0.  0.
        -12    1    1    2    0    0 -0.22428587956E+02  0.15054348664E+02  0.33969812135E+02  0.43400727043E+02  0.00000000000E+00 0.  1.
         11    1    3    3    0    0  0.20277764475E+00 -0.67338891475E+01 -0.11139580061E+01  0.68284174246E+01  0.51100000000E-03 0. -1.
        -11    1    3    3    0    0  0.92274268705E+01 -0.61448267372E+00 -0.10729775713E+02  0.14165136170E+02  0.51100000000E-03 0.  1.
         12    1    3    3    0    0  0.12998383441E+02 -0.77059768431E+01 -0.22126078416E+02  0.26793719362E+02  0.00000000000E+00 0. -1.
</event>
<event>
 7    1  0.2598019E-009  0.4778724E+02  0.7816164E-02  0.1312668E+00
        -11   -1    0    0    0    0  0.00000000000E+00  0.00000000000E+00  0.45593999997E+02  0.45594000000E+02  0.51100000000E-03 0.  1.
         11   -1    0    0    0    0 -0.00000000000E+00 -0.00000000000E+00 -0.45593999997E+02  0.45594000000E+02  0.51100000000E-03 0. -1.
    9900012    2    1    2    0    0 -0.27548998833E+02  0.24832206430E+02 -0.22539738138E+02  0.47787244151E+02  0.19999877383E+02 0.  0.
        -12    1    1    2    0    0  0.27548998833E+02 -0.24832206430E+02  0.22539738138E+02  0.43400755849E+02  0.00000000000E+00 0.  1.
         11    1    3    3    0    0 -0.24411686270E+02  0.21017456683E+02 -0.18182815593E+02  0.36990251353E+02  0.51100000000E-03 0. -1.
        -11    1    3    3    0    0 -0.41313895944E+01  0.47825448578E+01 -0.10106502990E+00  0.63207064240E+01  0.51100000000E-03 0.  1.
         12    1    3    3    0    0  0.99407703164E+00 -0.96779511053E+00 -0.42558575146E+01  0.44762863744E+01  0.00000000000E+00 0. -1.
</event>
<event>
 7    1  0.2598019E-009  0.4778727E+02  0.7816164E-02  0.1312668E+00
        -11   -1    0    0    0    0  0.00000000000E+00  0.00000000000E+00  0.45593999997E+02  0.45594000000E+02  0.51100000000E-03 0.  1.
         11   -1    0    0    0    0 -0.00000000000E+00 -0.00000000000E+00 -0.45593999997E+02  0.45594000000E+02  0.51100000000E-03 0. -1.
    9900012    2    1    2    0    0  0.41586809244E+02  0.14110104063E+01 -0.12335703955E+02  0.47787271371E+02  0.20000001490E+02 0.  0.
        -12    1    1    2    0    0 -0.41586809244E+02 -0.14110104063E+01  0.12335703955E+02  0.43400728629E+02  0.00000000000E+00 0.  1.
         11    1    3    3    0    0  0.30216779794E+02  0.39800649647E+01 -0.19769860216E+01  0.30541826603E+02  0.51100000000E-03 0. -1.
        -11    1    3    3    0    0  0.56230100755E+01 -0.41938777817E+00 -0.53636124726E+00  0.56640808668E+01  0.51100000000E-03 0.  1.
         12    1    3    3    0    0  0.57470193743E+01 -0.21496667803E+01 -0.98223566862E+01  0.11581363902E+02  0.00000000000E+00 0. -1.
</event>
<event>
 7    1  0.2598019E-009  0.4778727E+02  0.7816164E-02  0.1312668E+00
        -11   -1    0    0    0    0  0.00000000000E+00  0.00000000000E+00  0.45593999997E+02  0.45594000000E+02  0.51100000000E-03 0. -1.
         11   -1    0    0    0    0 -0.00000000000E+00 -0.00000000000E+00 -0.45593999997E+02  0.45594000000E+02  0.51100000000E-03 0.  1.
    9900012    2    1    2    0    0  0.43303177110E+02 -0.21375831070E+01 -0.19720533907E+01  0.47787269546E+02  0.19999993167E+02 0.  0.
        -12    1    1    2    0    0 -0.43303177110E+02  0.21375831070E+01  0.19720533907E+01  0.43400730454E+02  0.00000000000E+00 0.  1.
         11    1    3    3    0    0  0.24031318236E+02 -0.18472082845E+01  0.82872162431E+01  0.25487141620E+02  0.51100000000E-03 0. -1.
        -11    1    3    3    0    0  0.77293040271E+01  0.20878769623E+01 -0.44760392417E+01  0.91725840692E+01  0.51100000000E-03 0.  1.
        -12    1    3    3    0    0  0.11542554847E+02 -0.23782517848E+01 -0.57832303922E+01  0.13127543857E+02  0.00000000000E+00 0.  1.
</event>
<event>
 7    1  0.2598019E-009  0.4778727E+02  0.7816164E-02  0.1312668E+00
        -11   -1    0    0    0    0  0.00000000000E+00  0.00000000000E+00  0.45593999997E+02  0.45594000000E+02  0.51100000000E-03 0.  1.
         11   -1    0    0    0    0 -0.00000000000E+00 -0.00000000000E+00 -0.45593999997E+02  0.45594000000E+02  0.51100000000E-03 0. -1.
    9900012    2    1    2    0    0  0.84251151634E+01 -0.15012752913E+02 -0.39840407017E+02  0.47787270204E+02  0.19999996167E+02 0.  0.
        -12    1    1    2    0    0 -0.84251151634E+01  0.15012752913E+02  0.39840407017E+02  0.43400729796E+02  0.00000000000E+00 0.  1.
         11    1    3    3    0    0  0.98019862429E+01 -0.30962900110E+01 -0.11711856934E+02  0.15583117122E+02  0.51100000000E-03 0. -1.
        -11    1    3    3    0    0 -0.35897532182E+01 -0.84933954294E+01 -0.26039585788E+02  0.27623977309E+02  0.51100000000E-03 0.  1.
        -12    1    3    3    0    0  0.22128821387E+01 -0.34230674728E+01 -0.20889642951E+01  0.45801757727E+01  0.00000000000E+00 0.  1.
</event>
<event>
 7    1  0.2598019E-009  0.4778726E+02  0.7816164E-02  0.1312668E+00
        -11   -1    0    0    0    0  0.00000000000E+00  0.00000000000E+00  0.45593999997E+02  0.45594000000E+02  0.51100000000E-03 0.  1.
         11   -1    0    0    0    0 -0.00000000000E+00 -0.00000000000E+00 -0.45593999997E+02  0.45594000000E+02  0.51100000000E-03 0. -1.
    9900012    2    1    2    0    0 -0.11023624072E+02  0.17700849267E+02 -0.38062898141E+02  0.47787256143E+02  0.19999932059E+02 0.  0.
        -12    1    1    2    0    0  0.11023624072E+02 -0.17700849267E+02  0.38062898141E+02  0.43400743857E+02  0.00000000000E+00 0.  1.
         11    1    3    3    0    0  0.19645159466E+01  0.27119145280E+01  0.10936751577E+01  0.35227729026E+01  0.51100000000E-03 0.  1.
        -11    1    3    3    0    0 -0.76527709073E+01  0.12416549157E+02 -0.30024361483E+02  0.33379602728E+02  0.51100000000E-03 0. -1.
        -12    1    3    3    0    0 -0.53353691112E+01  0.25723855820E+01 -0.91322118154E+01  0.10884880513E+02  0.00000000000E+00 0.  1.
</event>
<event>
 7    1  0.2598019E-009  0.4778724E+02  0.7816164E-02  0.1312668E+00
        -11   -1    0    0    0    0  0.00000000000E+00  0.00000000000E+00  0.45593999997E+02  0.45594000000E+02  0.51100000000E-03 0. -1.
         11   -1    0    0    0    0 -0.00000000000E+00 -0.00000000000E+00 -0.45593999997E+02  0.45594000000E+02  0.51100000000E-03 0.  1.
    9900012    2    1    2    0    0 -0.12283222872E+02 -0.40129127759E+02 -0.11063528032E+02  0.47787238355E+02  0.19999850957E+02 0.  0.
        -12    1    1    2    0    0  0.12283222872E+02  0.40129127759E+02  0.11063528032E+02  0.43400761645E+02  0.00000000000E+00 0.  1.
         11    1    3    3    0    0 -0.11103279010E+02 -0.20912282098E+02 -0.98048665115E+01  0.25626973190E+02  0.51100000000E-03 0. -1.
        -11    1    3    3    0    0  0.37248527870E+01 -0.10677184333E+02  0.25658655985E+01  0.11595708693E+02  0.51100000000E-03 0.  1.
        -12    1    3    3    0    0 -0.49047966498E+01 -0.85396613280E+01 -0.38245271188E+01  0.10564556472E+02  0.00000000000E+00 0.  1.
</event>
<event>
 7    1  0.2598019E-009  0.4778728E+02  0.7816164E-02  0.1312668E+00
        -11   -1    0    0    0    0  0.00000000000E+00  0.00000000000E+00  0.45593999997E+02  0.45594000000E+02  0.51100000000E-03 0.  1.
         11   -1    0    0    0    0 -0.00000000000E+00 -0.00000000000E+00 -0.45593999997E+02  0.45594000000E+02  0.51100000000E-03 0. -1.
    9900012    2    1    2    0    0 -0.32607029488E+00  0.19007097705E+02 -0.39015981190E+02  0.47787275661E+02  0.20000021047E+02 0.  0.
        -12    1    1    2    0    0  0.32607029488E+00 -0.19007097705E+02  0.39015981190E+02  0.43400724339E+02  0.00000000000E+00 0.  1.
         11    1    3    3    0    0  0.15985812686E+01  0.51393741557E+01 -0.78704854274E+01  0.95348397946E+01  0.51100000000E-03 0. -1.
        -11    1    3    3    0    0 -0.31786838347E+00  0.16371230273E+02 -0.16272628072E+02  0.23084987451E+02  0.51100000000E-03 0.  1.
        -12    1    3    3    0    0 -0.16067831800E+01 -0.25035067242E+01 -0.14872867690E+02  0.15167448415E+02  0.00000000000E+00 0.  1.
</event>
<event>
 7    1  0.2598019E-009  0.4778727E+02  0.7816164E-02  0.1312668E+00
        -11   -1    0    0    0    0  0.00000000000E+00  0.00000000000E+00  0.45593999997E+02  0.45594000000E+02  0.51100000000E-03 0.  1.
         11   -1    0    0    0    0 -0.00000000000E+00 -0.00000000000E+00 -0.45593999997E+02  0.45594000000E+02  0.51100000000E-03 0. -1.
    9900012    2    1    2    0    0 -0.80253311391E+01  0.18063381621E+02 -0.38638469124E+02  0.47787274295E+02  0.20000014819E+02 0.  0.
        -12    1    1    2    0    0  0.80253311391E+01 -0.18063381621E+02  0.38638469124E+02  0.43400725705E+02  0.00000000000E+00 0.  1.
         11    1    3    3    0    0 -0.11084785999E+02  0.12030442178E+02 -0.18788871690E+02  0.24912360773E+02  0.51100000000E-03 0. -1.
        -11    1    3    3    0    0 -0.30278968069E+01  0.15275860154E+01 -0.35926809800E+01  0.49405500699E+01  0.51100000000E-03 0.  1.
         12    1    3    3    0    0  0.60873516669E+01  0.45053534285E+01 -0.16256916454E+02  0.17934363452E+02  0.00000000000E+00 0. -1.
</event>
<event>
 7    1  0.2598019E-009  0.4778729E+02  0.7816164E-02  0.1312668E+00
        -11   -1    0    0    0    0  0.00000000000E+00  0.00000000000E+00  0.45593999997E+02  0.45594000000E+02  0.51100000000E-03 0.  1.
         11   -1    0    0    0    0 -0.00000000000E+00 -0.00000000000E+00 -0.45593999997E+02  0.45594000000E+02  0.51100000000E-03 0. -1.
    9900012    2    1    2    0    0 -0.16629388766E+02 -0.35579090116E+02 -0.18471966755E+02  0.47787288255E+02  0.20000078468E+02 0.  0.
        -12    1    1    2    0    0  0.16629388766E+02  0.35579090116E+02  0.18471966755E+02  0.43400711745E+02  0.00000000000E+00 0.  1.
         11    1    3    3    0    0 -0.10652547841E+02 -0.31504314387E+02 -0.14667368661E+02  0.36347356220E+02  0.51100000000E-03 0. -1.
        -11    1    3    3    0    0 -0.29910055440E+01 -0.21580025169E+01 -0.61610042067E+01  0.71806031867E+01  0.51100000000E-03 0.  1.
         12    1    3    3    0    0 -0.29858353805E+01 -0.19167732121E+01  0.23564061128E+01  0.42593288479E+01  0.00000000000E+00 0. -1.
</event>
<event>
 7    1  0.2598019E-009  0.4778733E+02  0.7816164E-02  0.1312667E+00
        -11   -1    0    0    0    0  0.00000000000E+00  0.00000000000E+00  0.45593999997E+02  0.45594000000E+02  0.51100000000E-03 0.  1.
         11   -1    0    0    0    0 -0.00000000000E+00 -0.00000000000E+00 -0.45593999997E+02  0.45594000000E+02  0.51100000000E-03 0. -1.
    9900012    2    1    2    0    0  0.22686722722E+02  0.11736829613E+02 -0.35088140933E+02  0.47787329598E+02  0.20000266966E+02 0.  0.
        -12    1    1    2    0    0 -0.22686722722E+02 -0.11736829613E+02  0.35088140933E+02  0.43400670402E+02  0.00000000000E+00 0.  1.
         11    1    3    3    0    0  0.50182940314E+01  0.18976375644E+01 -0.69860580473E+01  0.88084794722E+01  0.51100000000E-03 0. -1.
        -11    1    3    3    0    0  0.18508604889E+02  0.50838605727E+01 -0.28242861646E+02  0.34147815853E+02  0.51100000000E-03 0.  1.
        -12    1    3    3    0    0 -0.84017619806E+00  0.47553314756E+01  0.14077876073E+00  0.48310342730E+01  0.00000000000E+00 0.  1.
</event>
<event>
 7    1  0.2598019E-009  0.4778727E+02  0.7816164E-02  0.1312668E+00
        -11   -1    0    0    0    0  0.00000000000E+00  0.00000000000E+00  0.45593999997E+02  0.45594000000E+02  0.51100000000E-03 0. -1.
         11   -1    0    0    0    0 -0.00000000000E+00 -0.00000000000E+00 -0.45593999997E+02  0.45594000000E+02  0.51100000000E-03 0.  1.
    9900012    2    1    2    0    0 -0.25205690451E+02 -0.13824651342E+02  0.32514240401E+02  0.47787266773E+02  0.19999980524E+02 0.  0.
        -12    1    1    2    0    0  0.25205690451E+02  0.13824651342E+02 -0.32514240401E+02  0.43400733227E+02  0.00000000000E+00 0.  1.
         11    1    3    3    0    0 -0.17300316179E+02 -0.14148882998E+02  0.17814865807E+02  0.28580785048E+02  0.51100000000E-03 0. -1.
        -11    1    3    3    0    0 -0.53174028639E+01  0.42792243516E+01  0.51464353995E+01  0.85482355987E+01  0.51100000000E-03 0.  1.
         12    1    3    3    0    0 -0.25879714078E+01 -0.39549926957E+01  0.95529391947E+01  0.10658246126E+02  0.00000000000E+00 0. -1.
</event>
<event>
 7    1  0.2598019E-009  0.4778727E+02  0.7816164E-02  0.1312668E+00
        -11   -1    0    0    0    0  0.00000000000E+00  0.00000000000E+00  0.45593999997E+02  0.45594000000E+02  0.51100000000E-03 0. -1.
         11   -1    0    0    0    0 -0.00000000000E+00 -0.00000000000E+00 -0.45593999997E+02  0.45594000000E+02  0.51100000000E-03 0.  1.
    9900012    2    1    2    0    0  0.15766093535E+02 -0.37488870256E+02  0.15153812085E+02  0.47787272827E+02  0.20000008127E+02 0.  0.
        -12    1    1    2    0    0 -0.15766093535E+02  0.37488870256E+02 -0.15153812085E+02  0.43400727173E+02  0.00000000000E+00 0.  1.
         11    1    3    3    0    0 -0.35574509423E+00 -0.72780690049E+01  0.42844275430E+01  0.84529972581E+01  0.51100000000E-03 0.  1.
        -11    1    3    3    0    0  0.10544497091E+02 -0.26044036330E+02  0.14350856358E+02  0.31550361737E+02  0.51100000000E-03 0. -1.
        -12    1    3    3    0    0  0.55773415381E+01 -0.41667649210E+01 -0.34814718156E+01  0.77839138319E+01  0.00000000000E+00 0.  1.
</event>
<event>
 7    1  0.2598019E-009  0.4778727E+02  0.7816164E-02  0.1312668E+00
        -11   -1    0    0    0    0  0.00000000000E+00  0.00000000000E+00  0.45593999997E+02  0.45594000000E+02  0.51100000000E-03 0. -1.
         11   -1    0    0    0    0 -0.00000000000E+00 -0.00000000000E+00 -0.45593999997E+02  0.45594000000E+02  0.51100000000E-03 0.  1.
    9900012    2    1    2    0    0  0.41269884196E+02 -0.44225517283E+01  0.12683108305E+02  0.47787267960E+02  0.19999985938E+02 0.  0.
        -12    1    1    2    0    0 -0.41269884196E+02  0.44225517283E+01 -0.12683108305E+02  0.43400732040E+02  0.00000000000E+00 0.  1.
         11    1    3    3    0    0  0.25684025361E+02  0.68335950743E+01  0.77354380241E+01  0.27680393459E+02  0.51100000000E-03 0. -1.
        -11    1    3    3    0    0  0.95744693164E+01 -0.87584030577E+01  0.31322920174E+01  0.13348832921E+02  0.51100000000E-03 0.  1.
         12    1    3    3    0    0  0.60113895182E+01 -0.24977437449E+01  0.18153782636E+01  0.67580415798E+01  0.00000000000E+00 0. -1.
</event>
<event>
 7    1  0.2598019E-009  0.4778729E+02  0.7816164E-02  0.1312668E+00
        -11   -1    0    0    0    0  0.00000000000E+00  0.00000000000E+00  0.45593999997E+02  0.45594000000E+02  0.51100000000E-03 0.  1.
         11   -1    0    0    0    0 -0.00000000000E+00 -0.00000000000E+00 -0.45593999997E+02  0.45594000000E+02  0.51100000000E-03 0. -1.
    9900012    2    1    2    0    0  0.38712449261E+02 -0.23636571969E+01 -0.19477707027E+02  0.47787289474E+02  0.20000084027E+02 0.  0.
        -12    1    1    2    0    0 -0.38712449261E+02  0.23636571969E+01  0.19477707027E+02  0.43400710526E+02  0.00000000000E+00 0.  1.
         11    1    3    3    0    0  0.92984113972E+01 -0.15256646219E+01 -0.43237578931E+01  0.10367400331E+02  0.51100000000E-03 0. -1.
        -11    1    3    3    0    0  0.28392850333E+02 -0.10235487702E+01 -0.70808831701E+01  0.29280377540E+02  0.51100000000E-03 0.  1.
        -12    1    3    3    0    0  0.10211875303E+01  0.18555619531E+00 -0.80730659640E+01  0.81395116028E+01  0.00000000000E+00 0.  1.
</event>
<event>
 7    1  0.2598019E-009  0.4778727E+02  0.7816164E-02  0.1312668E+00
        -11   -1    0    0    0    0  0.00000000000E+00  0.00000000000E+00  0.45593999997E+02  0.45594000000E+02  0.51100000000E-03 0.  1.
         11   -1    0    0    0    0 -0.00000000000E+00 -0.00000000000E+00 -0.45593999997E+02  0.45594000000E+02  0.51100000000E-03 0. -1.
    9900012    2    1    2    0    0  0.25671775056E+02 -0.21298820686E+01 -0.34929168769E+02  0.47787271169E+02  0.20000000568E+02 0.  0.
        -12    1    1    2    0    0 -0.25671775056E+02  0.21298820686E+01  0.34929168769E+02  0.43400728831E+02  0.00000000000E+00 0.  1.
         11    1    3    3    0    0 -0.20686361240E+01 -0.65011058209E+00 -0.10565317480E+02  0.10785538137E+02  0.51100000000E-03 0. -1.
        -11    1    3    3    0    0  0.10816954048E+02 -0.12682045289E+01 -0.86728408699E+01  0.13922392274E+02  0.51100000000E-03 0.  1.
         12    1    3    3    0    0  0.16923457132E+02 -0.21156695762E+00 -0.15691010419E+02  0.23079340758E+02  0.00000000000E+00 0. -1.
</event>
<event>
 7    1  0.2598019E-009  0.4778728E+02  0.7816164E-02  0.1312668E+00
        -11   -1    0    0    0    0  0.00000000000E+00  0.00000000000E+00  0.45593999997E+02  0.45594000000E+02  0.51100000000E-03 0.  1.
         11   -1    0    0    0    0 -0.00000000000E+00 -0.00000000000E+00 -0.45593999997E+02  0.45594000000E+02  0.51100000000E-03 0. -1.
    9900012    2    1    2    0    0 -0.13869821209E+02  0.39554182235E+02  0.11256888734E+02  0.47787276312E+02  0.20000024018E+02 0.  0.
        -12    1    1    2    0    0  0.13869821209E+02 -0.39554182235E+02 -0.11256888734E+02  0.43400723688E+02  0.00000000000E+00 0.  1.
         11    1    3    3    0    0  0.21118941788E+01  0.87463567154E+01  0.47976084481E+01  0.10196857354E+02  0.51100000000E-03 0. -1.
        -11    1    3    3    0    0 -0.17553867225E+02  0.25092697184E+02  0.76047002229E+01  0.31553338528E+02  0.51100000000E-03 0.  1.
         12    1    3    3    0    0  0.15721518370E+01  0.57151283357E+01 -0.11454199369E+01  0.60370804305E+01  0.00000000000E+00 0. -1.
</event>
<event>
 7    1  0.2598019E-009  0.4778726E+02  0.7816164E-02  0.1312668E+00
        -11   -1    0    0    0    0  0.00000000000E+00  0.00000000000E+00  0.45593999997E+02  0.45594000000E+02  0.51100000000E-03 0. -1.
         11   -1    0    0    0    0 -0.00000000000E+00 -0.00000000000E+00 -0.45593999997E+02  0.45594000000E+02  0.51100000000E-03 0.  1.
    9900012    2    1    2    0    0  0.45608722082E+01 -0.26935980461E+02  0.33723513614E+02  0.47787263034E+02  0.19999963476E+02 0.  0.
        -12    1    1    2    0    0 -0.45608722082E+01  0.26935980461E+02 -0.33723513614E+02  0.43400736966E+02  0.00000000000E+00 0.  1.
         11    1    3    3    0    0 -0.35786123525E+01 -0.13345572928E+02  0.10538635032E+02  0.17377387944E+02  0.51100000000E-03 0. -1.
        -11    1    3    3    0    0  0.89625344663E+01 -0.11499176428E+02  0.23947686307E+02  0.28036579005E+02  0.51100000000E-03 0.  1.
         12    1    3    3    0    0 -0.82304990556E+00 -0.20912311055E+01 -0.76280772459E+00  0.23732960852E+01  0.00000000000E+00 0. -1.
</event>
<event>
 7    1  0.2598019E-009  0.4778727E+02  0.7816164E-02  0.1312668E+00
        -11   -1    0    0    0    0  0.00000000000E+00  0.00000000000E+00  0.45593999997E+02  0.45594000000E+02  0.51100000000E-03 0.  1.
         11   -1    0    0    0    0 -0.00000000000E+00 -0.00000000000E+00 -0.45593999997E+02  0.45594000000E+02  0.51100000000E-03 0. -1.
    9900012    2    1    2    0    0 -0.94259493376E+01 -0.93767856087E+01 -0.41314049880E+02  0.47787270205E+02  0.19999996174E+02 0.  0.
        -12    1    1    2    0    0  0.94259493376E+01  0.93767856087E+01  0.41314049880E+02  0.43400729795E+02  0.00000000000E+00 0.  1.
         11    1    3    3    0    0 -0.34629997938E+01 -0.45623260195E+01 -0.78854332976E+01  0.97461399966E+01  0.51100000000E-03 0. -1.
        -11    1    3    3    0    0 -0.15632444923E+01 -0.94008652527E+01 -0.10202047506E+02  0.13960722561E+02  0.51100000000E-03 0.  1.
        -12    1    3    3    0    0 -0.43997050514E+01  0.45864056635E+01 -0.23226569076E+02  0.24080407648E+02  0.00000000000E+00 0.  1.
</event>
<event>
 7    1  0.2598019E-009  0.4778727E+02  0.7816164E-02  0.1312668E+00
        -11   -1    0    0    0    0  0.00000000000E+00  0.00000000000E+00  0.45593999997E+02  0.45594000000E+02  0.51100000000E-03 0. -1.
         11   -1    0    0    0    0 -0.00000000000E+00 -0.00000000000E+00 -0.45593999997E+02  0.45594000000E+02  0.51100000000E-03 0.  1.
    9900012    2    1    2    0    0  0.19815619928E+02  0.25292366548E+02  0.29176373596E+02  0.47787269880E+02  0.19999994691E+02 0.  0.
        -12    1    1    2    0    0 -0.19815619928E+02 -0.25292366548E+02 -0.29176373596E+02  0.43400730120E+02  0.00000000000E+00 0.  1.
         11    1    3    3    0    0  0.62850730099E+01  0.20806756051E+00  0.97419027401E+01  0.11595262141E+02  0.51100000000E-03 0. -1.
        -11    1    3    3    0    0  0.11827684673E+02  0.13660080161E+02  0.74417145563E+01  0.19541520681E+02  0.51100000000E-03 0.  1.
         12    1    3    3    0    0  0.17028622453E+01  0.11424218827E+02  0.11992756299E+02  0.16650487058E+02  0.00000000000E+00 0. -1.
</event>
<event>
 7    1  0.2598019E-009  0.4778727E+02  0.7816164E-02  0.1312668E+00
        -11   -1    0    0    0    0  0.00000000000E+00  0.00000000000E+00  0.45593999997E+02  0.45594000000E+02  0.51100000000E-03 0.  1.
         11   -1    0    0    0    0 -0.00000000000E+00 -0.00000000000E+00 -0.45593999997E+02  0.45594000000E+02  0.51100000000E-03 0. -1.
    9900012    2    1    2    0    0  0.32625073262E+02 -0.26341904714E+02  0.11195184959E+02  0.47787268260E+02  0.19999987304E+02 0.  0.
        -12    1    1    2    0    0 -0.32625073262E+02  0.26341904714E+02 -0.11195184959E+02  0.43400731740E+02  0.00000000000E+00 0.  1.
         11    1    3    3    0    0  0.35677842644E+01 -0.47518825495E+00 -0.34095981921E+01  0.49578471666E+01  0.51100000000E-03 0. -1.
        -11    1    3    3    0    0  0.13864083508E+02 -0.11877456899E+02  0.12378585960E+02  0.22057111881E+02  0.51100000000E-03 0.  1.
         12    1    3    3    0    0  0.15193205490E+02 -0.13989259559E+02  0.22261971914E+01  0.20772309212E+02  0.00000000000E+00 0. -1.
</event>
<event>
 7    1  0.2598019E-009  0.4778727E+02  0.7816164E-02  0.1312668E+00
        -11   -1    0    0    0    0  0.00000000000E+00  0.00000000000E+00  0.45593999997E+02  0.45594000000E+02  0.51100000000E-03 0. -1.
         11   -1    0    0    0    0 -0.00000000000E+00 -0.00000000000E+00 -0.45593999997E+02  0.45594000000E+02  0.51100000000E-03 0.  1.
    9900012    2    1    2    0    0 -0.28210945140E+00  0.30474598544E+02  0.30900526513E+02  0.47787270963E+02  0.19999999628E+02 0.  0.
        -12    1    1    2    0    0  0.28210945140E+00 -0.30474598544E+02 -0.30900526513E+02  0.43400729037E+02  0.00000000000E+00 0.  1.
         11    1    3    3    0    0  0.61643715807E+01  0.13198203997E+02  0.15374491891E+02  0.21179401949E+02  0.51100000000E-03 0. -1.
        -11    1    3    3    0    0 -0.55091569591E+01  0.58004311204E+01  0.12260592155E+02  0.14639601492E+02  0.51100000000E-03 0.  1.
        -12    1    3    3    0    0 -0.93732407292E+00  0.11475963426E+02  0.32654424667E+01  0.11968267522E+02  0.00000000000E+00 0.  1.
</event>
<event>
 7    1  0.2598019E-009  0.4778728E+02  0.7816164E-02  0.1312668E+00
        -11   -1    0    0    0    0  0.00000000000E+00  0.00000000000E+00  0.45593999997E+02  0.45594000000E+02  0.51100000000E-03 0. -1.
         11   -1    0    0    0    0 -0.00000000000E+00 -0.00000000000E+00 -0.45593999997E+02  0.45594000000E+02  0.51100000000E-03 0.  1.
    9900012    2    1    2    0    0 -0.10597321282E+02  0.16348102396E+01  0.42055284178E+02  0.47787277078E+02  0.20000027508E+02 0.  0.
        -12    1    1    2    0    0  0.10597321282E+02 -0.16348102396E+01 -0.42055284178E+02  0.43400722922E+02  0.00000000000E+00 0.  1.
         11    1    3    3    0    0 -0.10885046889E+02 -0.23689324226E+01  0.16138995040E+02  0.19610284235E+02  0.51100000000E-03 0. -1.
        -11    1    3    3    0    0  0.21805730113E+00  0.64024047546E+01  0.24639764833E+02  0.25458914881E+02  0.51100000000E-03 0.  1.
        -12    1    3    3    0    0  0.69668305940E-01 -0.23986620924E+01  0.12765243045E+01  0.27180779618E+01  0.00000000000E+00 0.  1.
</event>
<event>
 7    1  0.2598019E-009  0.4778727E+02  0.7816164E-02  0.1312668E+00
        -11   -1    0    0    0    0  0.00000000000E+00  0.00000000000E+00  0.45593999997E+02  0.45594000000E+02  0.51100000000E-03 0.  1.
         11   -1    0    0    0    0 -0.00000000000E+00 -0.00000000000E+00 -0.45593999997E+02  0.45594000000E+02  0.51100000000E-03 0. -1.
    9900012    2    1    2    0    0  0.14089714709E+02 -0.30362528796E+02 -0.27626443373E+02  0.47787267415E+02  0.19999983452E+02 0.  0.
        -12    1    1    2    0    0 -0.14089714709E+02  0.30362528796E+02  0.27626443373E+02  0.43400732585E+02  0.00000000000E+00 0.  1.
         11    1    3    3    0    0 -0.41472840260E+01 -0.97658714154E+01 -0.94208161111E+01  0.14188868375E+02  0.51100000000E-03 0. -1.
        -11    1    3    3    0    0  0.15008645986E+02 -0.19809087233E+02 -0.16751187254E+02  0.29971013764E+02  0.51100000000E-03 0.  1.
        -12    1    3    3    0    0  0.32283527490E+01 -0.78757014742E+00 -0.14544400076E+01  0.36273852766E+01  0.00000000000E+00 0.  1.
</event>
<event>
 7    1  0.2598019E-009  0.4778733E+02  0.7816164E-02  0.1312667E+00
        -11   -1    0    0    0    0  0.00000000000E+00  0.00000000000E+00  0.45593999997E+02  0.45594000000E+02  0.51100000000E-03 0. -1.
         11   -1    0    0    0    0 -0.00000000000E+00 -0.00000000000E+00 -0.45593999997E+02  0.45594000000E+02  0.51100000000E-03 0.  1.
    9900012    2    1    2    0    0 -0.31200383296E+02 -0.24229864702E+02  0.17974088450E+02  0.47787330455E+02  0.20000270876E+02 0.  0.
        -12    1    1    2    0    0  0.31200383296E+02  0.24229864702E+02 -0.17974088450E+02  0.43400669545E+02  0.00000000000E+00 0.  1.
         11    1    3    3    0    0 -0.17903899637E+02 -0.14294415132E+02  0.17078370199E+02  0.28575350481E+02  0.51100000000E-03 0. -1.
        -11    1    3    3    0    0 -0.33012272783E+01 -0.73162195131E+01  0.31735602599E+01  0.86311444485E+01  0.51100000000E-03 0.  1.
         12    1    3    3    0    0 -0.99952563806E+01 -0.26192300570E+01 -0.22778420092E+01  0.10580835526E+02  0.00000000000E+00 0. -1.
</event>
<event>
 7    1  0.2598019E-009  0.4778728E+02  0.7816164E-02  0.1312668E+00
        -11   -1    0    0    0    0  0.00000000000E+00  0.00000000000E+00  0.45593999997E+02  0.45594000000E+02  0.51100000000E-03 0.  1.
         11   -1    0    0    0    0 -0.00000000000E+00 -0.00000000000E+00 -0.45593999997E+02  0.45594000000E+02  0.51100000000E-03 0. -1.
    9900012    2    1    2    0    0 -0.68328424439E+01 -0.25584907049E+02 -0.34385275660E+02  0.47787281265E+02  0.20000046597E+02 0.  0.
        -12    1    1    2    0    0  0.68328424439E+01  0.25584907049E+02  0.34385275660E+02  0.43400718735E+02  0.00000000000E+00 0.  1.
         11    1    3    3    0    0 -0.88750233081E+01 -0.20324407593E+02 -0.19415932663E+02  0.29475854935E+02  0.51100000000E-03 0. -1.
        -11    1    3    3    0    0  0.40748337654E+01 -0.65162996135E+01 -0.87338979293E+01  0.11633890328E+02  0.51100000000E-03 0.  1.
        -12    1    3    3    0    0 -0.20326529012E+01  0.12558001580E+01 -0.62354450679E+01  0.66775360012E+01  0.00000000000E+00 0.  1.
</event>
<event>
 7    1  0.2598019E-009  0.4778728E+02  0.7816164E-02  0.1312668E+00
        -11   -1    0    0    0    0  0.00000000000E+00  0.00000000000E+00  0.45593999997E+02  0.45594000000E+02  0.51100000000E-03 0.  1.
         11   -1    0    0    0    0 -0.00000000000E+00 -0.00000000000E+00 -0.45593999997E+02  0.45594000000E+02  0.51100000000E-03 0. -1.
    9900012    2    1    2    0    0  0.42635687616E+00 -0.60860156619E+01 -0.42969771521E+02  0.47787278447E+02  0.20000033750E+02 0.  0.
        -12    1    1    2    0    0 -0.42635687616E+00  0.60860156619E+01  0.42969771521E+02  0.43400721553E+02  0.00000000000E+00 0.  1.
         11    1    3    3    0    0  0.53018357105E+01  0.66370939777E+00 -0.49784390501E+01  0.73030697451E+01  0.51100000000E-03 0. -1.
        -11    1    3    3    0    0 -0.65629990486E+01 -0.46995351568E+01 -0.12662543916E+02  0.15016610999E+02  0.51100000000E-03 0.  1.
         12    1    3    3    0    0  0.16875202143E+01 -0.20501899029E+01 -0.25328788554E+02  0.25467597703E+02  0.00000000000E+00 0. -1.
</event>
<event>
 7    1  0.2598019E-009  0.4778726E+02  0.7816164E-02  0.1312668E+00
        -11   -1    0    0    0    0  0.00000000000E+00  0.00000000000E+00  0.45593999997E+02  0.45594000000E+02  0.51100000000E-03 0. -1.
         11   -1    0    0    0    0 -0.00000000000E+00 -0.00000000000E+00 -0.45593999997E+02  0.45594000000E+02  0.51100000000E-03 0.  1.
    9900012    2    1    2    0    0  0.28036301319E+02  0.24305310112E+01  0.33040615623E+02  0.47787263216E+02  0.19999964306E+02 0.  0.
        -12    1    1    2    0    0 -0.28036301319E+02 -0.24305310112E+01 -0.33040615623E+02  0.43400736784E+02  0.00000000000E+00 0.  1.
         11    1    3    3    0    0  0.24838467060E+02 -0.47916452668E+01  0.29222538166E+02  0.38650563352E+02  0.51100000000E-03 0. -1.
        -11    1    3    3    0    0  0.90075747920E+00  0.26104794582E+01  0.64538623831E-01  0.27622694534E+01  0.51100000000E-03 0.  1.
         12    1    3    3    0    0  0.22970767795E+01  0.46116968198E+01  0.37535388334E+01  0.63744304108E+01  0.00000000000E+00 0. -1.
</event>
<event>
 7    1  0.2598019E-009  0.4778727E+02  0.7816164E-02  0.1312668E+00
        -11   -1    0    0    0    0  0.00000000000E+00  0.00000000000E+00  0.45593999997E+02  0.45594000000E+02  0.51100000000E-03 0.  1.
         11   -1    0    0    0    0 -0.00000000000E+00 -0.00000000000E+00 -0.45593999997E+02  0.45594000000E+02  0.51100000000E-03 0. -1.
    9900012    2    1    2    0    0  0.37708256291E+02  0.20622002924E+01 -0.21388268071E+02  0.47787271047E+02  0.20000000012E+02 0.  0.
        -12    1    1    2    0    0 -0.37708256291E+02 -0.20622002924E+01  0.21388268071E+02  0.43400728953E+02  0.00000000000E+00 0.  1.
         11    1    3    3    0    0  0.14037519071E+02 -0.14503793515E+01  0.41673181439E+00  0.14118399611E+02  0.51100000000E-03 0. -1.
        -11    1    3    3    0    0  0.15495490475E+02 -0.60957184807E+00 -0.17987049206E+02  0.23749015607E+02  0.51100000000E-03 0.  1.
        -12    1    3    3    0    0  0.81752467458E+01  0.41221514920E+01 -0.38179506790E+01  0.99198558288E+01  0.00000000000E+00 0.  1.
</event>
<event>
 7    1  0.2598019E-009  0.4778727E+02  0.7816164E-02  0.1312668E+00
        -11   -1    0    0    0    0  0.00000000000E+00  0.00000000000E+00  0.45593999997E+02  0.45594000000E+02  0.51100000000E-03 0. -1.
         11   -1    0    0    0    0 -0.00000000000E+00 -0.00000000000E+00 -0.45593999997E+02  0.45594000000E+02  0.51100000000E-03 0.  1.
    9900012    2    1    2    0    0  0.23366732031E+02 -0.26860031055E+02  0.24822526812E+02  0.47787271073E+02  0.20000000130E+02 0.  0.
        -12    1    1    2    0    0 -0.23366732031E+02  0.26860031055E+02 -0.24822526812E+02  0.43400728927E+02  0.00000000000E+00 0.  1.
         11    1    3    3    0    0  0.15942100713E+02 -0.83397134166E+01  0.14111313955E+02  0.22865488773E+02  0.51100000000E-03 0. -1.
        -11    1    3    3    0    0 -0.24519724428E+01 -0.47699428263E+01  0.11734362457E+01  0.54901253455E+01  0.51100000000E-03 0.  1.
        -12    1    3    3    0    0  0.98766037611E+01 -0.13750374812E+02  0.95377766108E+01  0.19431656955E+02  0.00000000000E+00 0.  1.
</event>
<event>
 7    1  0.2598019E-009  0.4778726E+02  0.7816164E-02  0.1312668E+00
        -11   -1    0    0    0    0  0.00000000000E+00  0.00000000000E+00  0.45593999997E+02  0.45594000000E+02  0.51100000000E-03 0.  1.
         11   -1    0    0    0    0 -0.00000000000E+00 -0.00000000000E+00 -0.45593999997E+02  0.45594000000E+02  0.51100000000E-03 0. -1.
    9900012    2    1    2    0    0  0.15949981225E+02  0.24416425333E+02 -0.32141253634E+02  0.47787263690E+02  0.19999966466E+02 0.  0.
        -12    1    1    2    0    0 -0.15949981225E+02 -0.24416425333E+02  0.32141253634E+02  0.43400736310E+02  0.00000000000E+00 0.  1.
         11    1    3    3    0    0  0.30507050021E+01  0.12267698999E+02 -0.95411573745E+01  0.15837832050E+02  0.51100000000E-03 0. -1.
        -11    1    3    3    0    0 -0.11649985920E+01  0.24933790360E-01 -0.86408006401E+01  0.87190182576E+01  0.51100000000E-03 0.  1.
        -12    1    3    3    0    0  0.14064274815E+02  0.12123792544E+02 -0.13959295620E+02  0.23230413382E+02  0.00000000000E+00 0.  1.
</event>
<event>
 7    1  0.2598019E-009  0.4778727E+02  0.7816164E-02  0.1312668E+00
        -11   -1    0    0    0    0  0.00000000000E+00  0.00000000000E+00  0.45593999997E+02  0.45594000000E+02  0.51100000000E-03 0.  1.
         11   -1    0    0    0    0 -0.00000000000E+00 -0.00000000000E+00 -0.45593999997E+02  0.45594000000E+02  0.51100000000E-03 0. -1.
    9900012    2    1    2    0    0 -0.80942677771E+01 -0.13076555761E+01 -0.42619198334E+02  0.47787271889E+02  0.20000003849E+02 0.  0.
        -12    1    1    2    0    0  0.80942677771E+01  0.13076555761E+01  0.42619198334E+02  0.43400728111E+02  0.00000000000E+00 0.  1.
         11    1    3    3    0    0 -0.35102079316E+01 -0.84182382623E+01 -0.20122436061E+02  0.22093001798E+02  0.51100000000E-03 0. -1.
        -11    1    3    3    0    0 -0.71469291169E+01  0.65164357935E+01 -0.16161238083E+02  0.18834228094E+02  0.51100000000E-03 0.  1.
         12    1    3    3    0    0  0.25628692714E+01  0.59414689270E+00 -0.63355241905E+01  0.68600419970E+01  0.00000000000E+00 0. -1.
</event>
<event>
 7    1  0.2598019E-009  0.4778727E+02  0.7816164E-02  0.1312668E+00
        -11   -1    0    0    0    0  0.00000000000E+00  0.00000000000E+00  0.45593999997E+02  0.45594000000E+02  0.51100000000E-03 0. -1.
         11   -1    0    0    0    0 -0.00000000000E+00 -0.00000000000E+00 -0.45593999997E+02  0.45594000000E+02  0.51100000000E-03 0.  1.
    9900012    2    1    2    0    0  0.33909596023E+02  0.13245426417E+02  0.23628820620E+02  0.47787272042E+02  0.20000004547E+02 0.  0.
        -12    1    1    2    0    0 -0.33909596023E+02 -0.13245426417E+02 -0.23628820620E+02  0.43400727958E+02  0.00000000000E+00 0.  1.
         11    1    3    3    0    0  0.15809041217E+02  0.53713541344E+01  0.19208472898E+02  0.25450789001E+02  0.51100000000E-03 0. -1.
        -11    1    3    3    0    0  0.39420231485E+01 -0.16201267538E+00 -0.24738121924E+01  0.46567737367E+01  0.51100000000E-03 0.  1.
        -12    1    3    3    0    0  0.14158531657E+02  0.80360849582E+01  0.68941599149E+01  0.17679709304E+02  0.00000000000E+00 0.  1.
</event>
<event>
 7    1  0.2598019E-009  0.4778727E+02  0.7816164E-02  0.1312668E+00
        -11   -1    0    0    0    0  0.00000000000E+00  0.00000000000E+00  0.45593999997E+02  0.45594000000E+02  0.51100000000E-03 0. -1.
         11   -1    0    0    0    0 -0.00000000000E+00 -0.00000000000E+00 -0.45593999997E+02  0.45594000000E+02  0.51100000000E-03 0.  1.
    9900012    2    1    2    0    0 -0.21057268792E+02  0.26703461170E+02  0.26965527141E+02  0.47787273492E+02  0.20000011158E+02 0.  0.
        -12    1    1    2    0    0  0.21057268792E+02 -0.26703461170E+02 -0.26965527141E+02  0.43400726508E+02  0.00000000000E+00 0.  1.
         11    1    3    3    0    0 -0.18810727176E+02  0.11966754358E+02  0.11846677639E+02  0.25246592604E+02  0.51100000000E-03 0. -1.
        -11    1    3    3    0    0 -0.53768351487E+00  0.28604245348E+01 -0.38535458405E+00  0.29359207240E+01  0.51100000000E-03 0.  1.
         12    1    3    3    0    0 -0.17088581013E+01  0.11876282276E+02  0.15504204087E+02  0.19604760164E+02  0.00000000000E+00 0. -1.
</event>
<event>
 7    1  0.2598019E-009  0.4778727E+02  0.7816164E-02  0.1312668E+00
        -11   -1    0    0    0    0  0.00000000000E+00  0.00000000000E+00  0.45593999997E+02  0.45594000000E+02  0.51100000000E-03 0. -1.
         11   -1    0    0    0    0 -0.00000000000E+00 -0.00000000000E+00 -0.45593999997E+02  0.45594000000E+02  0.51100000000E-03 0.  1.
    9900012    2    1    2    0    0 -0.27423361756E+02  0.21540547488E+02  0.25837711809E+02  0.47787270656E+02  0.19999998228E+02 0.  0.
        -12    1    1    2    0    0  0.27423361756E+02 -0.21540547488E+02 -0.25837711809E+02  0.43400729344E+02  0.00000000000E+00 0.  1.
         11    1    3    3    0    0 -0.20239607092E+02  0.65970323411E+01  0.12177547350E+02  0.24524583395E+02  0.51100000000E-03 0. -1.
        -11    1    3    3    0    0 -0.57943916541E+01  0.15911836399E+02  0.13296901767E+02  0.21530655101E+02  0.51100000000E-03 0.  1.
        -12    1    3    3    0    0 -0.13893630099E+01 -0.96832125165E+00  0.36326269147E+00  0.17320321598E+01  0.00000000000E+00 0.  1.
</event>
<event>
 7    1  0.2598019E-009  0.4778728E+02  0.7816164E-02  0.1312668E+00
        -11   -1    0    0    0    0  0.00000000000E+00  0.00000000000E+00  0.45593999997E+02  0.45594000000E+02  0.51100000000E-03 0. -1.
         11   -1    0    0    0    0 -0.00000000000E+00 -0.00000000000E+00 -0.45593999997E+02  0.45594000000E+02  0.51100000000E-03 0.  1.
    9900012    2    1    2    0    0 -0.32629192828E+02  0.19325923762E+02  0.21106097912E+02  0.47787275087E+02  0.20000018432E+02 0.  0.
        -12    1    1    2    0    0  0.32629192828E+02 -0.19325923762E+02 -0.21106097912E+02  0.43400724913E+02  0.00000000000E+00 0.  1.
         11    1    3    3    0    0 -0.80973868554E+01  0.24446132017E+01  0.10689580332E+02  0.13631248494E+02  0.51100000000E-03 0.  1.
        -11    1    3    3    0    0 -0.24433695773E+02  0.17603770984E+02  0.11996241494E+02  0.32416169611E+02  0.51100000000E-03 0. -1.
        -12    1    3    3    0    0 -0.98110199529E-01 -0.72246042431E+00 -0.15797239128E+01  0.17398569817E+01  0.00000000000E+00 0.  1.
</event>
<event>
 7    1  0.2598019E-009  0.4778727E+02  0.7816164E-02  0.1312668E+00
        -11   -1    0    0    0    0  0.00000000000E+00  0.00000000000E+00  0.45593999997E+02  0.45594000000E+02  0.51100000000E-03 0. -1.
         11   -1    0    0    0    0 -0.00000000000E+00 -0.00000000000E+00 -0.45593999997E+02  0.45594000000E+02  0.51100000000E-03 0.  1.
    9900012    2    1    2    0    0  0.39610231234E+02 -0.53039251466E+01  0.16926950339E+02  0.47787266272E+02  0.19999978239E+02 0.  0.
        -12    1    1    2    0    0 -0.39610231234E+02  0.53039251466E+01 -0.16926950339E+02  0.43400733728E+02  0.00000000000E+00 0.  1.
         11    1    3    3    0    0  0.20274646743E+02 -0.74901993225E+01  0.15763293178E+02  0.26751556936E+02  0.51100000000E-03 0. -1.
        -11    1    3    3    0    0  0.15833362741E+02 -0.13039221068E+01  0.20295267117E+01  0.16016072162E+02  0.51100000000E-03 0.  1.
         12    1    3    3    0    0  0.35022217503E+01  0.34901962827E+01 -0.86586955076E+00  0.50196371740E+01  0.00000000000E+00 0. -1.
</event>
<event>
 7    1  0.2598019E-009  0.4778727E+02  0.7816164E-02  0.1312668E+00
        -11   -1    0    0    0    0  0.00000000000E+00  0.00000000000E+00  0.45593999997E+02  0.45594000000E+02  0.51100000000E-03 0.  1.
         11   -1    0    0    0    0 -0.00000000000E+00 -0.00000000000E+00 -0.45593999997E+02  0.45594000000E+02  0.51100000000E-03 0. -1.
    9900012    2    1    2    0    0  0.72180030076E+01 -0.34507898419E+02 -0.25312613202E+02  0.47787274109E+02  0.20000013973E+02 0.  0.
        -12    1    1    2    0    0 -0.72180030076E+01  0.34507898419E+02  0.25312613202E+02  0.43400725891E+02  0.00000000000E+00 0.  1.
         11    1    3    3    0    0  0.10811809445E+02 -0.13828117213E+02 -0.57892842266E+01  0.18483177791E+02  0.51100000000E-03 0. -1.
        -11    1    3    3    0    0 -0.20373761093E+01 -0.75520722842E+01 -0.11273707659E+02  0.13721559016E+02  0.51100000000E-03 0.  1.
         12    1    3    3    0    0 -0.15564303278E+01 -0.13127708922E+02 -0.82496213165E+01  0.15582537302E+02  0.00000000000E+00 0. -1.
</event>
<event>
 7    1  0.2598019E-009  0.4778729E+02  0.7816164E-02  0.1312668E+00
        -11   -1    0    0    0    0  0.00000000000E+00  0.00000000000E+00  0.45593999997E+02  0.45594000000E+02  0.51100000000E-03 0.  1.
         11   -1    0    0    0    0 -0.00000000000E+00 -0.00000000000E+00 -0.45593999997E+02  0.45594000000E+02  0.51100000000E-03 0. -1.
    9900012    2    1    2    0    0 -0.30468698833E+02  0.12328046092E+02 -0.28342530400E+02  0.47787293111E+02  0.20000100609E+02 0.  0.
        -12    1    1    2    0    0  0.30468698833E+02 -0.12328046092E+02  0.28342530400E+02  0.43400706889E+02  0.00000000000E+00 0.  1.
         11    1    3    3    0    0 -0.30449051705E+01  0.16530890411E+01 -0.40881523828E+01  0.53588376576E+01  0.51100000000E-03 0. -1.
        -11    1    3    3    0    0 -0.21034519783E+02  0.13470166525E+02 -0.25091407994E+02  0.35404451191E+02  0.51100000000E-03 0.  1.
        -12    1    3    3    0    0 -0.63892738788E+01 -0.27952094734E+01  0.83702997684E+00  0.70240042626E+01  0.00000000000E+00 0.  1.
</event>
<event>
 7    1  0.2598019E-009  0.4778727E+02  0.7816164E-02  0.1312668E+00
        -11   -1    0    0    0    0  0.00000000000E+00  0.00000000000E+00  0.45593999997E+02  0.45594000000E+02  0.51100000000E-03 0.  1.
         11   -1    0    0    0    0 -0.00000000000E+00 -0.00000000000E+00 -0.45593999997E+02  0.45594000000E+02  0.51100000000E-03 0. -1.
    9900012    2    1    2    0    0  0.39834837462E+02  0.11854758100E+02 -0.12500941527E+02  0.47787272999E+02  0.20000008910E+02 0.  0.
        -12    1    1    2    0    0 -0.39834837462E+02 -0.11854758100E+02  0.12500941527E+02  0.43400727001E+02  0.00000000000E+00 0.  1.
         11    1    3    3    0    0  0.25569352349E+02  0.55525784068E+01 -0.51581782646E+01  0.26668890299E+02  0.51100000000E-03 0. -1.
        -11    1    3    3    0    0  0.13394870737E+01  0.19651798253E+01 -0.70938752553E+01  0.74819264742E+01  0.51100000000E-03 0.  1.
        -12    1    3    3    0    0  0.12925998039E+02  0.43369998675E+01 -0.24888800703E+00  0.13636456225E+02  0.00000000000E+00 0.  1.
</event>
<event>
 7    1  0.2598019E-009  0.4778727E+02  0.7816164E-02  0.1312668E+00
        -11   -1    0    0    0    0  0.00000000000E+00  0.00000000000E+00  0.45593999997E+02  0.45594000000E+02  0.51100000000E-03 0. -1.
         11   -1    0    0    0    0 -0.00000000000E+00 -0.00000000000E+00 -0.45593999997E+02  0.45594000000E+02  0.51100000000E-03 0.  1.
    9900012    2    1    2    0    0 -0.23609140193E+02  0.19648678826E+02  0.30662051508E+02  0.47787268636E+02  0.19999989019E+02 0.  0.
        -12    1    1    2    0    0  0.23609140193E+02 -0.19648678826E+02 -0.30662051508E+02  0.43400731364E+02  0.00000000000E+00 0.  1.
         11    1    3    3    0    0 -0.13857217126E+01  0.71176669865E+01  0.12674150991E+02  0.14601900959E+02  0.51100000000E-03 0.  1.
        -11    1    3    3    0    0 -0.15273638571E+02  0.13616575209E+02  0.10836402320E+02  0.23154325106E+02  0.51100000000E-03 0. -1.
         12    1    3    3    0    0 -0.69497799096E+01 -0.10855633693E+01  0.71514981963E+01  0.10031042572E+02  0.00000000000E+00 0. -1.
</event>
<event>
 7    1  0.2598019E-009  0.4778727E+02  0.7816164E-02  0.1312668E+00
        -11   -1    0    0    0    0  0.00000000000E+00  0.00000000000E+00  0.45593999997E+02  0.45594000000E+02  0.51100000000E-03 0. -1.
         11   -1    0    0    0    0 -0.00000000000E+00 -0.00000000000E+00 -0.45593999997E+02  0.45594000000E+02  0.51100000000E-03 0.  1.
    9900012    2    1    2    0    0  0.84466133946E+01  0.32792472600E+02  0.27146488902E+02  0.47787269629E+02  0.19999993544E+02 0.  0.
        -12    1    1    2    0    0 -0.84466133946E+01 -0.32792472600E+02 -0.27146488902E+02  0.43400730371E+02  0.00000000000E+00 0.  1.
         11    1    3    3    0    0  0.23382149884E+00  0.28278969897E+02  0.18795709866E+02  0.33956347279E+02  0.51100000000E-03 0. -1.
        -11    1    3    3    0    0  0.39459402028E+01 -0.93492415252E+00  0.24610517644E+01  0.47435538685E+01  0.51100000000E-03 0.  1.
         12    1    3    3    0    0  0.42668516929E+01  0.54484268562E+01  0.58897272713E+01  0.90873684809E+01  0.00000000000E+00 0. -1.
</event>
<event>
 7    1  0.2598019E-009  0.4778727E+02  0.7816164E-02  0.1312668E+00
        -11   -1    0    0    0    0  0.00000000000E+00  0.00000000000E+00  0.45593999997E+02  0.45594000000E+02  0.51100000000E-03 0. -1.
         11   -1    0    0    0    0 -0.00000000000E+00 -0.00000000000E+00 -0.45593999997E+02  0.45594000000E+02  0.51100000000E-03 0.  1.
    9900012    2    1    2    0    0  0.24060241640E+01  0.42108790046E+02  0.10231535539E+02  0.47787268774E+02  0.19999989649E+02 0.  0.
        -12    1    1    2    0    0 -0.24060241640E+01 -0.42108790046E+02 -0.10231535539E+02  0.43400731226E+02  0.00000000000E+00 0.  1.
         11    1    3    3    0    0  0.61222345668E+01  0.27632325341E+02  0.12902681469E+02  0.31104764091E+02  0.51100000000E-03 0. -1.
        -11    1    3    3    0    0 -0.51372067410E+01  0.14085702872E+02 -0.24588645465E+01  0.15193549079E+02  0.51100000000E-03 0.  1.
         12    1    3    3    0    0  0.14209963382E+01  0.39076183349E+00 -0.21228138367E+00  0.14889556036E+01  0.00000000000E+00 0. -1.
</event>
<event>
 7    1  0.2598019E-009  0.4778727E+02  0.7816164E-02  0.1312668E+00
        -11   -1    0    0    0    0  0.00000000000E+00  0.00000000000E+00  0.45593999997E+02  0.45594000000E+02  0.51100000000E-03 0.  1.
         11   -1    0    0    0    0 -0.00000000000E+00 -0.00000000000E+00 -0.45593999997E+02  0.45594000000E+02  0.51100000000E-03 0. -1.
    9900012    2    1    2    0    0 -0.20198067013E+01 -0.11655079338E+02 -0.41757665360E+02  0.47787272935E+02  0.20000008619E+02 0.  0.
        -12    1    1    2    0    0  0.20198067013E+01  0.11655079338E+02  0.41757665360E+02  0.43400727065E+02  0.00000000000E+00 0.  1.
         11    1    3    3    0    0 -0.69740864382E+01 -0.37983351608E+01 -0.11103434299E+02  0.13651061685E+02  0.51100000000E-03 0.  1.
        -11    1    3    3    0    0  0.87098253214E+01 -0.38331782647E+01 -0.19391064829E+02  0.21600178430E+02  0.51100000000E-03 0. -1.
         12    1    3    3    0    0 -0.37555455845E+01 -0.40235659128E+01 -0.11263166232E+02  0.12536032819E+02  0.00000000000E+00 0. -1.
</event>
<event>
 7    1  0.2598019E-009  0.4778727E+02  0.7816164E-02  0.1312668E+00
        -11   -1    0    0    0    0  0.00000000000E+00  0.00000000000E+00  0.45593999997E+02  0.45594000000E+02  0.51100000000E-03 0.  1.
         11   -1    0    0    0    0 -0.00000000000E+00 -0.00000000000E+00 -0.45593999997E+02  0.45594000000E+02  0.51100000000E-03 0. -1.
    9900012    2    1    2    0    0 -0.24168106680E+02  0.11935526003E+01 -0.36029178104E+02  0.47787267021E+02  0.19999981654E+02 0.  0.
        -12    1    1    2    0    0  0.24168106680E+02 -0.11935526003E+01  0.36029178104E+02  0.43400732979E+02  0.00000000000E+00 0.  1.
         11    1    3    3    0    0 -0.19283030559E+02 -0.78242409269E+01 -0.23246899288E+02  0.31200518271E+02  0.51100000000E-03 0. -1.
        -11    1    3    3    0    0 -0.31390527702E+01  0.36943991074E+01 -0.46967931254E+01  0.67499705912E+01  0.51100000000E-03 0.  1.
         12    1    3    3    0    0 -0.17460233513E+01  0.53233944198E+01 -0.80854856904E+01  0.98367781587E+01  0.00000000000E+00 0. -1.
</event>
<event>
 7    1  0.2598019E-009  0.4778727E+02  0.7816164E-02  0.1312668E+00
        -11   -1    0    0    0    0  0.00000000000E+00  0.00000000000E+00  0.45593999997E+02  0.45594000000E+02  0.51100000000E-03 0.  1.
         11   -1    0    0    0    0 -0.00000000000E+00 -0.00000000000E+00 -0.45593999997E+02  0.45594000000E+02  0.51100000000E-03 0. -1.
    9900012    2    1    2    0    0  0.12246425747E+02 -0.32673842572E+02 -0.25808295302E+02  0.47787273757E+02  0.20000012369E+02 0.  0.
        -12    1    1    2    0    0 -0.12246425747E+02  0.32673842572E+02  0.25808295302E+02  0.43400726243E+02  0.00000000000E+00 0.  1.
         11    1    3    3    0    0  0.88508096979E+01 -0.23228122409E+02 -0.78684159017E+01  0.26072868504E+02  0.51100000000E-03 0.  1.
        -11    1    3    3    0    0 -0.88430216822E+00 -0.59359994155E+01 -0.12904059799E+02  0.14231403267E+02  0.51100000000E-03 0. -1.
         12    1    3    3    0    0  0.42799182173E+01 -0.35097207472E+01 -0.50358196011E+01  0.74830019861E+01  0.00000000000E+00 0. -1.
</event>
<event>
 7    1  0.2598019E-009  0.4778727E+02  0.7816164E-02  0.1312668E+00
        -11   -1    0    0    0    0  0.00000000000E+00  0.00000000000E+00  0.45593999997E+02  0.45594000000E+02  0.51100000000E-03 0.  1.
         11   -1    0    0    0    0 -0.00000000000E+00 -0.00000000000E+00 -0.45593999997E+02  0.45594000000E+02  0.51100000000E-03 0. -1.
    9900012    2    1    2    0    0  0.22207815907E+02 -0.15632971481E+02 -0.33853306799E+02  0.47787271136E+02  0.20000000416E+02 0.  0.
        -12    1    1    2    0    0 -0.22207815907E+02  0.15632971481E+02  0.33853306799E+02  0.43400728864E+02  0.00000000000E+00 0.  1.
         11    1    3    3    0    0  0.11912628212E+02  0.41907932722E+00 -0.19441458990E+02  0.22804750960E+02  0.51100000000E-03 0. -1.
        -11    1    3    3    0    0  0.36036686734E+01 -0.11339227907E+02 -0.10675936874E+02  0.15985623098E+02  0.51100000000E-03 0.  1.
        -12    1    3    3    0    0  0.66915190219E+01 -0.47128229012E+01 -0.37359109351E+01  0.89968970780E+01  0.00000000000E+00 0.  1.
</event>
<event>
 7    1  0.2598019E-009  0.4778729E+02  0.7816164E-02  0.1312668E+00
        -11   -1    0    0    0    0  0.00000000000E+00  0.00000000000E+00  0.45593999997E+02  0.45594000000E+02  0.51100000000E-03 0. -1.
         11   -1    0    0    0    0 -0.00000000000E+00 -0.00000000000E+00 -0.45593999997E+02  0.45594000000E+02  0.51100000000E-03 0.  1.
    9900012    2    1    2    0    0 -0.22552422709E+02  0.27635384168E+02  0.24724395084E+02  0.47787286406E+02  0.20000070041E+02 0.  0.
        -12    1    1    2    0    0  0.22552422709E+02 -0.27635384168E+02 -0.24724395084E+02  0.43400713594E+02  0.00000000000E+00 0.  1.
         11    1    3    3    0    0 -0.10949670750E+02  0.13376444466E+01  0.54865834794E+01  0.12320194022E+02  0.51100000000E-03 0.  1.
        -11    1    3    3    0    0 -0.97457025101E+01  0.19106477664E+02  0.17865128410E+02  0.27914136553E+02  0.51100000000E-03 0. -1.
        -12    1    3    3    0    0 -0.18570494486E+01  0.71912620576E+01  0.13726831948E+01  0.75529558312E+01  0.00000000000E+00 0.  1.
</event>
<event>
 7    1  0.2598019E-009  0.4778727E+02  0.7816164E-02  0.1312668E+00
        -11   -1    0    0    0    0  0.00000000000E+00  0.00000000000E+00  0.45593999997E+02  0.45594000000E+02  0.51100000000E-03 0. -1.
         11   -1    0    0    0    0 -0.00000000000E+00 -0.00000000000E+00 -0.45593999997E+02  0.45594000000E+02  0.51100000000E-03 0.  1.
    9900012    2    1    2    0    0 -0.10725283579E+02 -0.25064547946E+02  0.33769214251E+02  0.47787273017E+02  0.20000008993E+02 0.  0.
        -12    1    1    2    0    0  0.10725283579E+02  0.25064547946E+02 -0.33769214251E+02  0.43400726983E+02  0.00000000000E+00 0.  1.
         11    1    3    3    0    0 -0.46445301582E+01 -0.72996353775E+01  0.12325131066E+02  0.15058724816E+02  0.51100000000E-03 0.  1.
        -11    1    3    3    0    0 -0.96656596852E+01 -0.17327582449E+02  0.13489244389E+02  0.23992286367E+02  0.51100000000E-03 0. -1.
        -12    1    3    3    0    0  0.35849062647E+01 -0.43733011931E+00  0.79548387952E+01  0.87362618331E+01  0.00000000000E+00 0.  1.
</event>
<event>
 7    1  0.2598019E-009  0.4778727E+02  0.7816164E-02  0.1312668E+00
        -11   -1    0    0    0    0  0.00000000000E+00  0.00000000000E+00  0.45593999997E+02  0.45594000000E+02  0.51100000000E-03 0.  1.
         11   -1    0    0    0    0 -0.00000000000E+00 -0.00000000000E+00 -0.45593999997E+02  0.45594000000E+02  0.51100000000E-03 0. -1.
    9900012    2    1    2    0    0  0.42013143486E+02 -0.74608333840E+01 -0.79281123030E+01  0.47787271607E+02  0.20000002564E+02 0.  0.
        -12    1    1    2    0    0 -0.42013143486E+02  0.74608333840E+01  0.79281123030E+01  0.43400728393E+02  0.00000000000E+00 0.  1.
         11    1    3    3    0    0  0.26584120113E+02 -0.54053466936E+01 -0.18872582868E+01  0.27193656598E+02  0.51100000000E-03 0. -1.
        -11    1    3    3    0    0  0.34290683431E+00 -0.11648733812E+00  0.29184672883E+01  0.29408512324E+01  0.51100000000E-03 0.  1.
        -12    1    3    3    0    0  0.15086116539E+02 -0.19389993523E+01 -0.89593213046E+01  0.17652763776E+02  0.00000000000E+00 0.  1.
</event>
<event>
 7    1  0.2598019E-009  0.4778727E+02  0.7816164E-02  0.1312668E+00
        -11   -1    0    0    0    0  0.00000000000E+00  0.00000000000E+00  0.45593999997E+02  0.45594000000E+02  0.51100000000E-03 0.  1.
         11   -1    0    0    0    0 -0.00000000000E+00 -0.00000000000E+00 -0.45593999997E+02  0.45594000000E+02  0.51100000000E-03 0. -1.
    9900012    2    1    2    0    0 -0.19150521951E+02 -0.37906749647E+02 -0.89419795980E+01  0.47787272368E+02  0.20000006037E+02 0.  0.
        -12    1    1    2    0    0  0.19150521951E+02  0.37906749647E+02  0.89419795980E+01  0.43400727632E+02  0.00000000000E+00 0.  1.
         11    1    3    3    0    0 -0.15034656349E+02 -0.23016232142E+02  0.95081550712E+00  0.27508033080E+02  0.51100000000E-03 0.  1.
        -11    1    3    3    0    0 -0.34019935638E+01 -0.13649727252E+02 -0.11468929188E+02  0.18150067527E+02  0.51100000000E-03 0. -1.
        -12    1    3    3    0    0 -0.71387203892E+00 -0.12407902528E+01  0.15761340832E+01  0.21291717609E+01  0.00000000000E+00 0.  1.
</event>
<event>
 7    1  0.2598019E-009  0.4778727E+02  0.7816164E-02  0.1312668E+00
        -11   -1    0    0    0    0  0.00000000000E+00  0.00000000000E+00  0.45593999997E+02  0.45594000000E+02  0.51100000000E-03 0.  1.
         11   -1    0    0    0    0 -0.00000000000E+00 -0.00000000000E+00 -0.45593999997E+02  0.45594000000E+02  0.51100000000E-03 0. -1.
    9900012    2    1    2    0    0  0.37648681625E+02  0.30864121672E+00 -0.21589470931E+02  0.47787265645E+02  0.19999975380E+02 0.  0.
        -12    1    1    2    0    0 -0.37648681625E+02 -0.30864121672E+00  0.21589470931E+02  0.43400734355E+02  0.00000000000E+00 0.  1.
         11    1    3    3    0    0  0.23503783101E+02  0.19060274422E+01 -0.12490487669E+02  0.26684696797E+02  0.51100000000E-03 0. -1.
        -11    1    3    3    0    0 -0.16008017692E+01 -0.27995451127E+01 -0.11550858504E+01  0.34255280944E+01  0.51100000000E-03 0.  1.
        -12    1    3    3    0    0  0.15745700294E+02  0.12021588872E+01 -0.79438974108E+01  0.17677040754E+02  0.00000000000E+00 0.  1.
</event>
<event>
 7    1  0.2598019E-009  0.4778727E+02  0.7816164E-02  0.1312668E+00
        -11   -1    0    0    0    0  0.00000000000E+00  0.00000000000E+00  0.45593999997E+02  0.45594000000E+02  0.51100000000E-03 0.  1.
         11   -1    0    0    0    0 -0.00000000000E+00 -0.00000000000E+00 -0.45593999997E+02  0.45594000000E+02  0.51100000000E-03 0. -1.
    9900012    2    1    2    0    0  0.22553564894E+02  0.43249030089E+01 -0.36827377219E+02  0.47787265118E+02  0.19999972978E+02 0.  0.
        -12    1    1    2    0    0 -0.22553564894E+02 -0.43249030089E+01  0.36827377219E+02  0.43400734882E+02  0.00000000000E+00 0.  1.
         11    1    3    3    0    0  0.12138300401E+02  0.55465145568E+01 -0.97593588387E+01  0.16533216431E+02  0.51100000000E-03 0. -1.
        -11    1    3    3    0    0 -0.14563435412E+01 -0.32531313789E+01 -0.55935650092E+01  0.66326291960E+01  0.51100000000E-03 0.  1.
         12    1    3    3    0    0  0.11871608034E+02  0.20315198310E+01 -0.21474453371E+02  0.24621419491E+02  0.00000000000E+00 0. -1.
</event>
<event>
 7    1  0.2598019E-009  0.4778727E+02  0.7816164E-02  0.1312668E+00
        -11   -1    0    0    0    0  0.00000000000E+00  0.00000000000E+00  0.45593999997E+02  0.45594000000E+02  0.51100000000E-03 0.  1.
         11   -1    0    0    0    0 -0.00000000000E+00 -0.00000000000E+00 -0.45593999997E+02  0.45594000000E+02  0.51100000000E-03 0. -1.
    9900012    2    1    2    0    0  0.27192104298E+02  0.25242071977E+02 -0.22517780312E+02  0.47787272310E+02  0.20000005768E+02 0.  0.
        -12    1    1    2    0    0 -0.27192104298E+02 -0.25242071977E+02  0.22517780312E+02  0.43400727690E+02  0.00000000000E+00 0.  1.
         11    1    3    3    0    0  0.15958346883E+02  0.10222694540E+02 -0.21591141503E+02  0.28728900267E+02  0.51100000000E-03 0. -1.
        -11    1    3    3    0    0  0.39350591243E+01  0.67935793767E+01  0.92954316278E+00  0.79057866030E+01  0.51100000000E-03 0.  1.
         12    1    3    3    0    0  0.72986982910E+01  0.82257980607E+01 -0.18561819721E+01  0.11152585440E+02  0.00000000000E+00 0. -1.
</event>
<event>
 7    1  0.2598019E-009  0.4778727E+02  0.7816164E-02  0.1312668E+00
        -11   -1    0    0    0    0  0.00000000000E+00  0.00000000000E+00  0.45593999997E+02  0.45594000000E+02  0.51100000000E-03 0. -1.
         11   -1    0    0    0    0 -0.00000000000E+00 -0.00000000000E+00 -0.45593999997E+02  0.45594000000E+02  0.51100000000E-03 0.  1.
    9900012    2    1    2    0    0  0.35798075536E+02  0.54060624639E+01  0.23935233801E+02  0.47787272580E+02  0.20000007003E+02 0.  0.
        -12    1    1    2    0    0 -0.35798075536E+02 -0.54060624639E+01 -0.23935233801E+02  0.43400727420E+02  0.00000000000E+00 0.  1.
         11    1    3    3    0    0  0.14263193542E+02  0.10392077555E+02  0.10077288648E+02  0.20322049913E+02  0.51100000000E-03 0. -1.
        -11    1    3    3    0    0  0.84697511425E+01 -0.19602293929E+01  0.77223734980E+00  0.87278596732E+01  0.51100000000E-03 0.  1.
         12    1    3    3    0    0  0.13065130852E+02 -0.30257856981E+01  0.13085707804E+02  0.18737362994E+02  0.00000000000E+00 0. -1.
</event>
<event>
 7    1  0.2598019E-009  0.4778727E+02  0.7816164E-02  0.1312668E+00
        -11   -1    0    0    0    0  0.00000000000E+00  0.00000000000E+00  0.45593999997E+02  0.45594000000E+02  0.51100000000E-03 0.  1.
         11   -1    0    0    0    0 -0.00000000000E+00 -0.00000000000E+00 -0.45593999997E+02  0.45594000000E+02  0.51100000000E-03 0. -1.
    9900012    2    1    2    0    0 -0.20973705264E+02  0.27070097761E+02 -0.26663392655E+02  0.47787274048E+02  0.20000013697E+02 0.  0.
        -12    1    1    2    0    0  0.20973705264E+02 -0.27070097761E+02  0.26663392655E+02  0.43400725952E+02  0.00000000000E+00 0.  1.
         11    1    3    3    0    0 -0.19708873186E+02  0.24614528289E+02 -0.25838442543E+02  0.40766895865E+02  0.51100000000E-03 0. -1.
        -11    1    3    3    0    0  0.24599928906E+01  0.17914890931E+01 -0.10777151124E+01  0.32283847846E+01  0.51100000000E-03 0.  1.
        -12    1    3    3    0    0 -0.37248249683E+01  0.66408037836E+00  0.25276500035E+00  0.37919933991E+01  0.00000000000E+00 0.  1.
</event>
<event>
 7    1  0.2598019E-009  0.4778727E+02  0.7816164E-02  0.1312668E+00
        -11   -1    0    0    0    0  0.00000000000E+00  0.00000000000E+00  0.45593999997E+02  0.45594000000E+02  0.51100000000E-03 0.  1.
         11   -1    0    0    0    0 -0.00000000000E+00 -0.00000000000E+00 -0.45593999997E+02  0.45594000000E+02  0.51100000000E-03 0. -1.
    9900012    2    1    2    0    0  0.42733792236E+02 -0.79365632663E+00  0.75376657879E+01  0.47787270804E+02  0.19999998903E+02 0.  0.
        -12    1    1    2    0    0 -0.42733792236E+02  0.79365632663E+00 -0.75376657879E+01  0.43400729196E+02  0.00000000000E+00 0.  1.
         11    1    3    3    0    0  0.28702995226E+02 -0.10069202357E+00  0.26857926364E+01  0.28828554528E+02  0.51100000000E-03 0. -1.
        -11    1    3    3    0    0 -0.37158481295E+00 -0.38813431234E+00  0.45173813174E+01  0.45492260601E+01  0.51100000000E-03 0.  1.
        -12    1    3    3    0    0  0.14402381823E+02 -0.30482999072E+00  0.33449183401E+00  0.14409490216E+02  0.00000000000E+00 0.  1.
</event>
<event>
 7    1  0.2598019E-009  0.4778727E+02  0.7816164E-02  0.1312668E+00
        -11   -1    0    0    0    0  0.00000000000E+00  0.00000000000E+00  0.45593999997E+02  0.45594000000E+02  0.51100000000E-03 0. -1.
         11   -1    0    0    0    0 -0.00000000000E+00 -0.00000000000E+00 -0.45593999997E+02  0.45594000000E+02  0.51100000000E-03 0.  1.
    9900012    2    1    2    0    0 -0.37350578478E+02 -0.21962026721E+02  0.24954126342E+01  0.47787269424E+02  0.19999992611E+02 0.  0.
        -12    1    1    2    0    0  0.37350578478E+02  0.21962026721E+02 -0.24954126342E+01  0.43400730576E+02  0.00000000000E+00 0.  1.
         11    1    3    3    0    0 -0.12963879289E+02 -0.90073195457E+01  0.62070121897E+01  0.16962339821E+02  0.51100000000E-03 0. -1.
        -11    1    3    3    0    0 -0.10284114465E+02 -0.55535907258E+01 -0.82005056808E+01  0.14277733502E+02  0.51100000000E-03 0.  1.
        -12    1    3    3    0    0 -0.14102584724E+02 -0.74011164498E+01  0.44889061253E+01  0.16547196101E+02  0.00000000000E+00 0.  1.
</event>
<event>
 7    1  0.2598019E-009  0.4778727E+02  0.7816164E-02  0.1312668E+00
        -11   -1    0    0    0    0  0.00000000000E+00  0.00000000000E+00  0.45593999997E+02  0.45594000000E+02  0.51100000000E-03 0.  1.
         11   -1    0    0    0    0 -0.00000000000E+00 -0.00000000000E+00 -0.45593999997E+02  0.45594000000E+02  0.51100000000E-03 0. -1.
    9900012    2    1    2    0    0 -0.13918880356E+02  0.19085574960E+02 -0.36409189856E+02  0.47787268349E+02  0.19999987709E+02 0.  0.
        -12    1    1    2    0    0  0.13918880356E+02 -0.19085574960E+02  0.36409189856E+02  0.43400731651E+02  0.00000000000E+00 0.  1.
         11    1    3    3    0    0  0.14112727647E+01  0.22730562926E+01  0.13605150132E+01  0.30015790990E+01  0.51100000000E-03 0. -1.
        -11    1    3    3    0    0 -0.15654555299E+01 -0.35006910707E+00 -0.55055310808E+01  0.57344635441E+01  0.51100000000E-03 0.  1.
         12    1    3    3    0    0 -0.13764697591E+02  0.17162587774E+02 -0.32264173788E+02  0.39051225706E+02  0.00000000000E+00 0. -1.
</event>
<event>
 7    1  0.2598019E-009  0.4778726E+02  0.7816164E-02  0.1312668E+00
        -11   -1    0    0    0    0  0.00000000000E+00  0.00000000000E+00  0.45593999997E+02  0.45594000000E+02  0.51100000000E-03 0. -1.
         11   -1    0    0    0    0 -0.00000000000E+00 -0.00000000000E+00 -0.45593999997E+02  0.45594000000E+02  0.51100000000E-03 0.  1.
    9900012    2    1    2    0    0 -0.32538812353E+02  0.16223284714E+02  0.23699259826E+02  0.47787260461E+02  0.19999951744E+02 0.  0.
        -12    1    1    2    0    0  0.32538812353E+02 -0.16223284714E+02 -0.23699259826E+02  0.43400739539E+02  0.00000000000E+00 0.  1.
         11    1    3    3    0    0 -0.19743568241E+02 -0.21720732136E+00  0.66517396085E+01  0.20835097936E+02  0.51100000000E-03 0. -1.
        -11    1    3    3    0    0 -0.58982945138E+01  0.79526079516E+01  0.89125381613E+01  0.13321681130E+02  0.51100000000E-03 0.  1.
         12    1    3    3    0    0 -0.68969495979E+01  0.84878840841E+01  0.81349820565E+01  0.13630481394E+02  0.00000000000E+00 0. -1.
</event>
<event>
 7    1  0.2598019E-009  0.4778727E+02  0.7816164E-02  0.1312668E+00
        -11   -1    0    0    0    0  0.00000000000E+00  0.00000000000E+00  0.45593999997E+02  0.45594000000E+02  0.51100000000E-03 0.  1.
         11   -1    0    0    0    0 -0.00000000000E+00 -0.00000000000E+00 -0.45593999997E+02  0.45594000000E+02  0.51100000000E-03 0. -1.
    9900012    2    1    2    0    0 -0.10301138970E+02  0.17637053976E+01 -0.42123619716E+02  0.47787268914E+02  0.19999990287E+02 0.  0.
        -12    1    1    2    0    0  0.10301138970E+02 -0.17637053976E+01  0.42123619716E+02  0.43400731086E+02  0.00000000000E+00 0.  1.
         11    1    3    3    0    0 -0.11735387618E+02 -0.16999386033E+01 -0.11379741589E+02  0.16434951557E+02  0.51100000000E-03 0. -1.
        -11    1    3    3    0    0  0.28790487312E+01  0.35159370722E+01 -0.19886644980E+02  0.20399249592E+02  0.51100000000E-03 0.  1.
         12    1    3    3    0    0 -0.14448000833E+01 -0.52293071349E-01 -0.10857233148E+02  0.10953067765E+02  0.00000000000E+00 0. -1.
</event>
<event>
 7    1  0.2598019E-009  0.4778728E+02  0.7816164E-02  0.1312668E+00
        -11   -1    0    0    0    0  0.00000000000E+00  0.00000000000E+00  0.45593999997E+02  0.45594000000E+02  0.51100000000E-03 0. -1.
         11   -1    0    0    0    0 -0.00000000000E+00 -0.00000000000E+00 -0.45593999997E+02  0.45594000000E+02  0.51100000000E-03 0.  1.
    9900012    2    1    2    0    0 -0.22086785573E+00 -0.16431252846E+02  0.40169483223E+02  0.47787283012E+02  0.20000054563E+02 0.  0.
        -12    1    1    2    0    0  0.22086785573E+00  0.16431252846E+02 -0.40169483223E+02  0.43400716988E+02  0.00000000000E+00 0.  1.
         11    1    3    3    0    0  0.11823020783E+01 -0.44055142923E+01  0.10551403500E+02  0.11495151607E+02  0.51100000000E-03 0. -1.
        -11    1    3    3    0    0 -0.36748011434E+01 -0.15197849963E+02  0.17057398872E+02  0.23139439567E+02  0.51100000000E-03 0.  1.
        -12    1    3    3    0    0  0.22716312094E+01  0.31721114089E+01  0.12560680851E+02  0.13152691838E+02  0.00000000000E+00 0.  1.
</event>
<event>
 7    1  0.2598019E-009  0.4778729E+02  0.7816164E-02  0.1312668E+00
        -11   -1    0    0    0    0  0.00000000000E+00  0.00000000000E+00  0.45593999997E+02  0.45594000000E+02  0.51100000000E-03 0.  1.
         11   -1    0    0    0    0 -0.00000000000E+00 -0.00000000000E+00 -0.45593999997E+02  0.45594000000E+02  0.51100000000E-03 0. -1.
    9900012    2    1    2    0    0  0.69580225107E+01  0.27444281730E+02 -0.32894061445E+02  0.47787286235E+02  0.20000069262E+02 0.  0.
        -12    1    1    2    0    0 -0.69580225107E+01 -0.27444281730E+02  0.32894061445E+02  0.43400713765E+02  0.00000000000E+00 0.  1.
         11    1    3    3    0    0  0.11220456771E+02  0.18514767204E+02 -0.18839793567E+02  0.28699008287E+02  0.51100000000E-03 0. -1.
        -11    1    3    3    0    0 -0.39225981031E+01  0.21011145659E+00 -0.62470706900E+01  0.73794861048E+01  0.51100000000E-03 0.  1.
         12    1    3    3    0    0 -0.33983615752E+00  0.87194030693E+01 -0.78071971878E+01  0.11708791843E+02  0.00000000000E+00 0. -1.
</event>
<event>
 7    1  0.2598019E-009  0.4778725E+02  0.7816164E-02  0.1312668E+00
        -11   -1    0    0    0    0  0.00000000000E+00  0.00000000000E+00  0.45593999997E+02  0.45594000000E+02  0.51100000000E-03 0.  1.
         11   -1    0    0    0    0 -0.00000000000E+00 -0.00000000000E+00 -0.45593999997E+02  0.45594000000E+02  0.51100000000E-03 0. -1.
    9900012    2    1    2    0    0  0.20403165378E+02  0.31790808368E+02 -0.21370076368E+02  0.47787253255E+02  0.19999918889E+02 0.  0.
        -12    1    1    2    0    0 -0.20403165378E+02 -0.31790808368E+02  0.21370076368E+02  0.43400746745E+02  0.00000000000E+00 0.  1.
         11    1    3    3    0    0  0.13212369287E+01  0.10095613589E+02 -0.11121427220E+02  0.15078236781E+02  0.51100000000E-03 0. -1.
        -11    1    3    3    0    0  0.11849992471E+02  0.49936929220E+01 -0.44562851009E+01  0.13609473455E+02  0.51100000000E-03 0.  1.
        -12    1    3    3    0    0  0.72319359776E+01  0.16701501857E+02 -0.57923640469E+01  0.19099543018E+02  0.00000000000E+00 0.  1.
</event>
<event>
 7    1  0.2598019E-009  0.4778727E+02  0.7816164E-02  0.1312668E+00
        -11   -1    0    0    0    0  0.00000000000E+00  0.00000000000E+00  0.45593999997E+02  0.45594000000E+02  0.51100000000E-03 0. -1.
         11   -1    0    0    0    0 -0.00000000000E+00 -0.00000000000E+00 -0.45593999997E+02  0.45594000000E+02  0.51100000000E-03 0.  1.
    9900012    2    1    2    0    0 -0.32033661326E+01  0.39625393627E+02  0.17412349177E+02  0.47787270990E+02  0.19999999753E+02 0.  0.
        -12    1    1    2    0    0  0.32033661326E+01 -0.39625393627E+02 -0.17412349177E+02  0.43400729010E+02  0.00000000000E+00 0.  1.
         11    1    3    3    0    0  0.47912996974E+01  0.22741562521E+02  0.12012295998E+02  0.26161622160E+02  0.51100000000E-03 0. -1.
        -11    1    3    3    0    0 -0.86206005495E+01  0.91209767094E+01  0.58037065627E+01  0.13827146491E+02  0.51100000000E-03 0.  1.
         12    1    3    3    0    0  0.62593471954E+00  0.77628543975E+01 -0.40365338321E+00  0.77985023385E+01  0.00000000000E+00 0. -1.
</event>
<event>
 7    1  0.2598019E-009  0.4778727E+02  0.7816164E-02  0.1312668E+00
        -11   -1    0    0    0    0  0.00000000000E+00  0.00000000000E+00  0.45593999997E+02  0.45594000000E+02  0.51100000000E-03 0.  1.
         11   -1    0    0    0    0 -0.00000000000E+00 -0.00000000000E+00 -0.45593999997E+02  0.45594000000E+02  0.51100000000E-03 0. -1.
    9900012    2    1    2    0    0 -0.23854564972E+02  0.52004756104E+01 -0.35882280547E+02  0.47787271045E+02  0.20000000002E+02 0.  0.
        -12    1    1    2    0    0  0.23854564972E+02 -0.52004756104E+01  0.35882280547E+02  0.43400728955E+02  0.00000000000E+00 0.  1.
         11    1    3    3    0    0 -0.75073142065E+01  0.29791295591E+01 -0.19414684317E+02  0.21027718538E+02  0.51100000000E-03 0. -1.
        -11    1    3    3    0    0 -0.41852941923E+01  0.54936955725E+01 -0.11090795184E+02  0.13065340278E+02  0.51100000000E-03 0.  1.
         12    1    3    3    0    0 -0.12161956573E+02 -0.32723495212E+01 -0.53768010469E+01  0.13694212229E+02  0.00000000000E+00 0. -1.
</event>
<event>
 7    1  0.2598019E-009  0.4778727E+02  0.7816164E-02  0.1312668E+00
        -11   -1    0    0    0    0  0.00000000000E+00  0.00000000000E+00  0.45593999997E+02  0.45594000000E+02  0.51100000000E-03 0. -1.
         11   -1    0    0    0    0 -0.00000000000E+00 -0.00000000000E+00 -0.45593999997E+02  0.45594000000E+02  0.51100000000E-03 0.  1.
    9900012    2    1    2    0    0  0.18732139831E+02  0.38966977126E+02  0.37822040852E+01  0.47787269168E+02  0.19999991444E+02 0.  0.
        -12    1    1    2    0    0 -0.18732139831E+02 -0.38966977126E+02 -0.37822040852E+01  0.43400730832E+02  0.00000000000E+00 0.  1.
         11    1    3    3    0    0  0.13390272610E+02  0.31097601649E+02  0.24783203913E+01  0.33948524285E+02  0.51100000000E-03 0. -1.
        -11    1    3    3    0    0  0.37644888133E+01  0.34801668058E+01  0.55328618497E+01  0.75429104151E+01  0.51100000000E-03 0.  1.
         12    1    3    3    0    0  0.15773784077E+01  0.43892086720E+01 -0.42289781558E+01  0.62958344681E+01  0.00000000000E+00 0. -1.
</event>
<event>
 7    1  0.2598019E-009  0.4778727E+02  0.7816164E-02  0.1312668E+00
        -11   -1    0    0    0    0  0.00000000000E+00  0.00000000000E+00  0.45593999997E+02  0.45594000000E+02  0.51100000000E-03 0.  1.
         11   -1    0    0    0    0 -0.00000000000E+00 -0.00000000000E+00 -0.45593999997E+02  0.45594000000E+02  0.51100000000E-03 0. -1.
    9900012    2    1    2    0    0  0.17173458528E+02  0.77938921587E+01 -0.39089013080E+02  0.47787269864E+02  0.19999994619E+02 0.  0.
        -12    1    1    2    0    0 -0.17173458528E+02 -0.77938921587E+01  0.39089013080E+02  0.43400730136E+02  0.00000000000E+00 0.  1.
         11    1    3    3    0    0  0.18807532085E+02  0.55725789745E+01 -0.36487127545E+02  0.41425684983E+02  0.51100000000E-03 0. -1.
        -11    1    3    3    0    0  0.59815410820E+00  0.24746794599E+01  0.43625443235E+00  0.25830495460E+01  0.51100000000E-03 0.  1.
         12    1    3    3    0    0 -0.22322276656E+01 -0.25336627564E+00 -0.30381399672E+01  0.37785353355E+01  0.00000000000E+00 0. -1.
</event>
<event>
 7    1  0.2598019E-009  0.4778727E+02  0.7816164E-02  0.1312668E+00
        -11   -1    0    0    0    0  0.00000000000E+00  0.00000000000E+00  0.45593999997E+02  0.45594000000E+02  0.51100000000E-03 0. -1.
         11   -1    0    0    0    0 -0.00000000000E+00 -0.00000000000E+00 -0.45593999997E+02  0.45594000000E+02  0.51100000000E-03 0.  1.
    9900012    2    1    2    0    0  0.40380550088E+02 -0.80193876266E+01  0.13737688783E+02  0.47787268481E+02  0.19999988312E+02 0.  0.
        -12    1    1    2    0    0 -0.40380550088E+02  0.80193876266E+01 -0.13737688783E+02  0.43400731519E+02  0.00000000000E+00 0.  1.
         11    1    3    3    0    0  0.20640424782E+01 -0.16650613419E+01  0.64848166926E+01  0.70061079368E+01  0.51100000000E-03 0. -1.
        -11    1    3    3    0    0  0.28215559492E+02 -0.40073541537E+00  0.69055208015E+01  0.29051068898E+02  0.51100000000E-03 0.  1.
        -12    1    3    3    0    0  0.10100948118E+02 -0.59535908694E+01  0.34735128925E+00  0.11730091647E+02  0.00000000000E+00 0.  1.
</event>
<event>
 7    1  0.2598019E-009  0.4778727E+02  0.7816164E-02  0.1312668E+00
        -11   -1    0    0    0    0  0.00000000000E+00  0.00000000000E+00  0.45593999997E+02  0.45594000000E+02  0.51100000000E-03 0.  1.
         11   -1    0    0    0    0 -0.00000000000E+00 -0.00000000000E+00 -0.45593999997E+02  0.45594000000E+02  0.51100000000E-03 0. -1.
    9900012    2    1    2    0    0  0.36739520806E+02 -0.10943218660E+02 -0.20348877327E+02  0.47787271525E+02  0.20000002189E+02 0.  0.
        -12    1    1    2    0    0 -0.36739520806E+02  0.10943218660E+02  0.20348877327E+02  0.43400728475E+02  0.00000000000E+00 0.  1.
         11    1    3    3    0    0  0.21989405861E+02 -0.97654726010E+01 -0.14542265847E+02  0.28113625193E+02  0.51100000000E-03 0. -1.
        -11    1    3    3    0    0  0.24917366757E+01 -0.26123687894E+01  0.28490533475E+01  0.45989485310E+01  0.51100000000E-03 0.  1.
        -12    1    3    3    0    0  0.12258378269E+02  0.14346227308E+01 -0.86556648275E+01  0.15074697801E+02  0.00000000000E+00 0.  1.
</event>
<event>
 7    1  0.2598019E-009  0.4778726E+02  0.7816164E-02  0.1312668E+00
        -11   -1    0    0    0    0  0.00000000000E+00  0.00000000000E+00  0.45593999997E+02  0.45594000000E+02  0.51100000000E-03 0.  1.
         11   -1    0    0    0    0 -0.00000000000E+00 -0.00000000000E+00 -0.45593999997E+02  0.45594000000E+02  0.51100000000E-03 0. -1.
    9900012    2    1    2    0    0 -0.31857599638E+02  0.54989058963E+01 -0.28956506001E+02  0.47787264286E+02  0.19999969185E+02 0.  0.
        -12    1    1    2    0    0  0.31857599638E+02 -0.54989058963E+01  0.28956506001E+02  0.43400735714E+02  0.00000000000E+00 0.  1.
         11    1    3    3    0    0 -0.49762234154E+01  0.13464473983E+01 -0.69106678702E+01  0.86216617163E+01  0.51100000000E-03 0. -1.
        -11    1    3    3    0    0 -0.21247333494E+02  0.50725731963E+01 -0.67880425256E+01  0.22874826798E+02  0.51100000000E-03 0.  1.
        -12    1    3    3    0    0 -0.56340427290E+01 -0.92011469824E+00 -0.15257795605E+02  0.16290775772E+02  0.00000000000E+00 0.  1.
</event>
<event>
 7    1  0.2598019E-009  0.4778727E+02  0.7816164E-02  0.1312668E+00
        -11   -1    0    0    0    0  0.00000000000E+00  0.00000000000E+00  0.45593999997E+02  0.45594000000E+02  0.51100000000E-03 0.  1.
         11   -1    0    0    0    0 -0.00000000000E+00 -0.00000000000E+00 -0.45593999997E+02  0.45594000000E+02  0.51100000000E-03 0. -1.
    9900012    2    1    2    0    0  0.76329233470E+01 -0.42571629627E+02  0.36080348310E+01  0.47787273240E+02  0.20000010013E+02 0.  0.
        -12    1    1    2    0    0 -0.76329233470E+01  0.42571629627E+02 -0.36080348310E+01  0.43400726760E+02  0.00000000000E+00 0.  1.
         11    1    3    3    0    0 -0.26776698355E+01 -0.77769219314E+01  0.56314520669E+01  0.99681333818E+01  0.51100000000E-03 0. -1.
        -11    1    3    3    0    0  0.89087162268E+01 -0.18778174593E+02 -0.52130333697E+01  0.21428037311E+02  0.51100000000E-03 0.  1.
        -12    1    3    3    0    0  0.14018769558E+01 -0.16016533103E+02  0.31896161338E+01  0.16391102547E+02  0.00000000000E+00 0.  1.
</event>
<event>
 7    1  0.2598019E-009  0.4778727E+02  0.7816164E-02  0.1312668E+00
        -11   -1    0    0    0    0  0.00000000000E+00  0.00000000000E+00  0.45593999997E+02  0.45594000000E+02  0.51100000000E-03 0.  1.
         11   -1    0    0    0    0 -0.00000000000E+00 -0.00000000000E+00 -0.45593999997E+02  0.45594000000E+02  0.51100000000E-03 0. -1.
    9900012    2    1    2    0    0 -0.14464226549E+02 -0.76395682026E+01 -0.40200079849E+02  0.47787271068E+02  0.20000000105E+02 0.  0.
        -12    1    1    2    0    0  0.14464226549E+02  0.76395682026E+01  0.40200079849E+02  0.43400728932E+02  0.00000000000E+00 0.  1.
         11    1    3    3    0    0  0.14199197226E+01  0.76733789147E+00 -0.93910764404E+01  0.95287615369E+01  0.51100000000E-03 0. -1.
        -11    1    3    3    0    0 -0.11885072862E+02  0.14527078228E+01 -0.17803570552E+02  0.21455359274E+02  0.51100000000E-03 0.  1.
        -12    1    3    3    0    0 -0.39990734096E+01 -0.98596139169E+01 -0.13005432857E+02  0.16803150256E+02  0.00000000000E+00 0.  1.
</event>
<event>
 7    1  0.2598019E-009  0.4778727E+02  0.7816164E-02  0.1312668E+00
        -11   -1    0    0    0    0  0.00000000000E+00  0.00000000000E+00  0.45593999997E+02  0.45594000000E+02  0.51100000000E-03 0.  1.
         11   -1    0    0    0    0 -0.00000000000E+00 -0.00000000000E+00 -0.45593999997E+02  0.45594000000E+02  0.51100000000E-03 0. -1.
    9900012    2    1    2    0    0 -0.40558029333E+01 -0.10436426840E+02 -0.41931548160E+02  0.47787271047E+02  0.20000000009E+02 0.  0.
        -12    1    1    2    0    0  0.40558029333E+01  0.10436426840E+02  0.41931548160E+02  0.43400728953E+02  0.00000000000E+00 0.  1.
         11    1    3    3    0    0 -0.22518968616E+00  0.70643713089E+00 -0.21378053221E+01  0.22627363237E+01  0.51100000000E-03 0. -1.
        -11    1    3    3    0    0 -0.99506020199E+01 -0.94956497075E+01 -0.17006912007E+02  0.21872743317E+02  0.51100000000E-03 0.  1.
        -12    1    3    3    0    0  0.61199887727E+01 -0.16472142635E+01 -0.22786830831E+02  0.23651791406E+02  0.00000000000E+00 0.  1.
</event>
<event>
 7    1  0.2598019E-009  0.4778727E+02  0.7816164E-02  0.1312668E+00
        -11   -1    0    0    0    0  0.00000000000E+00  0.00000000000E+00  0.45593999997E+02  0.45594000000E+02  0.51100000000E-03 0.  1.
         11   -1    0    0    0    0 -0.00000000000E+00 -0.00000000000E+00 -0.45593999997E+02  0.45594000000E+02  0.51100000000E-03 0. -1.
    9900012    2    1    2    0    0  0.27377953300E+02 -0.21445330141E+02 -0.25964757601E+02  0.47787272483E+02  0.20000006557E+02 0.  0.
        -12    1    1    2    0    0 -0.27377953300E+02  0.21445330141E+02  0.25964757601E+02  0.43400727517E+02  0.00000000000E+00 0.  1.
         11    1    3    3    0    0  0.50320397676E+01 -0.17289569581E+01 -0.14933155110E+02  0.15852754909E+02  0.51100000000E-03 0. -1.
        -11    1    3    3    0    0  0.10409923444E+02 -0.10769803521E+02 -0.44104612993E+01  0.15614331338E+02  0.51100000000E-03 0.  1.
         12    1    3    3    0    0  0.11935990089E+02 -0.89465696621E+01 -0.66211411914E+01  0.16320186236E+02  0.00000000000E+00 0. -1.
</event>
<event>
 7    1  0.2598019E-009  0.4778727E+02  0.7816164E-02  0.1312668E+00
        -11   -1    0    0    0    0  0.00000000000E+00  0.00000000000E+00  0.45593999997E+02  0.45594000000E+02  0.51100000000E-03 0.  1.
         11   -1    0    0    0    0 -0.00000000000E+00 -0.00000000000E+00 -0.45593999997E+02  0.45594000000E+02  0.51100000000E-03 0. -1.
    9900012    2    1    2    0    0 -0.15027512318E+02  0.26360168932E+02 -0.31031257253E+02  0.47787267757E+02  0.19999985010E+02 0.  0.
        -12    1    1    2    0    0  0.15027512318E+02 -0.26360168932E+02  0.31031257253E+02  0.43400732243E+02  0.00000000000E+00 0.  1.
         11    1    3    3    0    0 -0.30179980218E+01  0.32054251216E+01 -0.79417501882E+01  0.90804437437E+01  0.51100000000E-03 0. -1.
        -11    1    3    3    0    0 -0.13200829291E+02  0.20151333989E+02 -0.25188404785E+02  0.34853893490E+02  0.51100000000E-03 0.  1.
        -12    1    3    3    0    0  0.11913149952E+01  0.30034098218E+01  0.20988977209E+01  0.38529305234E+01  0.00000000000E+00 0.  1.
</event>
<event>
 7    1  0.2598019E-009  0.4778727E+02  0.7816164E-02  0.1312668E+00
        -11   -1    0    0    0    0  0.00000000000E+00  0.00000000000E+00  0.45593999997E+02  0.45594000000E+02  0.51100000000E-03 0.  1.
         11   -1    0    0    0    0 -0.00000000000E+00 -0.00000000000E+00 -0.45593999997E+02  0.45594000000E+02  0.51100000000E-03 0. -1.
    9900012    2    1    2    0    0 -0.36406096382E+02 -0.19336846369E+02 -0.13575927447E+02  0.47787270890E+02  0.19999999295E+02 0.  0.
        -12    1    1    2    0    0  0.36406096382E+02  0.19336846369E+02  0.13575927447E+02  0.43400729110E+02  0.00000000000E+00 0.  1.
         11    1    3    3    0    0 -0.55654606385E+01 -0.38817014895E+01 -0.90556565621E+01  0.11315779894E+02  0.51100000000E-03 0. -1.
        -11    1    3    3    0    0 -0.10409946526E+02 -0.99240285375E+01  0.15142951686E+01  0.14461895423E+02  0.51100000000E-03 0.  1.
         12    1    3    3    0    0 -0.20430689216E+02 -0.55311163422E+01 -0.60345660535E+01  0.22009595573E+02  0.00000000000E+00 0. -1.
</event>
<event>
 7    1  0.2598019E-009  0.4778727E+02  0.7816164E-02  0.1312668E+00
        -11   -1    0    0    0    0  0.00000000000E+00  0.00000000000E+00  0.45593999997E+02  0.45594000000E+02  0.51100000000E-03 0.  1.
         11   -1    0    0    0    0 -0.00000000000E+00 -0.00000000000E+00 -0.45593999997E+02  0.45594000000E+02  0.51100000000E-03 0. -1.
    9900012    2    1    2    0    0  0.12782161852E+01 -0.13918406724E+02 -0.41088535118E+02  0.47787267282E+02  0.19999982845E+02 0.  0.
        -12    1    1    2    0    0 -0.12782161852E+01  0.13918406724E+02  0.41088535118E+02  0.43400732718E+02  0.00000000000E+00 0.  1.
         11    1    3    3    0    0  0.27117557234E+01 -0.12891884512E+02 -0.33090330885E+02  0.35616348826E+02  0.51100000000E-03 0. -1.
        -11    1    3    3    0    0  0.72409288207E+00 -0.13006869946E+00  0.18807036233E+01  0.20194738791E+01  0.51100000000E-03 0.  1.
         12    1    3    3    0    0 -0.21576324203E+01 -0.89645351239E+00 -0.98789078563E+01  0.10151444577E+02  0.00000000000E+00 0. -1.
</event>
<event>
 7    1  0.2598019E-009  0.4778725E+02  0.7816164E-02  0.1312668E+00
        -11   -1    0    0    0    0  0.00000000000E+00  0.00000000000E+00  0.45593999997E+02  0.45594000000E+02  0.51100000000E-03 0.  1.
         11   -1    0    0    0    0 -0.00000000000E+00 -0.00000000000E+00 -0.45593999997E+02  0.45594000000E+02  0.51100000000E-03 0. -1.
    9900012    2    1    2    0    0  0.11487587274E+02  0.32429824849E+02 -0.26456885472E+02  0.47787251274E+02  0.19999909858E+02 0.  0.
        -12    1    1    2    0    0 -0.11487587274E+02 -0.32429824849E+02  0.26456885472E+02  0.43400748726E+02  0.00000000000E+00 0.  1.
         11    1    3    3    0    0  0.56253853609E+01  0.10377672441E+02  0.98689499049E+00  0.11845463593E+02  0.51100000000E-03 0.  1.
        -11    1    3    3    0    0  0.35976891096E+01  0.17815715485E+02 -0.23611383776E+02  0.29796652987E+02  0.51100000000E-03 0. -1.
         12    1    3    3    0    0  0.22645128034E+01  0.42364369234E+01 -0.38323966859E+01  0.61451346935E+01  0.00000000000E+00 0. -1.
</event>
<event>
 7    1  0.2598019E-009  0.4778726E+02  0.7816164E-02  0.1312668E+00
        -11   -1    0    0    0    0  0.00000000000E+00  0.00000000000E+00  0.45593999997E+02  0.45594000000E+02  0.51100000000E-03 0. -1.
         11   -1    0    0    0    0 -0.00000000000E+00 -0.00000000000E+00 -0.45593999997E+02  0.45594000000E+02  0.51100000000E-03 0.  1.
    9900012    2    1    2    0    0 -0.28991101159E+02  0.68035317695E+00  0.32290515021E+02  0.47787260522E+02  0.19999952025E+02 0.  0.
        -12    1    1    2    0    0  0.28991101159E+02 -0.68035317695E+00 -0.32290515021E+02  0.43400739478E+02  0.00000000000E+00 0.  1.
         11    1    3    3    0    0 -0.16811375890E+02  0.62326730313E+01  0.15070431979E+02  0.23421923335E+02  0.51100000000E-03 0. -1.
        -11    1    3    3    0    0 -0.96322590708E+00 -0.22819972303E+01  0.10705506700E+02  0.10988320594E+02  0.51100000000E-03 0.  1.
         12    1    3    3    0    0 -0.11216499362E+02 -0.32703226241E+01  0.65145763424E+01  0.13377016593E+02  0.00000000000E+00 0. -1.
</event>
<event>
 7    1  0.2598019E-009  0.4778723E+02  0.7816164E-02  0.1312668E+00
        -11   -1    0    0    0    0  0.00000000000E+00  0.00000000000E+00  0.45593999997E+02  0.45594000000E+02  0.51100000000E-03 0. -1.
         11   -1    0    0    0    0 -0.00000000000E+00 -0.00000000000E+00 -0.45593999997E+02  0.45594000000E+02  0.51100000000E-03 0.  1.
    9900012    2    1    2    0    0 -0.39245251461E+02 -0.18531939645E+02  0.62306164203E-01  0.47787234669E+02  0.19999834148E+02 0.  0.
        -12    1    1    2    0    0  0.39245251461E+02  0.18531939645E+02 -0.62306164203E-01  0.43400765331E+02  0.00000000000E+00 0.  1.
         11    1    3    3    0    0 -0.24126534808E+02 -0.90573417423E+01  0.82861281520E+01  0.27070002610E+02  0.51100000000E-03 0. -1.
        -11    1    3    3    0    0 -0.26017981145E+01 -0.30817286823E+01 -0.47653849876E+01  0.62430200578E+01  0.51100000000E-03 0.  1.
         12    1    3    3    0    0 -0.12516918539E+02 -0.63928692201E+01 -0.34584370002E+01  0.14474212001E+02  0.00000000000E+00 0. -1.
</event>
<event>
 7    1  0.2598019E-009  0.4778727E+02  0.7816164E-02  0.1312668E+00
        -11   -1    0    0    0    0  0.00000000000E+00  0.00000000000E+00  0.45593999997E+02  0.45594000000E+02  0.51100000000E-03 0.  1.
         11   -1    0    0    0    0 -0.00000000000E+00 -0.00000000000E+00 -0.45593999997E+02  0.45594000000E+02  0.51100000000E-03 0. -1.
    9900012    2    1    2    0    0 -0.64866993501E+01  0.28487533332E+02 -0.32093713675E+02  0.47787270960E+02  0.19999999614E+02 0.  0.
        -12    1    1    2    0    0  0.64866993501E+01 -0.28487533332E+02  0.32093713675E+02  0.43400729040E+02  0.00000000000E+00 0.  1.
         11    1    3    3    0    0 -0.38401999212E+01  0.22885294419E+02 -0.25785636490E+02  0.34689809534E+02  0.51100000000E-03 0. -1.
        -11    1    3    3    0    0 -0.58982752235E+01  0.14642809321E+01 -0.23644669880E+01  0.65210791790E+01  0.51100000000E-03 0.  1.
        -12    1    3    3    0    0  0.32517757946E+01  0.41379579810E+01 -0.39436101969E+01  0.65763822467E+01  0.00000000000E+00 0.  1.
</event>
<event>
 7    1  0.2598019E-009  0.4778727E+02  0.7816164E-02  0.1312668E+00
        -11   -1    0    0    0    0  0.00000000000E+00  0.00000000000E+00  0.45593999997E+02  0.45594000000E+02  0.51100000000E-03 0. -1.
         11   -1    0    0    0    0 -0.00000000000E+00 -0.00000000000E+00 -0.45593999997E+02  0.45594000000E+02  0.51100000000E-03 0.  1.
    9900012    2    1    2    0    0 -0.36690339591E+02 -0.20379278849E+02  0.11051115393E+02  0.47787272159E+02  0.20000005082E+02 0.  0.
        -12    1    1    2    0    0  0.36690339591E+02  0.20379278849E+02 -0.11051115393E+02  0.43400727841E+02  0.00000000000E+00 0.  1.
         11    1    3    3    0    0 -0.20693154739E+02 -0.19836831273E+02  0.10336132324E+02  0.30471989756E+02  0.51100000000E-03 0. -1.
        -11    1    3    3    0    0 -0.60593237058E+01 -0.17165499344E+01 -0.25422525862E+01  0.67915385534E+01  0.51100000000E-03 0.  1.
         12    1    3    3    0    0 -0.99378611459E+01  0.11741023581E+01  0.32572356553E+01  0.10523743850E+02  0.00000000000E+00 0. -1.
</event>
<event>
 7    1  0.2598019E-009  0.4778727E+02  0.7816164E-02  0.1312668E+00
        -11   -1    0    0    0    0  0.00000000000E+00  0.00000000000E+00  0.45593999997E+02  0.45594000000E+02  0.51100000000E-03 0. -1.
         11   -1    0    0    0    0 -0.00000000000E+00 -0.00000000000E+00 -0.45593999997E+02  0.45594000000E+02  0.51100000000E-03 0.  1.
    9900012    2    1    2    0    0  0.22872610748E+02 -0.17421960889E+02  0.32510650535E+02  0.47787269109E+02  0.19999991177E+02 0.  0.
        -12    1    1    2    0    0 -0.22872610748E+02  0.17421960889E+02 -0.32510650535E+02  0.43400730891E+02  0.00000000000E+00 0.  1.
         11    1    3    3    0    0  0.87994717787E+01 -0.14660134237E+02  0.12081969292E+02  0.20936194059E+02  0.51100000000E-03 0. -1.
        -11    1    3    3    0    0  0.12131063303E+02  0.12968131934E+01  0.11100212702E+02  0.16494215459E+02  0.51100000000E-03 0.  1.
        -12    1    3    3    0    0  0.19420756668E+01 -0.40586398452E+01  0.93284685409E+01  0.10356859592E+02  0.00000000000E+00 0.  1.
</event>
<event>
 7    1  0.2598019E-009  0.4778727E+02  0.7816164E-02  0.1312668E+00
        -11   -1    0    0    0    0  0.00000000000E+00  0.00000000000E+00  0.45593999997E+02  0.45594000000E+02  0.51100000000E-03 0.  1.
         11   -1    0    0    0    0 -0.00000000000E+00 -0.00000000000E+00 -0.45593999997E+02  0.45594000000E+02  0.51100000000E-03 0. -1.
    9900012    2    1    2    0    0 -0.10291861101E+02  0.73659924815E+01 -0.41514370769E+02  0.47787271544E+02  0.20000002279E+02 0.  0.
        -12    1    1    2    0    0  0.10291861101E+02 -0.73659924815E+01  0.41514370769E+02  0.43400728456E+02  0.00000000000E+00 0.  1.
         11    1    3    3    0    0 -0.32878975536E+01 -0.51094366357E+01 -0.12888600172E+02  0.14248951811E+02  0.51100000000E-03 0. -1.
        -11    1    3    3    0    0 -0.68174780132E+01  0.22169699944E+01 -0.10588351175E+02  0.12786952072E+02  0.51100000000E-03 0.  1.
         12    1    3    3    0    0 -0.18648553403E+00  0.10258459123E+02 -0.18037419422E+02  0.20751367662E+02  0.00000000000E+00 0. -1.
</event>
<event>
 7    1  0.2598019E-009  0.4778727E+02  0.7816164E-02  0.1312668E+00
        -11   -1    0    0    0    0  0.00000000000E+00  0.00000000000E+00  0.45593999997E+02  0.45594000000E+02  0.51100000000E-03 0.  1.
         11   -1    0    0    0    0 -0.00000000000E+00 -0.00000000000E+00 -0.45593999997E+02  0.45594000000E+02  0.51100000000E-03 0. -1.
    9900012    2    1    2    0    0  0.26675070877E+02 -0.27423291424E+02 -0.20494565692E+02  0.47787267959E+02  0.19999985933E+02 0.  0.
        -12    1    1    2    0    0 -0.26675070877E+02  0.27423291424E+02  0.20494565692E+02  0.43400732041E+02  0.00000000000E+00 0.  1.
         11    1    3    3    0    0  0.14118979130E+01 -0.71492025632E+01 -0.20386561599E+01  0.75670781816E+01  0.51100000000E-03 0. -1.
        -11    1    3    3    0    0  0.38759597701E+01 -0.56008626177E+01  0.20976471433E+01  0.71269102703E+01  0.51100000000E-03 0.  1.
         12    1    3    3    0    0  0.21387213194E+02 -0.14673226243E+02 -0.20553556675E+02  0.33093279507E+02  0.00000000000E+00 0. -1.
</event>
<event>
 7    1  0.2598019E-009  0.4778729E+02  0.7816164E-02  0.1312668E+00
        -11   -1    0    0    0    0  0.00000000000E+00  0.00000000000E+00  0.45593999997E+02  0.45594000000E+02  0.51100000000E-03 0.  1.
         11   -1    0    0    0    0 -0.00000000000E+00 -0.00000000000E+00 -0.45593999997E+02  0.45594000000E+02  0.51100000000E-03 0. -1.
    9900012    2    1    2    0    0 -0.98775185386E+01  0.36944834150E+02 -0.20521576971E+02  0.47787294196E+02  0.20000105559E+02 0.  0.
        -12    1    1    2    0    0  0.98775185386E+01 -0.36944834150E+02  0.20521576971E+02  0.43400705804E+02  0.00000000000E+00 0.  1.
         11    1    3    3    0    0 -0.64965145226E+00  0.19721138360E+02 -0.14973079189E+02  0.24769708232E+02  0.51100000000E-03 0. -1.
        -11    1    3    3    0    0 -0.73428977409E+01  0.42299457724E+01  0.64843739622E+00  0.84988857969E+01  0.51100000000E-03 0.  1.
        -12    1    3    3    0    0 -0.18849693455E+01  0.12993750018E+02 -0.61969351785E+01  0.14518700168E+02  0.00000000000E+00 0.  1.
</event>
<event>
 7    1  0.2598019E-009  0.4778727E+02  0.7816164E-02  0.1312668E+00
        -11   -1    0    0    0    0  0.00000000000E+00  0.00000000000E+00  0.45593999997E+02  0.45594000000E+02  0.51100000000E-03 0.  1.
         11   -1    0    0    0    0 -0.00000000000E+00 -0.00000000000E+00 -0.45593999997E+02  0.45594000000E+02  0.51100000000E-03 0. -1.
    9900012    2    1    2    0    0  0.26508211906E+01 -0.21541565550E+02 -0.37584006534E+02  0.47787269056E+02  0.19999990932E+02 0.  0.
        -12    1    1    2    0    0 -0.26508211906E+01  0.21541565550E+02  0.37584006534E+02  0.43400730944E+02  0.00000000000E+00 0.  1.
         11    1    3    3    0    0  0.68079668575E+01 -0.21366342496E+02 -0.25652822386E+02  0.34072515332E+02  0.51100000000E-03 0. -1.
        -11    1    3    3    0    0 -0.53102102891E+01 -0.90541917151E+00 -0.91849784710E+01  0.10648095931E+02  0.51100000000E-03 0.  1.
         12    1    3    3    0    0  0.11530646221E+01  0.73019611770E+00 -0.27462056771E+01  0.30666577921E+01  0.00000000000E+00 0. -1.
</event>
<event>
 7    1  0.2598019E-009  0.4778727E+02  0.7816164E-02  0.1312668E+00
        -11   -1    0    0    0    0  0.00000000000E+00  0.00000000000E+00  0.45593999997E+02  0.45594000000E+02  0.51100000000E-03 0.  1.
         11   -1    0    0    0    0 -0.00000000000E+00 -0.00000000000E+00 -0.45593999997E+02  0.45594000000E+02  0.51100000000E-03 0. -1.
    9900012    2    1    2    0    0  0.30690821644E+02 -0.11327430070E+02 -0.28519928580E+02  0.47787268078E+02  0.19999986475E+02 0.  0.
        -12    1    1    2    0    0 -0.30690821644E+02  0.11327430070E+02  0.28519928580E+02  0.43400731922E+02  0.00000000000E+00 0.  1.
         11    1    3    3    0    0  0.96997899865E+01  0.31278891098E+01 -0.13785430279E+02  0.17143736591E+02  0.51100000000E-03 0. -1.
        -11    1    3    3    0    0  0.51197523970E+01  0.25112244997E+00 -0.17886544818E+01  0.54290157679E+01  0.51100000000E-03 0.  1.
         12    1    3    3    0    0  0.15871279261E+02 -0.14706441630E+02 -0.12945843819E+02  0.25214515719E+02  0.00000000000E+00 0. -1.
</event>
<event>
 7    1  0.2598019E-009  0.4778727E+02  0.7816164E-02  0.1312668E+00
        -11   -1    0    0    0    0  0.00000000000E+00  0.00000000000E+00  0.45593999997E+02  0.45594000000E+02  0.51100000000E-03 0.  1.
         11   -1    0    0    0    0 -0.00000000000E+00 -0.00000000000E+00 -0.45593999997E+02  0.45594000000E+02  0.51100000000E-03 0. -1.
    9900012    2    1    2    0    0  0.27230636488E+02 -0.82683746296E+01 -0.32768123008E+02  0.47787268808E+02  0.19999989802E+02 0.  0.
        -12    1    1    2    0    0 -0.27230636488E+02  0.82683746296E+01  0.32768123008E+02  0.43400731192E+02  0.00000000000E+00 0.  1.
         11    1    3    3    0    0  0.26126428150E+02 -0.10850451001E+02 -0.32186091591E+02  0.42851686396E+02  0.51100000000E-03 0. -1.
        -11    1    3    3    0    0  0.21396292658E+01  0.25475685614E+01  0.58188490073E+00  0.33773820141E+01  0.51100000000E-03 0.  1.
         12    1    3    3    0    0 -0.10354209275E+01  0.34507809976E-01 -0.11639163171E+01  0.15582003977E+01  0.00000000000E+00 0. -1.
</event>
<event>
 7    1  0.2598019E-009  0.4778727E+02  0.7816164E-02  0.1312668E+00
        -11   -1    0    0    0    0  0.00000000000E+00  0.00000000000E+00  0.45593999997E+02  0.45594000000E+02  0.51100000000E-03 0. -1.
         11   -1    0    0    0    0 -0.00000000000E+00 -0.00000000000E+00 -0.45593999997E+02  0.45594000000E+02  0.51100000000E-03 0.  1.
    9900012    2    1    2    0    0 -0.41468549506E+02  0.54443081214E+00  0.12793989253E+02  0.47787272309E+02  0.20000005767E+02 0.  0.
        -12    1    1    2    0    0  0.41468549506E+02 -0.54443081214E+00 -0.12793989253E+02  0.43400727691E+02  0.00000000000E+00 0.  1.
         11    1    3    3    0    0 -0.15373133300E+02  0.66532904609E+00  0.70775939917E+01  0.16937184748E+02  0.51100000000E-03 0.  1.
        -11    1    3    3    0    0 -0.26704336420E+02 -0.31298455002E+01  0.36132391338E+01  0.27128822565E+02  0.51100000000E-03 0. -1.
        -12    1    3    3    0    0  0.60892021333E+00  0.30089472662E+01  0.21031561279E+01  0.37212649967E+01  0.00000000000E+00 0.  1.
</event>
<event>
 7    1  0.2598019E-009  0.4778727E+02  0.7816164E-02  0.1312668E+00
        -11   -1    0    0    0    0  0.00000000000E+00  0.00000000000E+00  0.45593999997E+02  0.45594000000E+02  0.51100000000E-03 0.  1.
         11   -1    0    0    0    0 -0.00000000000E+00 -0.00000000000E+00 -0.45593999997E+02  0.45594000000E+02  0.51100000000E-03 0. -1.
    9900012    2    1    2    0    0 -0.41355401252E+02 -0.12698290095E+02  0.34796068571E+01  0.47787269039E+02  0.19999990857E+02 0.  0.
        -12    1    1    2    0    0  0.41355401252E+02  0.12698290095E+02 -0.34796068571E+01  0.43400730961E+02  0.00000000000E+00 0.  1.
         11    1    3    3    0    0 -0.11362883830E+02 -0.81407425833E+01  0.81358854401E+01  0.16173418034E+02  0.51100000000E-03 0. -1.
        -11    1    3    3    0    0 -0.19285261159E+02  0.75832048307E+00 -0.33453602513E+01  0.19587949954E+02  0.51100000000E-03 0.  1.
         12    1    3    3    0    0 -0.10707256264E+02 -0.53158679947E+01 -0.13109183317E+01  0.12025901052E+02  0.00000000000E+00 0. -1.
</event>
<event>
 7    1  0.2598019E-009  0.4778727E+02  0.7816164E-02  0.1312668E+00
        -11   -1    0    0    0    0  0.00000000000E+00  0.00000000000E+00  0.45593999997E+02  0.45594000000E+02  0.51100000000E-03 0.  1.
         11   -1    0    0    0    0 -0.00000000000E+00 -0.00000000000E+00 -0.45593999997E+02  0.45594000000E+02  0.51100000000E-03 0. -1.
    9900012    2    1    2    0    0  0.42702959660E+02 -0.35745178744E+01 -0.68777429129E+01  0.47787270866E+02  0.19999999189E+02 0.  0.
        -12    1    1    2    0    0 -0.42702959660E+02  0.35745178744E+01  0.68777429129E+01  0.43400729134E+02  0.00000000000E+00 0.  1.
         11    1    3    3    0    0  0.18206621494E+02 -0.42782925062E+01 -0.18780594313E+01  0.18796594386E+02  0.51100000000E-03 0. -1.
        -11    1    3    3    0    0  0.27283709858E+01  0.55598834027E+01 -0.31707504517E+00  0.62013586038E+01  0.51100000000E-03 0.  1.
        -12    1    3    3    0    0  0.21767967180E+02 -0.48561087709E+01 -0.46826084364E+01  0.22789317877E+02  0.00000000000E+00 0.  1.
</event>
<event>
 7    1  0.2598019E-009  0.4778727E+02  0.7816164E-02  0.1312668E+00
        -11   -1    0    0    0    0  0.00000000000E+00  0.00000000000E+00  0.45593999997E+02  0.45594000000E+02  0.51100000000E-03 0.  1.
         11   -1    0    0    0    0 -0.00000000000E+00 -0.00000000000E+00 -0.45593999997E+02  0.45594000000E+02  0.51100000000E-03 0. -1.
    9900012    2    1    2    0    0 -0.17545474483E+02 -0.31842254894E+02  0.23703379817E+02  0.47787273206E+02  0.20000009854E+02 0.  0.
        -12    1    1    2    0    0  0.17545474483E+02  0.31842254894E+02 -0.23703379817E+02  0.43400726794E+02  0.00000000000E+00 0.  1.
         11    1    3    3    0    0 -0.34246070887E+01 -0.98564871648E+01  0.87061502613E+00  0.10470732722E+02  0.51100000000E-03 0. -1.
        -11    1    3    3    0    0 -0.53272464396E+01 -0.13889681376E+02  0.20183567293E+02  0.25073475872E+02  0.51100000000E-03 0.  1.
        -12    1    3    3    0    0 -0.87936209542E+01 -0.80960863533E+01  0.26491974973E+01  0.12243064613E+02  0.00000000000E+00 0.  1.
</event>
<event>
 7    1  0.2598019E-009  0.4778727E+02  0.7816164E-02  0.1312668E+00
        -11   -1    0    0    0    0  0.00000000000E+00  0.00000000000E+00  0.45593999997E+02  0.45594000000E+02  0.51100000000E-03 0.  1.
         11   -1    0    0    0    0 -0.00000000000E+00 -0.00000000000E+00 -0.45593999997E+02  0.45594000000E+02  0.51100000000E-03 0. -1.
    9900012    2    1    2    0    0  0.50051136430E+01  0.31661276029E+02 -0.29259801333E+02  0.47787268020E+02  0.19999986209E+02 0.  0.
        -12    1    1    2    0    0 -0.50051136430E+01 -0.31661276029E+02  0.29259801333E+02  0.43400731980E+02  0.00000000000E+00 0.  1.
         11    1    3    3    0    0  0.96315002350E+01  0.11698156156E+02 -0.59498209137E+01  0.16279220602E+02  0.51100000000E-03 0. -1.
        -11    1    3    3    0    0 -0.72146259049E+00  0.39791547753E+01 -0.18003013221E+01  0.44266540532E+01  0.51100000000E-03 0.  1.
         12    1    3    3    0    0 -0.39049240015E+01  0.15983965097E+02 -0.21509679098E+02  0.27081393365E+02  0.00000000000E+00 0. -1.
</event>
<event>
 7    1  0.2598019E-009  0.4778726E+02  0.7816164E-02  0.1312668E+00
        -11   -1    0    0    0    0  0.00000000000E+00  0.00000000000E+00  0.45593999997E+02  0.45594000000E+02  0.51100000000E-03 0.  1.
         11   -1    0    0    0    0 -0.00000000000E+00 -0.00000000000E+00 -0.45593999997E+02  0.45594000000E+02  0.51100000000E-03 0. -1.
    9900012    2    1    2    0    0 -0.11889353110E+02  0.12817505363E+01 -0.41720794088E+02  0.47787259671E+02  0.19999948143E+02 0.  0.
        -12    1    1    2    0    0  0.11889353110E+02 -0.12817505363E+01  0.41720794088E+02  0.43400740329E+02  0.00000000000E+00 0.  1.
         11    1    3    3    0    0  0.44922103659E+01  0.10101761362E+01 -0.94799340016E+01  0.10538954347E+02  0.51100000000E-03 0. -1.
        -11    1    3    3    0    0 -0.21731125795E+00 -0.14176976946E-02  0.60315371130E+00  0.64110908064E+00  0.51100000000E-03 0.  1.
         12    1    3    3    0    0 -0.16164252218E+02  0.27299209776E+00 -0.32844013797E+02  0.36607196243E+02  0.00000000000E+00 0. -1.
</event>
<event>
 7    1  0.2598019E-009  0.4778726E+02  0.7816164E-02  0.1312668E+00
        -11   -1    0    0    0    0  0.00000000000E+00  0.00000000000E+00  0.45593999997E+02  0.45594000000E+02  0.51100000000E-03 0. -1.
         11   -1    0    0    0    0 -0.00000000000E+00 -0.00000000000E+00 -0.45593999997E+02  0.45594000000E+02  0.51100000000E-03 0.  1.
    9900012    2    1    2    0    0 -0.37154156044E+02 -0.12425802428E+02 -0.18675973838E+02  0.47787264106E+02  0.19999968367E+02 0.  0.
        -12    1    1    2    0    0  0.37154156044E+02  0.12425802428E+02  0.18675973838E+02  0.43400735894E+02  0.00000000000E+00 0.  1.
         11    1    3    3    0    0 -0.21094513119E+02 -0.16351744167E+01 -0.19617871799E+01  0.21248550264E+02  0.51100000000E-03 0. -1.
        -11    1    3    3    0    0 -0.12016917925E+02 -0.98654460351E+01 -0.95086855711E+01  0.18224940149E+02  0.51100000000E-03 0.  1.
         12    1    3    3    0    0 -0.40427249993E+01 -0.92518197655E+00 -0.72055010872E+01  0.83137736936E+01  0.00000000000E+00 0. -1.
</event>
<event>
 7    1  0.2598019E-009  0.4778727E+02  0.7816164E-02  0.1312668E+00
        -11   -1    0    0    0    0  0.00000000000E+00  0.00000000000E+00  0.45593999997E+02  0.45594000000E+02  0.51100000000E-03 0. -1.
         11   -1    0    0    0    0 -0.00000000000E+00 -0.00000000000E+00 -0.45593999997E+02  0.45594000000E+02  0.51100000000E-03 0.  1.
    9900012    2    1    2    0    0  0.15926155005E+01  0.17408767095E+02  0.39724317633E+02  0.47787274115E+02  0.20000014001E+02 0.  0.
        -12    1    1    2    0    0 -0.15926155005E+01 -0.17408767095E+02 -0.39724317633E+02  0.43400725885E+02  0.00000000000E+00 0.  1.
         11    1    3    3    0    0 -0.44764257096E+00  0.98436771302E+01  0.35827645263E+02  0.37158021055E+02  0.51100000000E-03 0. -1.
        -11    1    3    3    0    0 -0.40528755012E+00  0.62794317998E+01  0.58980439641E+00  0.63200784184E+01  0.51100000000E-03 0.  1.
         12    1    3    3    0    0  0.24455456216E+01  0.12856581649E+01  0.33068679734E+01  0.43091746423E+01  0.00000000000E+00 0. -1.
</event>
<event>
 7    1  0.2598019E-009  0.4778722E+02  0.7816164E-02  0.1312668E+00
        -11   -1    0    0    0    0  0.00000000000E+00  0.00000000000E+00  0.45593999997E+02  0.45594000000E+02  0.51100000000E-03 0.  1.
         11   -1    0    0    0    0 -0.00000000000E+00 -0.00000000000E+00 -0.45593999997E+02  0.45594000000E+02  0.51100000000E-03 0. -1.
    9900012    2    1    2    0    0  0.42140248581E+02  0.58905797577E+01  0.85514790453E+01  0.47787224958E+02  0.19999789874E+02 0.  0.
        -12    1    1    2    0    0 -0.42140248581E+02 -0.58905797577E+01 -0.85514790453E+01  0.43400775042E+02  0.00000000000E+00 0.  1.
         11    1    3    3    0    0  0.15747936681E+02  0.26575731665E+01 -0.55457889237E+01  0.16906092981E+02  0.51100000000E-03 0. -1.
        -11    1    3    3    0    0  0.14759785940E+02  0.50678142569E+01  0.92895306816E+01  0.18161205986E+02  0.51100000000E-03 0.  1.
         12    1    3    3    0    0  0.11632525960E+02 -0.18348076657E+01  0.48077372874E+01  0.12719925991E+02  0.00000000000E+00 0. -1.
</event>
<event>
 7    1  0.2598019E-009  0.4778728E+02  0.7816164E-02  0.1312668E+00
        -11   -1    0    0    0    0  0.00000000000E+00  0.00000000000E+00  0.45593999997E+02  0.45594000000E+02  0.51100000000E-03 0. -1.
         11   -1    0    0    0    0 -0.00000000000E+00 -0.00000000000E+00 -0.45593999997E+02  0.45594000000E+02  0.51100000000E-03 0.  1.
    9900012    2    1    2    0    0  0.26904994633E+02 -0.14245009730E+01  0.34025210027E+02  0.47787275851E+02  0.20000021917E+02 0.  0.
        -12    1    1    2    0    0 -0.26904994633E+02  0.14245009730E+01 -0.34025210027E+02  0.43400724149E+02  0.00000000000E+00 0.  1.
         11    1    3    3    0    0  0.21672607735E+01  0.19894743881E+01  0.16923398369E+02  0.17177206997E+02  0.51100000000E-03 0. -1.
        -11    1    3    3    0    0  0.22381873558E+02 -0.16477772621E+01  0.15160455988E+02  0.27083257926E+02  0.51100000000E-03 0.  1.
        -12    1    3    3    0    0  0.23558603018E+01 -0.17661980989E+01  0.19413556702E+01  0.35268109284E+01  0.00000000000E+00 0.  1.
</event>
<event>
 7    1  0.2598019E-009  0.4778727E+02  0.7816164E-02  0.1312668E+00
        -11   -1    0    0    0    0  0.00000000000E+00  0.00000000000E+00  0.45593999997E+02  0.45594000000E+02  0.51100000000E-03 0.  1.
         11   -1    0    0    0    0 -0.00000000000E+00 -0.00000000000E+00 -0.45593999997E+02  0.45594000000E+02  0.51100000000E-03 0. -1.
    9900012    2    1    2    0    0 -0.91606208016E+01  0.38660457184E+02 -0.17466407712E+02  0.47787270496E+02  0.19999997499E+02 0.  0.
        -12    1    1    2    0    0  0.91606208016E+01 -0.38660457184E+02  0.17466407712E+02  0.43400729504E+02  0.00000000000E+00 0.  1.
         11    1    3    3    0    0  0.25243184329E+01  0.18099936033E+01  0.14821900217E+01  0.34416780669E+01  0.51100000000E-03 0. -1.
        -11    1    3    3    0    0 -0.86572447321E+01  0.11284789946E+02 -0.50774859127E+01  0.15102159909E+02  0.51100000000E-03 0.  1.
         12    1    3    3    0    0 -0.30276945024E+01  0.25565673634E+02 -0.13871111821E+02  0.29243432520E+02  0.00000000000E+00 0. -1.
</event>
<event>
 7    1  0.2598019E-009  0.4778727E+02  0.7816164E-02  0.1312668E+00
        -11   -1    0    0    0    0  0.00000000000E+00  0.00000000000E+00  0.45593999997E+02  0.45594000000E+02  0.51100000000E-03 0.  1.
         11   -1    0    0    0    0 -0.00000000000E+00 -0.00000000000E+00 -0.45593999997E+02  0.45594000000E+02  0.51100000000E-03 0. -1.
    9900012    2    1    2    0    0  0.11881904395E+02  0.31769297675E+02 -0.27076840183E+02  0.47787271882E+02  0.20000003820E+02 0.  0.
        -12    1    1    2    0    0 -0.11881904395E+02 -0.31769297675E+02  0.27076840183E+02  0.43400728118E+02  0.00000000000E+00 0.  1.
         11    1    3    3    0    0 -0.12958066253E+01  0.21155730662E+02 -0.13914003853E+02  0.25354359746E+02  0.51100000000E-03 0.  1.
        -11    1    3    3    0    0  0.46658778464E+01  0.41172177956E+00 -0.20552394301E+01  0.51150699191E+01  0.51100000000E-03 0. -1.
         12    1    3    3    0    0  0.85118331742E+01  0.10201845234E+02 -0.11107596900E+02  0.17317842217E+02  0.00000000000E+00 0. -1.
</event>
<event>
 7    1  0.2598019E-009  0.4778727E+02  0.7816164E-02  0.1312668E+00
        -11   -1    0    0    0    0  0.00000000000E+00  0.00000000000E+00  0.45593999997E+02  0.45594000000E+02  0.51100000000E-03 0.  1.
         11   -1    0    0    0    0 -0.00000000000E+00 -0.00000000000E+00 -0.45593999997E+02  0.45594000000E+02  0.51100000000E-03 0. -1.
    9900012    2    1    2    0    0 -0.10819612164E+02 -0.27685293064E+01 -0.41939173658E+02  0.47787273635E+02  0.20000011811E+02 0.  0.
        -12    1    1    2    0    0  0.10819612164E+02  0.27685293064E+01  0.41939173658E+02  0.43400726365E+02  0.00000000000E+00 0.  1.
         11    1    3    3    0    0 -0.62619324423E+01  0.82721251405E+00 -0.31649045571E+02  0.32273180263E+02  0.51100000000E-03 0. -1.
        -11    1    3    3    0    0 -0.39197041661E+01  0.32964782049E+00  0.54599008772E+00  0.39712534384E+01  0.51100000000E-03 0.  1.
        -12    1    3    3    0    0 -0.63797555591E+00 -0.39253896410E+01 -0.10836118174E+02  0.11542839934E+02  0.00000000000E+00 0.  1.
</event>
<event>
 7    1  0.2598019E-009  0.4778727E+02  0.7816164E-02  0.1312668E+00
        -11   -1    0    0    0    0  0.00000000000E+00  0.00000000000E+00  0.45593999997E+02  0.45594000000E+02  0.51100000000E-03 0.  1.
         11   -1    0    0    0    0 -0.00000000000E+00 -0.00000000000E+00 -0.45593999997E+02  0.45594000000E+02  0.51100000000E-03 0. -1.
    9900012    2    1    2    0    0 -0.14095443365E+02 -0.17993126678E+02 -0.36894294726E+02  0.47787272879E+02  0.20000008364E+02 0.  0.
        -12    1    1    2    0    0  0.14095443365E+02  0.17993126678E+02  0.36894294726E+02  0.43400727121E+02  0.00000000000E+00 0.  1.
         11    1    3    3    0    0  0.26668783408E-01 -0.36903536493E+01 -0.13669311396E+01  0.39354697664E+01  0.51100000000E-03 0. -1.
        -11    1    3    3    0    0 -0.85653699124E-01  0.27775085905E+01 -0.12124602450E+01  0.30318229885E+01  0.51100000000E-03 0.  1.
        -12    1    3    3    0    0 -0.14036458450E+02 -0.17080281619E+02 -0.34314903341E+02  0.40819980124E+02  0.00000000000E+00 0.  1.
</event>
<event>
 7    1  0.2598019E-009  0.4778726E+02  0.7816164E-02  0.1312668E+00
        -11   -1    0    0    0    0  0.00000000000E+00  0.00000000000E+00  0.45593999997E+02  0.45594000000E+02  0.51100000000E-03 0.  1.
         11   -1    0    0    0    0 -0.00000000000E+00 -0.00000000000E+00 -0.45593999997E+02  0.45594000000E+02  0.51100000000E-03 0. -1.
    9900012    2    1    2    0    0 -0.35126120815E+02  0.53804718856E+01  0.24916468967E+02  0.47787259603E+02  0.19999947834E+02 0.  0.
        -12    1    1    2    0    0  0.35126120815E+02 -0.53804718856E+01 -0.24916468967E+02  0.43400740397E+02  0.00000000000E+00 0.  1.
         11    1    3    3    0    0 -0.17289036897E+02 -0.28532225352E+01  0.67945663896E+01  0.18794089718E+02  0.51100000000E-03 0. -1.
        -11    1    3    3    0    0 -0.18154034031E+02  0.96732938308E+01  0.14746985613E+02  0.25310376332E+02  0.51100000000E-03 0.  1.
        -12    1    3    3    0    0  0.31695011289E+00 -0.14395994099E+01  0.33749169645E+01  0.36827935527E+01  0.00000000000E+00 0.  1.
</event>
<event>
 7    1  0.2598019E-009  0.4778727E+02  0.7816164E-02  0.1312668E+00
        -11   -1    0    0    0    0  0.00000000000E+00  0.00000000000E+00  0.45593999997E+02  0.45594000000E+02  0.51100000000E-03 0.  1.
         11   -1    0    0    0    0 -0.00000000000E+00 -0.00000000000E+00 -0.45593999997E+02  0.45594000000E+02  0.51100000000E-03 0. -1.
    9900012    2    1    2    0    0 -0.38503088479E+02  0.16183459516E+02  0.11799610428E+02  0.47787274309E+02  0.20000014882E+02 0.  0.
        -12    1    1    2    0    0  0.38503088479E+02 -0.16183459516E+02 -0.11799610428E+02  0.43400725691E+02  0.00000000000E+00 0.  1.
         11    1    3    3    0    0 -0.16447403759E+02  0.93243336206E+01  0.38468216030E+01  0.19293997113E+02  0.51100000000E-03 0. -1.
        -11    1    3    3    0    0 -0.10793770333E+02  0.49543005169E+01  0.11501476077E+02  0.16532831694E+02  0.51100000000E-03 0.  1.
        -12    1    3    3    0    0 -0.11261914387E+02  0.19048253780E+01 -0.35486872527E+01  0.11960445501E+02  0.00000000000E+00 0.  1.
</event>
<event>
 7    1  0.2598019E-009  0.4778728E+02  0.7816164E-02  0.1312668E+00
        -11   -1    0    0    0    0  0.00000000000E+00  0.00000000000E+00  0.45593999997E+02  0.45594000000E+02  0.51100000000E-03 0. -1.
         11   -1    0    0    0    0 -0.00000000000E+00 -0.00000000000E+00 -0.45593999997E+02  0.45594000000E+02  0.51100000000E-03 0.  1.
    9900012    2    1    2    0    0  0.23885200380E+02 -0.20851732030E+02  0.29636550397E+02  0.47787278286E+02  0.20000033019E+02 0.  0.
        -12    1    1    2    0    0 -0.23885200380E+02  0.20851732030E+02 -0.29636550397E+02  0.43400721714E+02  0.00000000000E+00 0.  1.
         11    1    3    3    0    0  0.90902780572E+01 -0.94034194973E+01  0.19123191947E+02  0.23167950360E+02  0.51100000000E-03 0. -1.
        -11    1    3    3    0    0  0.90978346445E+01 -0.55086989640E+01 -0.75845116699E+00  0.10662626690E+02  0.51100000000E-03 0.  1.
        -12    1    3    3    0    0  0.56970876778E+01 -0.59396135689E+01  0.11271809617E+02  0.13956701236E+02  0.00000000000E+00 0.  1.
</event>
<event>
 7    1  0.2598019E-009  0.4778726E+02  0.7816164E-02  0.1312668E+00
        -11   -1    0    0    0    0  0.00000000000E+00  0.00000000000E+00  0.45593999997E+02  0.45594000000E+02  0.51100000000E-03 0.  1.
         11   -1    0    0    0    0 -0.00000000000E+00 -0.00000000000E+00 -0.45593999997E+02  0.45594000000E+02  0.51100000000E-03 0. -1.
    9900012    2    1    2    0    0 -0.34659158740E+01 -0.32395631636E+02 -0.28672885902E+02  0.47787263741E+02  0.19999966699E+02 0.  0.
        -12    1    1    2    0    0  0.34659158740E+01  0.32395631636E+02  0.28672885902E+02  0.43400736259E+02  0.00000000000E+00 0.  1.
         11    1    3    3    0    0 -0.58733150454E+01 -0.23298482409E+02 -0.14704388588E+02  0.28169738305E+02  0.51100000000E-03 0. -1.
        -11    1    3    3    0    0 -0.24768813910E+01  0.68812882709E+00 -0.43512612931E+01  0.50539032252E+01  0.51100000000E-03 0.  1.
         12    1    3    3    0    0  0.48842805624E+01 -0.97852780535E+01 -0.96172360208E+01  0.14563622210E+02  0.00000000000E+00 0. -1.
</event>
<event>
 7    1  0.2598019E-009  0.4778727E+02  0.7816164E-02  0.1312668E+00
        -11   -1    0    0    0    0  0.00000000000E+00  0.00000000000E+00  0.45593999997E+02  0.45594000000E+02  0.51100000000E-03 0.  1.
         11   -1    0    0    0    0 -0.00000000000E+00 -0.00000000000E+00 -0.45593999997E+02  0.45594000000E+02  0.51100000000E-03 0. -1.
    9900012    2    1    2    0    0  0.27042260981E+02 -0.90087676395E+01 -0.32728912380E+02  0.47787268683E+02  0.19999989231E+02 0.  0.
        -12    1    1    2    0    0 -0.27042260981E+02  0.90087676395E+01  0.32728912380E+02  0.43400731317E+02  0.00000000000E+00 0.  1.
         11    1    3    3    0    0  0.26093563013E+01 -0.50879980536E+01 -0.14426270287E+02  0.15518174479E+02  0.51100000000E-03 0.  1.
        -11    1    3    3    0    0  0.19061183753E+02 -0.28358777385E+01 -0.18597084392E+02  0.26781009629E+02  0.51100000000E-03 0. -1.
         12    1    3    3    0    0  0.53717209264E+01 -0.10848918473E+01  0.29444229910E+00  0.54880845747E+01  0.00000000000E+00 0. -1.
</event>
<event>
 7    1  0.2598019E-009  0.4778728E+02  0.7816164E-02  0.1312668E+00
        -11   -1    0    0    0    0  0.00000000000E+00  0.00000000000E+00  0.45593999997E+02  0.45594000000E+02  0.51100000000E-03 0. -1.
         11   -1    0    0    0    0 -0.00000000000E+00 -0.00000000000E+00 -0.45593999997E+02  0.45594000000E+02  0.51100000000E-03 0.  1.
    9900012    2    1    2    0    0 -0.38400492491E+02 -0.19572899386E+02  0.50918253864E+01  0.47787275355E+02  0.20000019656E+02 0.  0.
        -12    1    1    2    0    0  0.38400492491E+02  0.19572899386E+02 -0.50918253864E+01  0.43400724645E+02  0.00000000000E+00 0.  1.
         11    1    3    3    0    0 -0.22514576172E+02 -0.14486519407E+02  0.71889036803E+01  0.27720853543E+02  0.51100000000E-03 0. -1.
        -11    1    3    3    0    0 -0.12587640455E+02 -0.15977410109E+01 -0.58504121157E+01  0.13972429665E+02  0.51100000000E-03 0.  1.
        -12    1    3    3    0    0 -0.32982758639E+01 -0.34886389678E+01  0.37533338218E+01  0.60939921480E+01  0.00000000000E+00 0.  1.
</event>
<event>
 7    1  0.2598019E-009  0.4778727E+02  0.7816164E-02  0.1312668E+00
        -11   -1    0    0    0    0  0.00000000000E+00  0.00000000000E+00  0.45593999997E+02  0.45594000000E+02  0.51100000000E-03 0.  1.
         11   -1    0    0    0    0 -0.00000000000E+00 -0.00000000000E+00 -0.45593999997E+02  0.45594000000E+02  0.51100000000E-03 0. -1.
    9900012    2    1    2    0    0  0.98853530144E+01  0.78965689607E+01 -0.41515628429E+02  0.47787269483E+02  0.19999992880E+02 0.  0.
        -12    1    1    2    0    0 -0.98853530144E+01 -0.78965689607E+01  0.41515628429E+02  0.43400730517E+02  0.00000000000E+00 0.  1.
         11    1    3    3    0    0  0.16717178074E+00 -0.18286352932E+01 -0.12651106605E+02  0.12783675216E+02  0.51100000000E-03 0. -1.
        -11    1    3    3    0    0  0.41137793685E+01  0.95147417877E+01 -0.71905346150E+01  0.12615755241E+02  0.51100000000E-03 0.  1.
        -12    1    3    3    0    0  0.56044018651E+01  0.21046246611E+00 -0.21673987209E+02  0.22387839026E+02  0.00000000000E+00 0.  1.
</event>
<event>
 7    1  0.2598019E-009  0.4778727E+02  0.7816164E-02  0.1312668E+00
        -11   -1    0    0    0    0  0.00000000000E+00  0.00000000000E+00  0.45593999997E+02  0.45594000000E+02  0.51100000000E-03 0.  1.
         11   -1    0    0    0    0 -0.00000000000E+00 -0.00000000000E+00 -0.45593999997E+02  0.45594000000E+02  0.51100000000E-03 0. -1.
    9900012    2    1    2    0    0 -0.18553612201E+02  0.35414302891E+02 -0.16888274027E+02  0.47787272188E+02  0.20000005216E+02 0.  0.
        -12    1    1    2    0    0  0.18553612201E+02 -0.35414302891E+02  0.16888274027E+02  0.43400727812E+02  0.00000000000E+00 0.  1.
         11    1    3    3    0    0 -0.46569024415E+01  0.48104131375E+00 -0.47347521045E+01  0.66585297812E+01  0.51100000000E-03 0. -1.
        -11    1    3    3    0    0 -0.11846887023E+02  0.30126822187E+02 -0.14412853950E+02  0.35435921132E+02  0.51100000000E-03 0.  1.
        -12    1    3    3    0    0 -0.20498227364E+01  0.48064393901E+01  0.22593320274E+01  0.56928212752E+01  0.00000000000E+00 0.  1.
</event>
<event>
 7    1  0.2598019E-009  0.4778727E+02  0.7816164E-02  0.1312668E+00
        -11   -1    0    0    0    0  0.00000000000E+00  0.00000000000E+00  0.45593999997E+02  0.45594000000E+02  0.51100000000E-03 0. -1.
         11   -1    0    0    0    0 -0.00000000000E+00 -0.00000000000E+00 -0.45593999997E+02  0.45594000000E+02  0.51100000000E-03 0.  1.
    9900012    2    1    2    0    0 -0.82564684262E+01  0.26993482689E+02  0.32966741021E+02  0.47787269682E+02  0.19999993788E+02 0.  0.
        -12    1    1    2    0    0  0.82564684262E+01 -0.26993482689E+02 -0.32966741021E+02  0.43400730318E+02  0.00000000000E+00 0.  1.
         11    1    3    3    0    0  0.35521384898E+01  0.17465290617E+01  0.74642856803E+01  0.84488823280E+01  0.51100000000E-03 0.  1.
        -11    1    3    3    0    0 -0.13101248703E+02  0.17357506337E+02  0.16495755905E+02  0.27295342221E+02  0.51100000000E-03 0. -1.
         12    1    3    3    0    0  0.12926417873E+01  0.78894472909E+01  0.90066994364E+01  0.12043045133E+02  0.00000000000E+00 0. -1.
</event>
<event>
 7    1  0.2598019E-009  0.4778727E+02  0.7816164E-02  0.1312668E+00
        -11   -1    0    0    0    0  0.00000000000E+00  0.00000000000E+00  0.45593999997E+02  0.45594000000E+02  0.51100000000E-03 0.  1.
         11   -1    0    0    0    0 -0.00000000000E+00 -0.00000000000E+00 -0.45593999997E+02  0.45594000000E+02  0.51100000000E-03 0. -1.
    9900012    2    1    2    0    0 -0.16980476988E+02  0.38623787545E+02  0.10172985339E+02  0.47787271968E+02  0.20000004210E+02 0.  0.
        -12    1    1    2    0    0  0.16980476988E+02 -0.38623787545E+02 -0.10172985339E+02  0.43400728032E+02  0.00000000000E+00 0.  1.
         11    1    3    3    0    0  0.33490333569E+00  0.11122186887E+01 -0.36483694362E+01  0.38288105803E+01  0.51100000000E-03 0. -1.
        -11    1    3    3    0    0 -0.65108150847E+01  0.17777005998E+02  0.37091631780E+01  0.19291722242E+02  0.51100000000E-03 0.  1.
         12    1    3    3    0    0 -0.10804565239E+02  0.19734562858E+02  0.10112191597E+02  0.24666739145E+02  0.00000000000E+00 0. -1.
</event>
<event>
 7    1  0.2598019E-009  0.4778727E+02  0.7816164E-02  0.1312668E+00
        -11   -1    0    0    0    0  0.00000000000E+00  0.00000000000E+00  0.45593999997E+02  0.45594000000E+02  0.51100000000E-03 0. -1.
         11   -1    0    0    0    0 -0.00000000000E+00 -0.00000000000E+00 -0.45593999997E+02  0.45594000000E+02  0.51100000000E-03 0.  1.
    9900012    2    1    2    0    0 -0.26835287710E+02  0.28144050415E+02  0.19271825245E+02  0.47787268571E+02  0.19999988725E+02 0.  0.
        -12    1    1    2    0    0  0.26835287710E+02 -0.28144050415E+02 -0.19271825245E+02  0.43400731429E+02  0.00000000000E+00 0.  1.
         11    1    3    3    0    0 -0.20220054443E+02  0.19930079833E+02  0.18973754729E+02  0.34147650763E+02  0.51100000000E-03 0. -1.
        -11    1    3    3    0    0 -0.84789766629E+01  0.73255017970E+01 -0.91919534121E+00  0.11242817359E+02  0.51100000000E-03 0.  1.
         12    1    3    3    0    0  0.18637433960E+01  0.88846878460E+00  0.12172658575E+01  0.23968004496E+01  0.00000000000E+00 0. -1.
</event>
<event>
 7    1  0.2598019E-009  0.4778727E+02  0.7816164E-02  0.1312668E+00
        -11   -1    0    0    0    0  0.00000000000E+00  0.00000000000E+00  0.45593999997E+02  0.45594000000E+02  0.51100000000E-03 0.  1.
         11   -1    0    0    0    0 -0.00000000000E+00 -0.00000000000E+00 -0.45593999997E+02  0.45594000000E+02  0.51100000000E-03 0. -1.
    9900012    2    1    2    0    0 -0.23027203663E+01 -0.21031821138E+02 -0.37894373512E+02  0.47787267687E+02  0.19999984691E+02 0.  0.
        -12    1    1    2    0    0  0.23027203663E+01  0.21031821138E+02  0.37894373512E+02  0.43400732313E+02  0.00000000000E+00 0.  1.
         11    1    3    3    0    0 -0.55921359493E+00 -0.16428329173E+02 -0.39053400812E+02  0.42371816512E+02  0.51100000000E-03 0. -1.
        -11    1    3    3    0    0 -0.58951185297E+00 -0.25028963662E+01 -0.33210723567E+00  0.25927417770E+01  0.51100000000E-03 0.  1.
         12    1    3    3    0    0 -0.11539949184E+01 -0.21005955990E+01  0.14911345358E+01  0.28227093981E+01  0.00000000000E+00 0. -1.
</event>
<event>
 7    1  0.2598019E-009  0.4778727E+02  0.7816164E-02  0.1312668E+00
        -11   -1    0    0    0    0  0.00000000000E+00  0.00000000000E+00  0.45593999997E+02  0.45594000000E+02  0.51100000000E-03 0.  1.
         11   -1    0    0    0    0 -0.00000000000E+00 -0.00000000000E+00 -0.45593999997E+02  0.45594000000E+02  0.51100000000E-03 0. -1.
    9900012    2    1    2    0    0 -0.27087744928E+02 -0.32332085994E+02 -0.10223185927E+02  0.47787271429E+02  0.20000001753E+02 0.  0.
        -12    1    1    2    0    0  0.27087744928E+02  0.32332085994E+02  0.10223185927E+02  0.43400728571E+02  0.00000000000E+00 0.  1.
         11    1    3    3    0    0 -0.70233573892E+01 -0.23302837530E+02 -0.43034576198E+01  0.24715774997E+02  0.51100000000E-03 0. -1.
        -11    1    3    3    0    0 -0.46760456475E+01 -0.67812993098E+00 -0.54243173729E+00  0.47559957476E+01  0.51100000000E-03 0.  1.
         12    1    3    3    0    0 -0.15388341891E+02 -0.83511185332E+01 -0.53772965700E+01  0.18315500684E+02  0.00000000000E+00 0. -1.
</event>
<event>
 7    1  0.2598019E-009  0.4778727E+02  0.7816164E-02  0.1312668E+00
        -11   -1    0    0    0    0  0.00000000000E+00  0.00000000000E+00  0.45593999997E+02  0.45594000000E+02  0.51100000000E-03 0. -1.
         11   -1    0    0    0    0 -0.00000000000E+00 -0.00000000000E+00 -0.45593999997E+02  0.45594000000E+02  0.51100000000E-03 0.  1.
    9900012    2    1    2    0    0  0.13067416756E+02  0.35544065063E+02  0.21201069131E+02  0.47787271041E+02  0.19999999982E+02 0.  0.
        -12    1    1    2    0    0 -0.13067416756E+02 -0.35544065063E+02 -0.21201069131E+02  0.43400728959E+02  0.00000000000E+00 0.  1.
         11    1    3    3    0    0  0.12125005400E+02  0.21365025153E+02  0.19834302208E+02  0.31573400198E+02  0.51100000000E-03 0.  1.
        -11    1    3    3    0    0 -0.85203988457E+00  0.14323096979E+02  0.10581230254E+01  0.14387380013E+02  0.51100000000E-03 0. -1.
        -12    1    3    3    0    0  0.17944512406E+01 -0.14405706871E+00  0.30864389751E+00  0.18264908293E+01  0.00000000000E+00 0.  1.
</event>
<event>
 7    1  0.2598019E-009  0.4778727E+02  0.7816164E-02  0.1312668E+00
        -11   -1    0    0    0    0  0.00000000000E+00  0.00000000000E+00  0.45593999997E+02  0.45594000000E+02  0.51100000000E-03 0.  1.
         11   -1    0    0    0    0 -0.00000000000E+00 -0.00000000000E+00 -0.45593999997E+02  0.45594000000E+02  0.51100000000E-03 0. -1.
    9900012    2    1    2    0    0 -0.17741517323E+02  0.31545755847E+02 -0.23952605366E+02  0.47787268984E+02  0.19999990606E+02 0.  0.
        -12    1    1    2    0    0  0.17741517323E+02 -0.31545755847E+02  0.23952605366E+02  0.43400731016E+02  0.00000000000E+00 0.  1.
         11    1    3    3    0    0 -0.95994015622E+01  0.28201126566E+02 -0.16395135179E+02  0.34003713147E+02  0.51100000000E-03 0. -1.
        -11    1    3    3    0    0 -0.25342034454E+01  0.27517402316E+01  0.67857871219E+00  0.38019377605E+01  0.51100000000E-03 0.  1.
         12    1    3    3    0    0 -0.56079123151E+01  0.59288904928E+00 -0.82360488991E+01  0.99816180766E+01  0.00000000000E+00 0. -1.
</event>
<event>
 7    1  0.2598019E-009  0.4778727E+02  0.7816164E-02  0.1312668E+00
        -11   -1    0    0    0    0  0.00000000000E+00  0.00000000000E+00  0.45593999997E+02  0.45594000000E+02  0.51100000000E-03 0.  1.
         11   -1    0    0    0    0 -0.00000000000E+00 -0.00000000000E+00 -0.45593999997E+02  0.45594000000E+02  0.51100000000E-03 0. -1.
    9900012    2    1    2    0    0 -0.18415794747E+02  0.63737727247E+01 -0.38779593458E+02  0.47787270241E+02  0.19999996335E+02 0.  0.
        -12    1    1    2    0    0  0.18415794747E+02 -0.63737727247E+01  0.38779593458E+02  0.43400729759E+02  0.00000000000E+00 0.  1.
         11    1    3    3    0    0 -0.17178358992E+02  0.10697224425E+02 -0.26263897253E+02  0.33155978755E+02  0.51100000000E-03 0. -1.
        -11    1    3    3    0    0  0.99924392316E+00 -0.16402592106E+01 -0.32244827106E+00  0.19475399468E+01  0.51100000000E-03 0.  1.
         12    1    3    3    0    0 -0.22366796781E+01 -0.26831924897E+01 -0.12193247934E+02  0.12683751539E+02  0.00000000000E+00 0. -1.
</event>
<event>
 7    1  0.2598019E-009  0.4778727E+02  0.7816164E-02  0.1312668E+00
        -11   -1    0    0    0    0  0.00000000000E+00  0.00000000000E+00  0.45593999997E+02  0.45594000000E+02  0.51100000000E-03 0.  1.
         11   -1    0    0    0    0 -0.00000000000E+00 -0.00000000000E+00 -0.45593999997E+02  0.45594000000E+02  0.51100000000E-03 0. -1.
    9900012    2    1    2    0    0  0.98418849351E+01  0.77096115096E+01 -0.41561068740E+02  0.47787271394E+02  0.20000001595E+02 0.  0.
        -12    1    1    2    0    0 -0.98418849351E+01 -0.77096115096E+01  0.41561068740E+02  0.43400728606E+02  0.00000000000E+00 0.  1.
         11    1    3    3    0    0  0.93655025981E+01 -0.35227032588E+01 -0.23634808310E+02  0.25665662689E+02  0.51100000000E-03 0. -1.
        -11    1    3    3    0    0  0.28763723583E+01  0.77026111323E+01 -0.87822891331E+01  0.12030475422E+02  0.51100000000E-03 0.  1.
         12    1    3    3    0    0 -0.23999900213E+01  0.35297036362E+01 -0.91439712967E+01  0.10091133283E+02  0.00000000000E+00 0. -1.
</event>
<event>
 7    1  0.2598019E-009  0.4778727E+02  0.7816164E-02  0.1312668E+00
        -11   -1    0    0    0    0  0.00000000000E+00  0.00000000000E+00  0.45593999997E+02  0.45594000000E+02  0.51100000000E-03 0.  1.
         11   -1    0    0    0    0 -0.00000000000E+00 -0.00000000000E+00 -0.45593999997E+02  0.45594000000E+02  0.51100000000E-03 0. -1.
    9900012    2    1    2    0    0  0.29732780677E+02  0.29522589089E+02  0.11313799525E+02  0.47787267598E+02  0.19999984288E+02 0.  0.
        -12    1    1    2    0    0 -0.29732780677E+02 -0.29522589089E+02 -0.11313799525E+02  0.43400732402E+02  0.00000000000E+00 0.  1.
         11    1    3    3    0    0  0.11988362797E+02  0.11528956154E+02 -0.22170947250E+01  0.16779546532E+02  0.51100000000E-03 0. -1.
        -11    1    3    3    0    0  0.19084086021E+02  0.18385251185E+02  0.12973960244E+02  0.29504973226E+02  0.51100000000E-03 0.  1.
        -12    1    3    3    0    0 -0.13396681411E+01 -0.39161825056E+00  0.55693400616E+00  0.15027478397E+01  0.00000000000E+00 0.  1.
</event>
<event>
 7    1  0.2598019E-009  0.4778727E+02  0.7816164E-02  0.1312668E+00
        -11   -1    0    0    0    0  0.00000000000E+00  0.00000000000E+00  0.45593999997E+02  0.45594000000E+02  0.51100000000E-03 0. -1.
         11   -1    0    0    0    0 -0.00000000000E+00 -0.00000000000E+00 -0.45593999997E+02  0.45594000000E+02  0.51100000000E-03 0.  1.
    9900012    2    1    2    0    0  0.76455972549E+01  0.34649242992E+02  0.24991956500E+02  0.47787273197E+02  0.20000009815E+02 0.  0.
        -12    1    1    2    0    0 -0.76455972549E+01 -0.34649242992E+02 -0.24991956500E+02  0.43400726803E+02  0.00000000000E+00 0.  1.
         11    1    3    3    0    0  0.10961339455E+02  0.17789730038E+02  0.17198774749E+02  0.27063320391E+02  0.51100000000E-03 0. -1.
        -11    1    3    3    0    0 -0.35640365473E+01  0.29034020916E+01 -0.26859221023E+00  0.46048064294E+01  0.51100000000E-03 0.  1.
         12    1    3    3    0    0  0.24829434703E+00  0.13956110863E+02  0.80617739617E+01  0.16119146377E+02  0.00000000000E+00 0. -1.
</event>
<event>
 7    1  0.2598019E-009  0.4778727E+02  0.7816164E-02  0.1312668E+00
        -11   -1    0    0    0    0  0.00000000000E+00  0.00000000000E+00  0.45593999997E+02  0.45594000000E+02  0.51100000000E-03 0.  1.
         11   -1    0    0    0    0 -0.00000000000E+00 -0.00000000000E+00 -0.45593999997E+02  0.45594000000E+02  0.51100000000E-03 0. -1.
    9900012    2    1    2    0    0 -0.84341812549E+01 -0.40135169661E+02 -0.14200558195E+02  0.47787272930E+02  0.20000008599E+02 0.  0.
        -12    1    1    2    0    0  0.84341812549E+01  0.40135169661E+02  0.14200558195E+02  0.43400727070E+02  0.00000000000E+00 0.  1.
         11    1    3    3    0    0 -0.34924793716E+01 -0.73718364982E+00 -0.45081825246E+01  0.57501792868E+01  0.51100000000E-03 0. -1.
        -11    1    3    3    0    0 -0.19670674224E+01 -0.13381021525E+01 -0.19679600365E+01  0.30875133330E+01  0.51100000000E-03 0.  1.
         12    1    3    3    0    0 -0.29746344608E+01 -0.38059883858E+02 -0.77244156336E+01  0.38949580311E+02  0.00000000000E+00 0. -1.
</event>
<event>
 7    1  0.2598019E-009  0.4778727E+02  0.7816164E-02  0.1312668E+00
        -11   -1    0    0    0    0  0.00000000000E+00  0.00000000000E+00  0.45593999997E+02  0.45594000000E+02  0.51100000000E-03 0.  1.
         11   -1    0    0    0    0 -0.00000000000E+00 -0.00000000000E+00 -0.45593999997E+02  0.45594000000E+02  0.51100000000E-03 0. -1.
    9900012    2    1    2    0    0 -0.43948971700E+01 -0.41606599956E+02 -0.11541208925E+02  0.47787265162E+02  0.19999973180E+02 0.  0.
        -12    1    1    2    0    0  0.43948971700E+01  0.41606599956E+02  0.11541208925E+02  0.43400734838E+02  0.00000000000E+00 0.  1.
         11    1    3    3    0    0 -0.54708476052E+01 -0.11378217417E+02 -0.36927064863E+01  0.13154090108E+02  0.51100000000E-03 0. -1.
        -11    1    3    3    0    0 -0.91651937869E+00  0.11955588089E+01  0.11390008919E+01  0.18885687518E+01  0.51100000000E-03 0.  1.
        -12    1    3    3    0    0  0.19924698138E+01 -0.31423941347E+02 -0.89875033309E+01  0.32744606302E+02  0.00000000000E+00 0.  1.
</event>
<event>
 7    1  0.2598019E-009  0.4778728E+02  0.7816164E-02  0.1312668E+00
        -11   -1    0    0    0    0  0.00000000000E+00  0.00000000000E+00  0.45593999997E+02  0.45594000000E+02  0.51100000000E-03 0.  1.
         11   -1    0    0    0    0 -0.00000000000E+00 -0.00000000000E+00 -0.45593999997E+02  0.45594000000E+02  0.51100000000E-03 0. -1.
    9900012    2    1    2    0    0  0.20604518721E+02  0.19304194640E+02 -0.32960957594E+02  0.47787275951E+02  0.20000022371E+02 0.  0.
        -12    1    1    2    0    0 -0.20604518721E+02 -0.19304194640E+02  0.32960957594E+02  0.43400724049E+02  0.00000000000E+00 0.  1.
         11    1    3    3    0    0  0.60395126674E+01  0.23835220496E+01 -0.36273194073E+01  0.74373608871E+01  0.51100000000E-03 0. -1.
        -11    1    3    3    0    0 -0.12733252503E+01  0.58362737221E+01 -0.10107379898E+01  0.60584684284E+01  0.51100000000E-03 0.  1.
        -12    1    3    3    0    0  0.15838331304E+02  0.11084398869E+02 -0.28322900197E+02  0.34291446636E+02  0.00000000000E+00 0.  1.
</event>
<event>
 7    1  0.2598019E-009  0.4778727E+02  0.7816164E-02  0.1312668E+00
        -11   -1    0    0    0    0  0.00000000000E+00  0.00000000000E+00  0.45593999997E+02  0.45594000000E+02  0.51100000000E-03 0.  1.
         11   -1    0    0    0    0 -0.00000000000E+00 -0.00000000000E+00 -0.45593999997E+02  0.45594000000E+02  0.51100000000E-03 0. -1.
    9900012    2    1    2    0    0 -0.41322370716E+02  0.13163743237E+02 -0.16734676412E+01  0.47787274758E+02  0.20000016931E+02 0.  0.
        -12    1    1    2    0    0  0.41322370716E+02 -0.13163743237E+02  0.16734676412E+01  0.43400725242E+02  0.00000000000E+00 0.  1.
         11    1    3    3    0    0 -0.61835253695E+01 -0.11887940357E+01 -0.11731750117E+01  0.64051196027E+01  0.51100000000E-03 0.  1.
        -11    1    3    3    0    0 -0.36517180367E+02  0.11935708116E+02  0.51135017248E+00  0.38421700501E+02  0.51100000000E-03 0. -1.
        -12    1    3    3    0    0  0.13783350201E+01  0.24168291563E+01 -0.10116428021E+01  0.29604546538E+01  0.00000000000E+00 0.  1.
</event>
<event>
 7    1  0.2598019E-009  0.4778727E+02  0.7816164E-02  0.1312668E+00
        -11   -1    0    0    0    0  0.00000000000E+00  0.00000000000E+00  0.45593999997E+02  0.45594000000E+02  0.51100000000E-03 0. -1.
         11   -1    0    0    0    0 -0.00000000000E+00 -0.00000000000E+00 -0.45593999997E+02  0.45594000000E+02  0.51100000000E-03 0.  1.
    9900012    2    1    2    0    0 -0.34914233786E+02  0.25235428209E+02  0.52718549709E+01  0.47787274054E+02  0.20000013724E+02 0.  0.
        -12    1    1    2    0    0  0.34914233786E+02 -0.25235428209E+02 -0.52718549709E+01  0.43400725946E+02  0.00000000000E+00 0.  1.
         11    1    3    3    0    0 -0.10796155445E+02  0.36334929347E+01  0.29133287868E+01  0.11757836883E+02  0.51100000000E-03 0. -1.
        -11    1    3    3    0    0 -0.14567870695E+02  0.85932311378E+01 -0.58848110346E+01  0.17908028343E+02  0.51100000000E-03 0.  1.
        -12    1    3    3    0    0 -0.95502076464E+01  0.13008704136E+02  0.82433372187E+01  0.18121408828E+02  0.00000000000E+00 0.  1.
</event>
<event>
 7    1  0.1940001E-008  0.4778727E+02  0.7816164E-02  0.1312668E+00
        -11   -1    0    0    0    0  0.00000000000E+00  0.00000000000E+00  0.45593999997E+02  0.45594000000E+02  0.51100000000E-03 0.  1.
         11   -1    0    0    0    0 -0.00000000000E+00 -0.00000000000E+00 -0.45593999997E+02  0.45594000000E+02  0.51100000000E-03 0. -1.
    9900012    2    1    2    0    0  0.72507415354E+00  0.39256156265E+02 -0.18494641376E+02  0.47787270780E+02  0.19999998793E+02 0.  0.
        -12    1    1    2    0    0 -0.72507415354E+00 -0.39256156265E+02  0.18494641376E+02  0.43400729220E+02  0.00000000000E+00 0.  1.
         11    1    3    3    0    0 -0.70887940892E+01  0.11589269645E+02 -0.87283127030E+01  0.16147619497E+02  0.51100000000E-03 0. -1.
        -11    1    3    3    0    0  0.43624904262E+01  0.47001165869E+01 -0.44753814090E+01  0.78199397483E+01  0.51100000000E-03 0.  1.
         12    1    3    3    0    0  0.34513778165E+01  0.22966770034E+02 -0.52909472640E+01  0.23819711534E+02  0.00000000000E+00 0. -1.
</event>
<event>
 7    1  0.2598019E-009  0.4778728E+02  0.7816164E-02  0.1312668E+00
        -11   -1    0    0    0    0  0.00000000000E+00  0.00000000000E+00  0.45593999997E+02  0.45594000000E+02  0.51100000000E-03 0.  1.
         11   -1    0    0    0    0 -0.00000000000E+00 -0.00000000000E+00 -0.45593999997E+02  0.45594000000E+02  0.51100000000E-03 0. -1.
    9900012    2    1    2    0    0  0.40819869967E+02 -0.11782606524E+02  0.88617838154E+01  0.47787276354E+02  0.20000024209E+02 0.  0.
        -12    1    1    2    0    0 -0.40819869967E+02  0.11782606524E+02 -0.88617838154E+01  0.43400723646E+02  0.00000000000E+00 0.  1.
         11    1    3    3    0    0  0.17484966803E+02 -0.86762258424E+01  0.12709258907E+02  0.23292192280E+02  0.51100000000E-03 0.  1.
        -11    1    3    3    0    0  0.10059341153E+02 -0.22802331721E+01 -0.43265734284E+01  0.11185215494E+02  0.51100000000E-03 0. -1.
        -12    1    3    3    0    0  0.13275562011E+02 -0.82614750978E+00  0.47909833626E+00  0.13309868581E+02  0.00000000000E+00 0.  1.
</event>
<event>
 7    1  0.2598019E-009  0.4778728E+02  0.7816164E-02  0.1312668E+00
        -11   -1    0    0    0    0  0.00000000000E+00  0.00000000000E+00  0.45593999997E+02  0.45594000000E+02  0.51100000000E-03 0. -1.
         11   -1    0    0    0    0 -0.00000000000E+00 -0.00000000000E+00 -0.45593999997E+02  0.45594000000E+02  0.51100000000E-03 0.  1.
    9900012    2    1    2    0    0  0.33908627657E+02 -0.12276956771E+02 -0.24147547275E+02  0.47787277235E+02  0.20000028225E+02 0.  0.
        -12    1    1    2    0    0 -0.33908627657E+02  0.12276956771E+02  0.24147547275E+02  0.43400722765E+02  0.00000000000E+00 0.  1.
         11    1    3    3    0    0  0.88920807951E+01 -0.25364042274E+01 -0.54171895122E+01  0.10716734099E+02  0.51100000000E-03 0. -1.
        -11    1    3    3    0    0  0.16424133315E+02  0.84561233335E+00 -0.38542929844E+01  0.16891500526E+02  0.51100000000E-03 0.  1.
        -12    1    3    3    0    0  0.85924135473E+01 -0.10586164877E+02 -0.14876064778E+02  0.20179042610E+02  0.00000000000E+00 0.  1.
</event>
<event>
 7    1  0.2598019E-009  0.4778727E+02  0.7816164E-02  0.1312668E+00
        -11   -1    0    0    0    0  0.00000000000E+00  0.00000000000E+00  0.45593999997E+02  0.45594000000E+02  0.51100000000E-03 0.  1.
         11   -1    0    0    0    0 -0.00000000000E+00 -0.00000000000E+00 -0.45593999997E+02  0.45594000000E+02  0.51100000000E-03 0. -1.
    9900012    2    1    2    0    0 -0.36186322566E+02  0.18696054081E+02 -0.14987690778E+02  0.47787271274E+02  0.20000001048E+02 0.  0.
        -12    1    1    2    0    0  0.36186322566E+02 -0.18696054081E+02  0.14987690778E+02  0.43400728726E+02  0.00000000000E+00 0.  1.
         11    1    3    3    0    0 -0.33604558720E+02  0.92777569290E+01 -0.12153799478E+02  0.36919615145E+02  0.51100000000E-03 0. -1.
        -11    1    3    3    0    0 -0.29236958692E+01  0.96190469972E+01 -0.29049404842E+01  0.10464833594E+02  0.51100000000E-03 0.  1.
         12    1    3    3    0    0  0.34193202372E+00 -0.20074984473E+00  0.71049183454E-01  0.40282253596E+00  0.00000000000E+00 0. -1.
</event>
<event>
 7    1  0.2598019E-009  0.4778729E+02  0.7816164E-02  0.1312668E+00
        -11   -1    0    0    0    0  0.00000000000E+00  0.00000000000E+00  0.45593999997E+02  0.45594000000E+02  0.51100000000E-03 0. -1.
         11   -1    0    0    0    0 -0.00000000000E+00 -0.00000000000E+00 -0.45593999997E+02  0.45594000000E+02  0.51100000000E-03 0.  1.
    9900012    2    1    2    0    0  0.28643329454E+02  0.30698843818E+02  0.10989196919E+02  0.47787288221E+02  0.20000078317E+02 0.  0.
        -12    1    1    2    0    0 -0.28643329454E+02 -0.30698843818E+02 -0.10989196919E+02  0.43400711779E+02  0.00000000000E+00 0.  1.
         11    1    3    3    0    0  0.21891456972E+02  0.19193234473E+02  0.12336106935E+02  0.31619545735E+02  0.51100000000E-03 0. -1.
        -11    1    3    3    0    0 -0.18209830953E+01  0.37217596066E+01  0.11957916313E+01  0.43124693494E+01  0.51100000000E-03 0.  1.
         12    1    3    3    0    0  0.85728555768E+01  0.77838497386E+01 -0.25427016476E+01  0.11855273137E+02  0.00000000000E+00 0. -1.
</event>
<event>
 7    1  0.2598019E-009  0.4778727E+02  0.7816164E-02  0.1312668E+00
        -11   -1    0    0    0    0  0.00000000000E+00  0.00000000000E+00  0.45593999997E+02  0.45594000000E+02  0.51100000000E-03 0.  1.
         11   -1    0    0    0    0 -0.00000000000E+00 -0.00000000000E+00 -0.45593999997E+02  0.45594000000E+02  0.51100000000E-03 0. -1.
    9900012    2    1    2    0    0  0.33936095341E+02 -0.80296068714E+01 -0.25835834250E+02  0.47787268614E+02  0.19999988918E+02 0.  0.
        -12    1    1    2    0    0 -0.33936095341E+02  0.80296068714E+01  0.25835834250E+02  0.43400731386E+02  0.00000000000E+00 0.  1.
         11    1    3    3    0    0  0.23634205284E+02 -0.47528278717E+01 -0.25041869275E+02  0.34760038107E+02  0.51100000000E-03 0. -1.
        -11    1    3    3    0    0  0.95130809029E+00  0.39402357556E+00  0.22969154118E+01  0.25171536168E+01  0.51100000000E-03 0.  1.
         12    1    3    3    0    0  0.93505819668E+01 -0.36708025753E+01 -0.30908803864E+01  0.10510076890E+02  0.00000000000E+00 0. -1.
</event>
<event>
 7    1  0.2598019E-009  0.4778727E+02  0.7816164E-02  0.1312668E+00
        -11   -1    0    0    0    0  0.00000000000E+00  0.00000000000E+00  0.45593999997E+02  0.45594000000E+02  0.51100000000E-03 0. -1.
         11   -1    0    0    0    0 -0.00000000000E+00 -0.00000000000E+00 -0.45593999997E+02  0.45594000000E+02  0.51100000000E-03 0.  1.
    9900012    2    1    2    0    0 -0.17289982257E+02 -0.38797485205E+02  0.89126182288E+01  0.47787272951E+02  0.20000008693E+02 0.  0.
        -12    1    1    2    0    0  0.17289982257E+02  0.38797485205E+02 -0.89126182288E+01  0.43400727049E+02  0.00000000000E+00 0.  1.
         11    1    3    3    0    0 -0.87378593931E+01 -0.25159173685E+02  0.11757779911E+02  0.29113220296E+02  0.51100000000E-03 0. -1.
        -11    1    3    3    0    0 -0.35942908533E+01 -0.11008385935E+02 -0.50640487673E+01  0.12639148619E+02  0.51100000000E-03 0.  1.
        -12    1    3    3    0    0 -0.49578320109E+01 -0.26299255840E+01  0.22188870852E+01  0.60349040359E+01  0.00000000000E+00 0.  1.
</event>
<event>
 7    1  0.2598019E-009  0.4778727E+02  0.7816164E-02  0.1312668E+00
        -11   -1    0    0    0    0  0.00000000000E+00  0.00000000000E+00  0.45593999997E+02  0.45594000000E+02  0.51100000000E-03 0.  1.
         11   -1    0    0    0    0 -0.00000000000E+00 -0.00000000000E+00 -0.45593999997E+02  0.45594000000E+02  0.51100000000E-03 0. -1.
    9900012    2    1    2    0    0 -0.29467085929E+02  0.73669342693E+01 -0.31000685191E+02  0.47787270098E+02  0.19999995687E+02 0.  0.
        -12    1    1    2    0    0  0.29467085929E+02 -0.73669342693E+01  0.31000685191E+02  0.43400729902E+02  0.00000000000E+00 0.  1.
         11    1    3    3    0    0 -0.81738932125E+01  0.40465789757E+01 -0.22135952594E+02  0.23941339335E+02  0.51100000000E-03 0. -1.
        -11    1    3    3    0    0 -0.66820748138E+01 -0.63076236483E+00 -0.99108516774E+00  0.67845585744E+01  0.51100000000E-03 0.  1.
         12    1    3    3    0    0 -0.14611117903E+02  0.39511176584E+01 -0.78736474288E+01  0.17061372189E+02  0.00000000000E+00 0. -1.
</event>
<event>
 7    1  0.2598019E-009  0.4778727E+02  0.7816164E-02  0.1312668E+00
        -11   -1    0    0    0    0  0.00000000000E+00  0.00000000000E+00  0.45593999997E+02  0.45594000000E+02  0.51100000000E-03 0.  1.
         11   -1    0    0    0    0 -0.00000000000E+00 -0.00000000000E+00 -0.45593999997E+02  0.45594000000E+02  0.51100000000E-03 0. -1.
    9900012    2    1    2    0    0 -0.24263793816E+02  0.35144443194E+02 -0.77304511648E+01  0.47787268981E+02  0.19999990593E+02 0.  0.
        -12    1    1    2    0    0  0.24263793816E+02 -0.35144443194E+02  0.77304511648E+01  0.43400731019E+02  0.00000000000E+00 0.  1.
         11    1    3    3    0    0 -0.60385512645E+01  0.19814577286E+02  0.13895232663E+01  0.20760836918E+02  0.51100000000E-03 0. -1.
        -11    1    3    3    0    0 -0.16083633508E+02  0.15720344898E+02 -0.10081670587E+02  0.24646553362E+02  0.51100000000E-03 0.  1.
        -12    1    3    3    0    0 -0.21416090430E+01 -0.39047898998E+00  0.96169615550E+00  0.23798787007E+01  0.00000000000E+00 0.  1.
</event>
<event>
 7    1  0.2598019E-009  0.4778727E+02  0.7816164E-02  0.1312668E+00
        -11   -1    0    0    0    0  0.00000000000E+00  0.00000000000E+00  0.45593999997E+02  0.45594000000E+02  0.51100000000E-03 0.  1.
         11   -1    0    0    0    0 -0.00000000000E+00 -0.00000000000E+00 -0.45593999997E+02  0.45594000000E+02  0.51100000000E-03 0. -1.
    9900012    2    1    2    0    0  0.74298038505E+01  0.37178056509E+02 -0.21123761045E+02  0.47787272451E+02  0.20000006415E+02 0.  0.
        -12    1    1    2    0    0 -0.74298038505E+01 -0.37178056509E+02  0.21123761045E+02  0.43400727549E+02  0.00000000000E+00 0.  1.
         11    1    3    3    0    0  0.18556827891E+01 -0.10554405590E+01 -0.54710670688E+01  0.58728262803E+01  0.51100000000E-03 0.  1.
        -11    1    3    3    0    0  0.35232302447E+00  0.16920601350E+02 -0.62485435540E+01  0.18040930641E+02  0.51100000000E-03 0. -1.
         12    1    3    3    0    0  0.52217980370E+01  0.21312895718E+02 -0.94041504222E+01  0.23873515530E+02  0.00000000000E+00 0. -1.
</event>
<event>
 7    1  0.2598019E-009  0.4778723E+02  0.7816164E-02  0.1312668E+00
        -11   -1    0    0    0    0  0.00000000000E+00  0.00000000000E+00  0.45593999997E+02  0.45594000000E+02  0.51100000000E-03 0. -1.
         11   -1    0    0    0    0 -0.00000000000E+00 -0.00000000000E+00 -0.45593999997E+02  0.45594000000E+02  0.51100000000E-03 0.  1.
    9900012    2    1    2    0    0  0.18739587914E+02  0.29700651816E+02  0.25501481502E+02  0.47787234658E+02  0.19999834099E+02 0.  0.
        -12    1    1    2    0    0 -0.18739587914E+02 -0.29700651816E+02 -0.25501481502E+02  0.43400765342E+02  0.00000000000E+00 0.  1.
         11    1    3    3    0    0  0.78805973170E+01  0.14543073314E+02  0.16725753432E+02  0.23523512145E+02  0.51100000000E-03 0. -1.
        -11    1    3    3    0    0  0.12820409994E+01  0.43660045601E+01 -0.31587046696E+01  0.55392274185E+01  0.51100000000E-03 0.  1.
        -12    1    3    3    0    0  0.95769495979E+01  0.10791573942E+02  0.11934432740E+02  0.18724495095E+02  0.00000000000E+00 0.  1.
</event>
<event>
 7    1  0.2598019E-009  0.4778726E+02  0.7816164E-02  0.1312668E+00
        -11   -1    0    0    0    0  0.00000000000E+00  0.00000000000E+00  0.45593999997E+02  0.45594000000E+02  0.51100000000E-03 0. -1.
         11   -1    0    0    0    0 -0.00000000000E+00 -0.00000000000E+00 -0.45593999997E+02  0.45594000000E+02  0.51100000000E-03 0.  1.
    9900012    2    1    2    0    0  0.42451478914E+02 -0.85503999758E+01 -0.28959765511E+01  0.47787261736E+02  0.19999957557E+02 0.  0.
        -12    1    1    2    0    0 -0.42451478914E+02  0.85503999758E+01  0.28959765511E+01  0.43400738264E+02  0.00000000000E+00 0.  1.
         11    1    3    3    0    0  0.11593753922E+02 -0.37194137592E+01 -0.14816178080E+01  0.12265576232E+02  0.51100000000E-03 0. -1.
        -11    1    3    3    0    0  0.50912631426E+01 -0.56875042728E+01 -0.55145892958E+01  0.94169719445E+01  0.51100000000E-03 0.  1.
        -12    1    3    3    0    0  0.25766461850E+02  0.85651805618E+00  0.41002305527E+01  0.26104713559E+02  0.00000000000E+00 0.  1.
</event>
<event>
 7    1  0.2598019E-009  0.4778727E+02  0.7816164E-02  0.1312668E+00
        -11   -1    0    0    0    0  0.00000000000E+00  0.00000000000E+00  0.45593999997E+02  0.45594000000E+02  0.51100000000E-03 0. -1.
         11   -1    0    0    0    0 -0.00000000000E+00 -0.00000000000E+00 -0.45593999997E+02  0.45594000000E+02  0.51100000000E-03 0.  1.
    9900012    2    1    2    0    0 -0.14163994818E+02  0.28046006824E+02  0.29940373210E+02  0.47787271942E+02  0.20000004093E+02 0.  0.
        -12    1    1    2    0    0  0.14163994818E+02 -0.28046006824E+02 -0.29940373210E+02  0.43400728058E+02  0.00000000000E+00 0.  1.
         11    1    3    3    0    0 -0.43825519547E+01 -0.18871273556E+01  0.48703207487E+01  0.68182135306E+01  0.51100000000E-03 0. -1.
        -11    1    3    3    0    0 -0.82567884734E+00  0.13432822293E+02  0.84175462340E+01  0.15873800590E+02  0.51100000000E-03 0.  1.
         12    1    3    3    0    0 -0.89557640154E+01  0.16500311886E+02  0.16652506228E+02  0.25095257821E+02  0.00000000000E+00 0. -1.
</event>
<event>
 7    1  0.2598019E-009  0.4778727E+02  0.7816164E-02  0.1312668E+00
        -11   -1    0    0    0    0  0.00000000000E+00  0.00000000000E+00  0.45593999997E+02  0.45594000000E+02  0.51100000000E-03 0.  1.
         11   -1    0    0    0    0 -0.00000000000E+00 -0.00000000000E+00 -0.45593999997E+02  0.45594000000E+02  0.51100000000E-03 0. -1.
    9900012    2    1    2    0    0 -0.14245304333E+02  0.35185154740E+02 -0.21040420281E+02  0.47787273103E+02  0.20000009385E+02 0.  0.
        -12    1    1    2    0    0  0.14245304333E+02 -0.35185154740E+02  0.21040420281E+02  0.43400726897E+02  0.00000000000E+00 0.  1.
         11    1    3    3    0    0 -0.74267550298E+01  0.29310216689E+02 -0.17463547141E+02  0.34917344854E+02  0.51100000000E-03 0. -1.
        -11    1    3    3    0    0 -0.19567798928E+01  0.70453480562E+01 -0.26904521456E+01  0.77913060388E+01  0.51100000000E-03 0.  1.
         12    1    3    3    0    0 -0.48617694100E+01 -0.11704100053E+01 -0.88642099497E+00  0.50786222105E+01  0.00000000000E+00 0. -1.
</event>
<event>
 7    1  0.2598019E-009  0.4778727E+02  0.7816164E-02  0.1312668E+00
        -11   -1    0    0    0    0  0.00000000000E+00  0.00000000000E+00  0.45593999997E+02  0.45594000000E+02  0.51100000000E-03 0.  1.
         11   -1    0    0    0    0 -0.00000000000E+00 -0.00000000000E+00 -0.45593999997E+02  0.45594000000E+02  0.51100000000E-03 0. -1.
    9900012    2    1    2    0    0 -0.15020674501E+02 -0.38326400978E+02 -0.13750984646E+02  0.47787271283E+02  0.20000001089E+02 0.  0.
        -12    1    1    2    0    0  0.15020674501E+02  0.38326400978E+02  0.13750984646E+02  0.43400728717E+02  0.00000000000E+00 0.  1.
         11    1    3    3    0    0 -0.57608409142E+01 -0.18803389482E+02 -0.67266795486E+01  0.20784680946E+02  0.51100000000E-03 0. -1.
        -11    1    3    3    0    0  0.23957524011E+01 -0.17378018259E+01  0.23349370771E+01  0.37698164635E+01  0.51100000000E-03 0.  1.
        -12    1    3    3    0    0 -0.11655585988E+02 -0.17785209671E+02 -0.93592421749E+01  0.23232773873E+02  0.00000000000E+00 0.  1.
</event>
<event>
 7    1  0.2598019E-009  0.4778727E+02  0.7816164E-02  0.1312668E+00
        -11   -1    0    0    0    0  0.00000000000E+00  0.00000000000E+00  0.45593999997E+02  0.45594000000E+02  0.51100000000E-03 0.  1.
         11   -1    0    0    0    0 -0.00000000000E+00 -0.00000000000E+00 -0.45593999997E+02  0.45594000000E+02  0.51100000000E-03 0. -1.
    9900012    2    1    2    0    0 -0.15146666768E+02  0.26755725836E+02 -0.30632221952E+02  0.47787269581E+02  0.19999993329E+02 0.  0.
        -12    1    1    2    0    0  0.15146666768E+02 -0.26755725836E+02  0.30632221952E+02  0.43400730419E+02  0.00000000000E+00 0.  1.
         11    1    3    3    0    0 -0.38592575479E+01  0.16195328140E+02 -0.25620635304E+02  0.30554860105E+02  0.51100000000E-03 0. -1.
        -11    1    3    3    0    0 -0.81040507578E+01  0.75607999789E+01 -0.72324784531E+00  0.11106953800E+02  0.51100000000E-03 0.  1.
         12    1    3    3    0    0 -0.31833584623E+01  0.29995977164E+01 -0.42883388021E+01  0.61254556763E+01  0.00000000000E+00 0. -1.
</event>
<event>
 7    1  0.2598019E-009  0.4778727E+02  0.7816164E-02  0.1312668E+00
        -11   -1    0    0    0    0  0.00000000000E+00  0.00000000000E+00  0.45593999997E+02  0.45594000000E+02  0.51100000000E-03 0. -1.
         11   -1    0    0    0    0 -0.00000000000E+00 -0.00000000000E+00 -0.45593999997E+02  0.45594000000E+02  0.51100000000E-03 0.  1.
    9900012    2    1    2    0    0 -0.25990080389E+02 -0.24197038015E+02  0.24952797564E+02  0.47787273813E+02  0.20000012622E+02 0.  0.
        -12    1    1    2    0    0  0.25990080389E+02  0.24197038015E+02 -0.24952797564E+02  0.43400726187E+02  0.00000000000E+00 0.  1.
         11    1    3    3    0    0 -0.75580971502E+01 -0.14213876537E+00  0.19378557730E+01  0.78038657868E+01  0.51100000000E-03 0. -1.
        -11    1    3    3    0    0 -0.16883330033E+02 -0.17976322339E+02  0.22982770400E+02  0.33710573020E+02  0.51100000000E-03 0.  1.
        -12    1    3    3    0    0 -0.15486532063E+01 -0.60785769108E+01  0.32171390892E-01  0.62728350060E+01  0.00000000000E+00 0.  1.
</event>
<event>
 7    1  0.2598019E-009  0.4778727E+02  0.7816164E-02  0.1312668E+00
        -11   -1    0    0    0    0  0.00000000000E+00  0.00000000000E+00  0.45593999997E+02  0.45594000000E+02  0.51100000000E-03 0.  1.
         11   -1    0    0    0    0 -0.00000000000E+00 -0.00000000000E+00 -0.45593999997E+02  0.45594000000E+02  0.51100000000E-03 0. -1.
    9900012    2    1    2    0    0  0.32858816945E+02 -0.80202417775E+01 -0.27195531672E+02  0.47787273369E+02  0.20000010597E+02 0.  0.
        -12    1    1    2    0    0 -0.32858816945E+02  0.80202417775E+01  0.27195531672E+02  0.43400726631E+02  0.00000000000E+00 0.  1.
         11    1    3    3    0    0  0.67309942854E+01 -0.41265763860E+01 -0.59833620359E+01  0.99063382868E+01  0.51100000000E-03 0. -1.
        -11    1    3    3    0    0  0.20815417060E+02 -0.59560175686E+01 -0.23305065501E+02  0.31810089766E+02  0.51100000000E-03 0.  1.
        -12    1    3    3    0    0  0.53124055995E+01  0.20623521770E+01  0.20928958642E+01  0.60708453163E+01  0.00000000000E+00 0.  1.
</event>
<event>
 7    1  0.2598019E-009  0.4778727E+02  0.7816164E-02  0.1312668E+00
        -11   -1    0    0    0    0  0.00000000000E+00  0.00000000000E+00  0.45593999997E+02  0.45594000000E+02  0.51100000000E-03 0. -1.
         11   -1    0    0    0    0 -0.00000000000E+00 -0.00000000000E+00 -0.45593999997E+02  0.45594000000E+02  0.51100000000E-03 0.  1.
    9900012    2    1    2    0    0  0.23766150801E+02  0.25259609759E+02 -0.26091100164E+02  0.47787270550E+02  0.19999997746E+02 0.  0.
        -12    1    1    2    0    0 -0.23766150801E+02 -0.25259609759E+02  0.26091100164E+02  0.43400729450E+02  0.00000000000E+00 0.  1.
         11    1    3    3    0    0  0.72341467966E+00 -0.16478171084E+01  0.12809669717E+01  0.22089605395E+01  0.51100000000E-03 0. -1.
        -11    1    3    3    0    0  0.11251257743E+02  0.71630277633E+01 -0.83748198761E+01  0.15749202385E+02  0.51100000000E-03 0.  1.
         12    1    3    3    0    0  0.11791478377E+02  0.19744399104E+02 -0.18997247259E+02  0.29829107625E+02  0.00000000000E+00 0. -1.
</event>
<event>
 7    1  0.2598019E-009  0.4778727E+02  0.7816164E-02  0.1312668E+00
        -11   -1    0    0    0    0  0.00000000000E+00  0.00000000000E+00  0.45593999997E+02  0.45594000000E+02  0.51100000000E-03 0.  1.
         11   -1    0    0    0    0 -0.00000000000E+00 -0.00000000000E+00 -0.45593999997E+02  0.45594000000E+02  0.51100000000E-03 0. -1.
    9900012    2    1    2    0    0 -0.42532363384E+02 -0.85347999837E+01 -0.13335723711E+01  0.47787272344E+02  0.20000005925E+02 0.  0.
        -12    1    1    2    0    0  0.42532363384E+02  0.85347999837E+01  0.13335723711E+01  0.43400727656E+02  0.00000000000E+00 0.  1.
         11    1    3    3    0    0 -0.30210522138E+02 -0.12950035637E+02 -0.68732942591E+00  0.32876305949E+02  0.51100000000E-03 0. -1.
        -11    1    3    3    0    0 -0.84946980075E+01  0.19298718026E+01 -0.36530169662E+01  0.94461014513E+01  0.51100000000E-03 0.  1.
         12    1    3    3    0    0 -0.38271432384E+01  0.24853638506E+01  0.30067740209E+01  0.54648649434E+01  0.00000000000E+00 0. -1.
</event>
<event>
 7    1  0.2598019E-009  0.4778728E+02  0.7816164E-02  0.1312668E+00
        -11   -1    0    0    0    0  0.00000000000E+00  0.00000000000E+00  0.45593999997E+02  0.45594000000E+02  0.51100000000E-03 0.  1.
         11   -1    0    0    0    0 -0.00000000000E+00 -0.00000000000E+00 -0.45593999997E+02  0.45594000000E+02  0.51100000000E-03 0. -1.
    9900012    2    1    2    0    0  0.20927457083E+02  0.29678112325E+02 -0.23767075345E+02  0.47787277867E+02  0.20000031107E+02 0.  0.
        -12    1    1    2    0    0 -0.20927457083E+02 -0.29678112325E+02  0.23767075345E+02  0.43400722133E+02  0.00000000000E+00 0.  1.
         11    1    3    3    0    0  0.11962915757E+02  0.64464105420E+01 -0.14023092063E+02  0.19527280239E+02  0.51100000000E-03 0. -1.
        -11    1    3    3    0    0 -0.99131448639E+00  0.88126575261E+01 -0.19372006615E+01  0.90773555481E+01  0.51100000000E-03 0.  1.
         12    1    3    3    0    0  0.99558558127E+01  0.14419044257E+02 -0.78067826213E+01  0.19182642080E+02  0.00000000000E+00 0. -1.
</event>
<event>
 7    1  0.2598019E-009  0.4778727E+02  0.7816164E-02  0.1312668E+00
        -11   -1    0    0    0    0  0.00000000000E+00  0.00000000000E+00  0.45593999997E+02  0.45594000000E+02  0.51100000000E-03 0. -1.
         11   -1    0    0    0    0 -0.00000000000E+00 -0.00000000000E+00 -0.45593999997E+02  0.45594000000E+02  0.51100000000E-03 0.  1.
    9900012    2    1    2    0    0  0.21195461729E+01 -0.33819811452E+02  0.27117367649E+02  0.47787265550E+02  0.19999974948E+02 0.  0.
        -12    1    1    2    0    0 -0.21195461729E+01  0.33819811452E+02 -0.27117367649E+02  0.43400734450E+02  0.00000000000E+00 0.  1.
         11    1    3    3    0    0  0.29056042356E+01 -0.22610941390E+02  0.15280535456E+02  0.27444343144E+02  0.51100000000E-03 0. -1.
        -11    1    3    3    0    0 -0.57828145658E+01 -0.97553921441E+01  0.80711154528E+01  0.13919465690E+02  0.51100000000E-03 0.  1.
        -12    1    3    3    0    0  0.49967565030E+01 -0.14534779172E+01  0.37657167400E+01  0.64234567152E+01  0.00000000000E+00 0.  1.
</event>
<event>
 7    1  0.2598019E-009  0.4778727E+02  0.7816164E-02  0.1312668E+00
        -11   -1    0    0    0    0  0.00000000000E+00  0.00000000000E+00  0.45593999997E+02  0.45594000000E+02  0.51100000000E-03 0.  1.
         11   -1    0    0    0    0 -0.00000000000E+00 -0.00000000000E+00 -0.45593999997E+02  0.45594000000E+02  0.51100000000E-03 0. -1.
    9900012    2    1    2    0    0 -0.38354022028E+02  0.20281825728E+02 -0.11134026998E+01  0.47787272746E+02  0.20000007759E+02 0.  0.
        -12    1    1    2    0    0  0.38354022028E+02 -0.20281825728E+02  0.11134026998E+01  0.43400727254E+02  0.00000000000E+00 0.  1.
         11    1    3    3    0    0 -0.14269072986E+02  0.13758239058E+02 -0.33195040888E+01  0.20097629052E+02  0.51100000000E-03 0.  1.
        -11    1    3    3    0    0 -0.50059897444E+01  0.51861727790E+01 -0.30925165149E+01  0.78434673500E+01  0.51100000000E-03 0. -1.
        -12    1    3    3    0    0 -0.19078959298E+02  0.13374138909E+01  0.52986179040E+01  0.19846176344E+02  0.00000000000E+00 0.  1.
</event>
<event>
 7    1  0.2598019E-009  0.4778727E+02  0.7816164E-02  0.1312668E+00
        -11   -1    0    0    0    0  0.00000000000E+00  0.00000000000E+00  0.45593999997E+02  0.45594000000E+02  0.51100000000E-03 0.  1.
         11   -1    0    0    0    0 -0.00000000000E+00 -0.00000000000E+00 -0.45593999997E+02  0.45594000000E+02  0.51100000000E-03 0. -1.
    9900012    2    1    2    0    0  0.20434448042E+02  0.93729444188E+01 -0.37124177232E+02  0.47787270870E+02  0.19999999204E+02 0.  0.
        -12    1    1    2    0    0 -0.20434448042E+02 -0.93729444188E+01  0.37124177232E+02  0.43400729130E+02  0.00000000000E+00 0.  1.
         11    1    3    3    0    0  0.42396369348E+01  0.73000715161E+01 -0.46574477767E+01  0.96414410506E+01  0.51100000000E-03 0. -1.
        -11    1    3    3    0    0  0.12667176724E+02  0.52267148565E+01 -0.29587782195E+02  0.32606943583E+02  0.51100000000E-03 0.  1.
        -12    1    3    3    0    0  0.35276343828E+01 -0.31538419537E+01 -0.28789472605E+01  0.55388862361E+01  0.00000000000E+00 0.  1.
</event>
<event>
 7    1  0.2598019E-009  0.4778726E+02  0.7816164E-02  0.1312668E+00
        -11   -1    0    0    0    0  0.00000000000E+00  0.00000000000E+00  0.45593999997E+02  0.45594000000E+02  0.51100000000E-03 0.  1.
         11   -1    0    0    0    0 -0.00000000000E+00 -0.00000000000E+00 -0.45593999997E+02  0.45594000000E+02  0.51100000000E-03 0. -1.
    9900012    2    1    2    0    0  0.13132131485E+01  0.12100760680E+01 -0.43363983515E+02  0.47787264071E+02  0.19999968206E+02 0.  0.
        -12    1    1    2    0    0 -0.13132131485E+01 -0.12100760680E+01  0.43363983515E+02  0.43400735929E+02  0.00000000000E+00 0.  1.
         11    1    3    3    0    0 -0.20515064271E+00 -0.47310448253E+01 -0.28391570269E+02  0.28783782492E+02  0.51100000000E-03 0. -1.
        -11    1    3    3    0    0  0.32530261738E+01  0.81987973635E+01 -0.10662086211E+02  0.13837721638E+02  0.51100000000E-03 0.  1.
        -12    1    3    3    0    0 -0.17346623825E+01 -0.22576764702E+01 -0.43103270347E+01  0.51657599414E+01  0.00000000000E+00 0.  1.
</event>
<event>
 7    1  0.2598019E-009  0.4778729E+02  0.7816164E-02  0.1312668E+00
        -11   -1    0    0    0    0  0.00000000000E+00  0.00000000000E+00  0.45593999997E+02  0.45594000000E+02  0.51100000000E-03 0. -1.
         11   -1    0    0    0    0 -0.00000000000E+00 -0.00000000000E+00 -0.45593999997E+02  0.45594000000E+02  0.51100000000E-03 0.  1.
    9900012    2    1    2    0    0 -0.14159225601E+01 -0.40897809389E+02 -0.14456357052E+02  0.47787286771E+02  0.20000071706E+02 0.  0.
        -12    1    1    2    0    0  0.14159225601E+01  0.40897809389E+02  0.14456357052E+02  0.43400713229E+02  0.00000000000E+00 0.  1.
         11    1    3    3    0    0  0.48273735840E+01 -0.95044479110E+01 -0.26559403614E+01  0.10985994961E+02  0.51100000000E-03 0. -1.
        -11    1    3    3    0    0  0.45300447992E+00 -0.13996107712E+02  0.12296724279E+01  0.14057323312E+02  0.51100000000E-03 0.  1.
        -12    1    3    3    0    0 -0.66963006240E+01 -0.17397253766E+02 -0.13030089119E+02  0.22743968499E+02  0.00000000000E+00 0.  1.
</event>
<event>
 7    1  0.2598019E-009  0.4778727E+02  0.7816164E-02  0.1312668E+00
        -11   -1    0    0    0    0  0.00000000000E+00  0.00000000000E+00  0.45593999997E+02  0.45594000000E+02  0.51100000000E-03 0.  1.
         11   -1    0    0    0    0 -0.00000000000E+00 -0.00000000000E+00 -0.45593999997E+02  0.45594000000E+02  0.51100000000E-03 0. -1.
    9900012    2    1    2    0    0 -0.29893309352E+02  0.29596246297E+02  0.10680616713E+02  0.47787270602E+02  0.19999997984E+02 0.  0.
        -12    1    1    2    0    0  0.29893309352E+02 -0.29596246297E+02 -0.10680616713E+02  0.43400729398E+02  0.00000000000E+00 0.  1.
         11    1    3    3    0    0 -0.90292186116E+01  0.19354225543E+02  0.84095089029E+01  0.22952835889E+02  0.51100000000E-03 0. -1.
        -11    1    3    3    0    0 -0.60400259031E+01  0.49352572592E+01  0.43847615074E+01  0.89478942139E+01  0.51100000000E-03 0.  1.
         12    1    3    3    0    0 -0.14824064837E+02  0.53067634951E+01 -0.21136536975E+01  0.15886540499E+02  0.00000000000E+00 0. -1.
</event>
<event>
 7    1  0.2598019E-009  0.4778724E+02  0.7816164E-02  0.1312668E+00
        -11   -1    0    0    0    0  0.00000000000E+00  0.00000000000E+00  0.45593999997E+02  0.45594000000E+02  0.51100000000E-03 0.  1.
         11   -1    0    0    0    0 -0.00000000000E+00 -0.00000000000E+00 -0.45593999997E+02  0.45594000000E+02  0.51100000000E-03 0. -1.
    9900012    2    1    2    0    0  0.43798966087E+01 -0.43085938562E+02 -0.28362396764E+01  0.47787241348E+02  0.19999864600E+02 0.  0.
        -12    1    1    2    0    0 -0.43798966087E+01  0.43085938562E+02  0.28362396764E+01  0.43400758652E+02  0.00000000000E+00 0.  1.
         11    1    3    3    0    0 -0.24028433533E+01 -0.30334527738E+02 -0.35494222165E+01  0.30635855261E+02  0.51100000000E-03 0. -1.
        -11    1    3    3    0    0  0.93002078353E+00  0.12141851566E+01 -0.11238664501E+01  0.18979621469E+01  0.51100000000E-03 0.  1.
         12    1    3    3    0    0  0.58527191785E+01 -0.13965595981E+02  0.18370489902E+01  0.15253423940E+02  0.00000000000E+00 0. -1.
</event>
<event>
 7    1  0.2598019E-009  0.4778726E+02  0.7816164E-02  0.1312668E+00
        -11   -1    0    0    0    0  0.00000000000E+00  0.00000000000E+00  0.45593999997E+02  0.45594000000E+02  0.51100000000E-03 0.  1.
         11   -1    0    0    0    0 -0.00000000000E+00 -0.00000000000E+00 -0.45593999997E+02  0.45594000000E+02  0.51100000000E-03 0. -1.
    9900012    2    1    2    0    0  0.18191255903E+02  0.36875067033E+02 -0.13889979125E+02  0.47787264060E+02  0.19999968155E+02 0.  0.
        -12    1    1    2    0    0 -0.18191255903E+02 -0.36875067033E+02  0.13889979125E+02  0.43400735940E+02  0.00000000000E+00 0.  1.
         11    1    3    3    0    0  0.11015199795E+02  0.99983350178E+01 -0.42539293804E+01  0.15472467324E+02  0.51100000000E-03 0. -1.
        -11    1    3    3    0    0  0.78292688208E+01  0.27926719974E+02 -0.10456492331E+02  0.30830786089E+02  0.51100000000E-03 0.  1.
        -12    1    3    3    0    0 -0.65321271284E+00 -0.10499879585E+01  0.82044258643E+00  0.14840106465E+01  0.00000000000E+00 0.  1.
</event>
<event>
 7    1  0.2598019E-009  0.4778727E+02  0.7816164E-02  0.1312668E+00
        -11   -1    0    0    0    0  0.00000000000E+00  0.00000000000E+00  0.45593999997E+02  0.45594000000E+02  0.51100000000E-03 0.  1.
         11   -1    0    0    0    0 -0.00000000000E+00 -0.00000000000E+00 -0.45593999997E+02  0.45594000000E+02  0.51100000000E-03 0. -1.
    9900012    2    1    2    0    0 -0.10692107103E+02  0.11677017582E+02 -0.40409774612E+02  0.47787265235E+02  0.19999973513E+02 0.  0.
        -12    1    1    2    0    0  0.10692107103E+02 -0.11677017582E+02  0.40409774612E+02  0.43400734765E+02  0.00000000000E+00 0.  1.
         11    1    3    3    0    0 -0.13961472158E+02  0.56076600444E+01 -0.23618427503E+02  0.28003547525E+02  0.51100000000E-03 0. -1.
        -11    1    3    3    0    0  0.45069576817E+01  0.35366323685E+01 -0.48257263459E+01  0.74905320960E+01  0.51100000000E-03 0.  1.
        -12    1    3    3    0    0 -0.12375926266E+01  0.25327251694E+01 -0.11965620764E+02  0.12293185614E+02  0.00000000000E+00 0.  1.
</event>
<event>
 7    1  0.2598019E-009  0.4778726E+02  0.7816164E-02  0.1312668E+00
        -11   -1    0    0    0    0  0.00000000000E+00  0.00000000000E+00  0.45593999997E+02  0.45594000000E+02  0.51100000000E-03 0.  1.
         11   -1    0    0    0    0 -0.00000000000E+00 -0.00000000000E+00 -0.45593999997E+02  0.45594000000E+02  0.51100000000E-03 0. -1.
    9900012    2    1    2    0    0  0.38167491283E+02 -0.66850953410E+01 -0.19549323946E+02  0.47787263171E+02  0.19999964103E+02 0.  0.
        -12    1    1    2    0    0 -0.38167491283E+02  0.66850953410E+01  0.19549323946E+02  0.43400736829E+02  0.00000000000E+00 0.  1.
         11    1    3    3    0    0  0.37556447040E+01 -0.76497132581E+00 -0.80108507951E+01  0.88805280808E+01  0.51100000000E-03 0. -1.
        -11    1    3    3    0    0  0.14662502505E+02  0.30914534078E+01 -0.17262833237E+01  0.15083968916E+02  0.51100000000E-03 0.  1.
        -12    1    3    3    0    0  0.19749344073E+02 -0.90115774231E+01 -0.98121898271E+01  0.23822766174E+02  0.00000000000E+00 0.  1.
</event>
<event>
 7    1  0.2598019E-009  0.4778728E+02  0.7816164E-02  0.1312668E+00
        -11   -1    0    0    0    0  0.00000000000E+00  0.00000000000E+00  0.45593999997E+02  0.45594000000E+02  0.51100000000E-03 0. -1.
         11   -1    0    0    0    0 -0.00000000000E+00 -0.00000000000E+00 -0.45593999997E+02  0.45594000000E+02  0.51100000000E-03 0.  1.
    9900012    2    1    2    0    0  0.11481292584E+02  0.17663425931E+02  0.37944778038E+02  0.47787275635E+02  0.20000020932E+02 0.  0.
        -12    1    1    2    0    0 -0.11481292584E+02 -0.17663425931E+02 -0.37944778038E+02  0.43400724365E+02  0.00000000000E+00 0.  1.
         11    1    3    3    0    0 -0.79770538374E+00  0.10542171502E+02  0.27284646664E+02  0.29261333833E+02  0.51100000000E-03 0. -1.
        -11    1    3    3    0    0  0.96719414215E+01  0.37566971475E+01  0.96085686648E+01  0.14141563434E+02  0.51100000000E-03 0.  1.
        -12    1    3    3    0    0  0.26070565466E+01  0.33645572818E+01  0.10515627086E+01  0.43843783676E+01  0.00000000000E+00 0.  1.
</event>
<event>
 7    1  0.2598019E-009  0.4778727E+02  0.7816164E-02  0.1312668E+00
        -11   -1    0    0    0    0  0.00000000000E+00  0.00000000000E+00  0.45593999997E+02  0.45594000000E+02  0.51100000000E-03 0. -1.
         11   -1    0    0    0    0 -0.00000000000E+00 -0.00000000000E+00 -0.45593999997E+02  0.45594000000E+02  0.51100000000E-03 0.  1.
    9900012    2    1    2    0    0 -0.23445396146E+02  0.34858839674E+02 -0.10899462054E+02  0.47787267553E+02  0.19999984082E+02 0.  0.
        -12    1    1    2    0    0  0.23445396146E+02 -0.34858839674E+02  0.10899462054E+02  0.43400732447E+02  0.00000000000E+00 0.  1.
         11    1    3    3    0    0  0.49447199913E+00 -0.96309799402E+00 -0.10798221784E+00  0.10879893035E+01  0.51100000000E-03 0. -1.
        -11    1    3    3    0    0 -0.11142621176E+02  0.55724854306E+01 -0.13930055515E+01  0.12535990798E+02  0.51100000000E-03 0.  1.
         12    1    3    3    0    0 -0.12797246969E+02  0.30249452237E+02 -0.93984742846E+01  0.34163287452E+02  0.00000000000E+00 0. -1.
</event>
<event>
 7    1  0.2598019E-009  0.4778727E+02  0.7816164E-02  0.1312668E+00
        -11   -1    0    0    0    0  0.00000000000E+00  0.00000000000E+00  0.45593999997E+02  0.45594000000E+02  0.51100000000E-03 0.  1.
         11   -1    0    0    0    0 -0.00000000000E+00 -0.00000000000E+00 -0.45593999997E+02  0.45594000000E+02  0.51100000000E-03 0. -1.
    9900012    2    1    2    0    0 -0.82416124326E+01  0.86131593153E+00 -0.42602312846E+02  0.47787273042E+02  0.20000009109E+02 0.  0.
        -12    1    1    2    0    0  0.82416124326E+01 -0.86131593153E+00  0.42602312846E+02  0.43400726958E+02  0.00000000000E+00 0.  1.
         11    1    3    3    0    0 -0.10576304367E+02 -0.41889560586E+01 -0.12149100520E+02  0.16643503556E+02  0.51100000000E-03 0. -1.
        -11    1    3    3    0    0  0.26108362871E+01  0.27443776845E+01 -0.23737940008E+02  0.24038258486E+02  0.51100000000E-03 0.  1.
         12    1    3    3    0    0 -0.27614435281E+00  0.23058943056E+01 -0.67152723187E+01  0.71055109996E+01  0.00000000000E+00 0. -1.
</event>
<event>
 7    1  0.2598019E-009  0.4778727E+02  0.7816164E-02  0.1312668E+00
        -11   -1    0    0    0    0  0.00000000000E+00  0.00000000000E+00  0.45593999997E+02  0.45594000000E+02  0.51100000000E-03 0.  1.
         11   -1    0    0    0    0 -0.00000000000E+00 -0.00000000000E+00 -0.45593999997E+02  0.45594000000E+02  0.51100000000E-03 0. -1.
    9900012    2    1    2    0    0 -0.54222225737E+01  0.40255217095E+01 -0.42872109629E+02  0.47787272970E+02  0.20000008781E+02 0.  0.
        -12    1    1    2    0    0  0.54222225737E+01 -0.40255217095E+01  0.42872109629E+02  0.43400727030E+02  0.00000000000E+00 0.  1.
         11    1    3    3    0    0 -0.59176979825E+01 -0.29613247476E+01 -0.28664143845E+02  0.29418051198E+02  0.51100000000E-03 0. -1.
        -11    1    3    3    0    0  0.13056014568E+01  0.89373769112E+01 -0.13284174201E+02  0.16063952991E+02  0.51100000000E-03 0.  1.
        -12    1    3    3    0    0 -0.81012604805E+00 -0.19505304542E+01 -0.92379158295E+00  0.23052687815E+01  0.00000000000E+00 0.  1.
</event>
<event>
 7    1  0.2598019E-009  0.4778728E+02  0.7816164E-02  0.1312668E+00
        -11   -1    0    0    0    0  0.00000000000E+00  0.00000000000E+00  0.45593999997E+02  0.45594000000E+02  0.51100000000E-03 0. -1.
         11   -1    0    0    0    0 -0.00000000000E+00 -0.00000000000E+00 -0.45593999997E+02  0.45594000000E+02  0.51100000000E-03 0.  1.
    9900012    2    1    2    0    0  0.33585099981E+02  0.13422042080E+01  0.27456554332E+02  0.47787276173E+02  0.20000023383E+02 0.  0.
        -12    1    1    2    0    0 -0.33585099981E+02 -0.13422042080E+01 -0.27456554332E+02  0.43400723827E+02  0.00000000000E+00 0.  1.
         11    1    3    3    0    0  0.20516676950E+02  0.17585282530E+01  0.89443014908E+01  0.22450545296E+02  0.51100000000E-03 0. -1.
        -11    1    3    3    0    0  0.92966993774E+01  0.20204799070E+01  0.18548622252E+02  0.20846159025E+02  0.51100000000E-03 0.  1.
        -12    1    3    3    0    0  0.37717236543E+01 -0.24368039520E+01 -0.36369410738E-01  0.44905718521E+01  0.00000000000E+00 0.  1.
</event>
<event>
 7    1  0.2598019E-009  0.4778727E+02  0.7816164E-02  0.1312668E+00
        -11   -1    0    0    0    0  0.00000000000E+00  0.00000000000E+00  0.45593999997E+02  0.45594000000E+02  0.51100000000E-03 0.  1.
         11   -1    0    0    0    0 -0.00000000000E+00 -0.00000000000E+00 -0.45593999997E+02  0.45594000000E+02  0.51100000000E-03 0. -1.
    9900012    2    1    2    0    0 -0.38679763466E+02 -0.18929592999E+02 -0.54009085112E+01  0.47787269526E+02  0.19999993077E+02 0.  0.
        -12    1    1    2    0    0  0.38679763466E+02  0.18929592999E+02  0.54009085112E+01  0.43400730474E+02  0.00000000000E+00 0.  1.
         11    1    3    3    0    0 -0.13505540881E+02 -0.16026002743E+02  0.11298003104E+01  0.20988302633E+02  0.51100000000E-03 0. -1.
        -11    1    3    3    0    0 -0.18155103886E+02 -0.30405814345E+01 -0.71576650325E+01  0.19750572183E+02  0.51100000000E-03 0.  1.
         12    1    3    3    0    0 -0.70191186994E+01  0.13699117879E+00  0.62695621103E+00  0.70483947101E+01  0.00000000000E+00 0. -1.
</event>
<event>
 7    1  0.2598019E-009  0.4778732E+02  0.7816164E-02  0.1312668E+00
        -11   -1    0    0    0    0  0.00000000000E+00  0.00000000000E+00  0.45593999997E+02  0.45594000000E+02  0.51100000000E-03 0.  1.
         11   -1    0    0    0    0 -0.00000000000E+00 -0.00000000000E+00 -0.45593999997E+02  0.45594000000E+02  0.51100000000E-03 0. -1.
    9900012    2    1    2    0    0 -0.21520877586E+02 -0.48253331077E+01 -0.37378961691E+02  0.47787322716E+02  0.20000235589E+02 0.  0.
        -12    1    1    2    0    0  0.21520877586E+02  0.48253331077E+01  0.37378961691E+02  0.43400677284E+02  0.00000000000E+00 0.  1.
         11    1    3    3    0    0 -0.35787693081E+01 -0.51366729785E+01 -0.76547258906E+01  0.98887728142E+01  0.51100000000E-03 0. -1.
        -11    1    3    3    0    0 -0.52287469136E+01  0.65487117236E+01 -0.61371700766E+01  0.10387024422E+02  0.51100000000E-03 0.  1.
        -12    1    3    3    0    0 -0.12713361364E+02 -0.62373718528E+01 -0.23587065723E+02  0.27511525480E+02  0.00000000000E+00 0.  1.
</event>
<event>
 7    1  0.2598019E-009  0.4778727E+02  0.7816164E-02  0.1312668E+00
        -11   -1    0    0    0    0  0.00000000000E+00  0.00000000000E+00  0.45593999997E+02  0.45594000000E+02  0.51100000000E-03 0. -1.
         11   -1    0    0    0    0 -0.00000000000E+00 -0.00000000000E+00 -0.45593999997E+02  0.45594000000E+02  0.51100000000E-03 0.  1.
    9900012    2    1    2    0    0 -0.22488879729E+02 -0.82732045078E+01  0.36186015425E+02  0.47787270321E+02  0.19999996702E+02 0.  0.
        -12    1    1    2    0    0  0.22488879729E+02  0.82732045078E+01 -0.36186015425E+02  0.43400729679E+02  0.00000000000E+00 0.  1.
         11    1    3    3    0    0 -0.44091595660E+01  0.32397830131E+01  0.19846755473E+01  0.58202937503E+01  0.51100000000E-03 0.  1.
        -11    1    3    3    0    0 -0.16042751432E+02 -0.13789818292E+02  0.28433144188E+02  0.35439704438E+02  0.51100000000E-03 0. -1.
         12    1    3    3    0    0 -0.20369687308E+01  0.22768307707E+01  0.57681956903E+01  0.65272721324E+01  0.00000000000E+00 0. -1.
</event>
<event>
 7    1  0.2598019E-009  0.4778725E+02  0.7816164E-02  0.1312668E+00
        -11   -1    0    0    0    0  0.00000000000E+00  0.00000000000E+00  0.45593999997E+02  0.45594000000E+02  0.51100000000E-03 0.  1.
         11   -1    0    0    0    0 -0.00000000000E+00 -0.00000000000E+00 -0.45593999997E+02  0.45594000000E+02  0.51100000000E-03 0. -1.
    9900012    2    1    2    0    0 -0.19945231328E+02 -0.19667202469E+02 -0.33151380659E+02  0.47787249485E+02  0.19999901702E+02 0.  0.
        -12    1    1    2    0    0  0.19945231328E+02  0.19667202469E+02  0.33151380659E+02  0.43400750515E+02  0.00000000000E+00 0.  1.
         11    1    3    3    0    0 -0.14014134925E+01 -0.95680501084E+01 -0.19211550864E+02  0.21508027095E+02  0.51100000000E-03 0. -1.
        -11    1    3    3    0    0 -0.16267326677E+02 -0.77448531508E+01 -0.14275800950E+02  0.22987108574E+02  0.51100000000E-03 0.  1.
         12    1    3    3    0    0 -0.22764911584E+01 -0.23542992100E+01  0.33597115543E+00  0.32921138167E+01  0.00000000000E+00 0. -1.
</event>
<event>
 7    1  0.2598019E-009  0.4778727E+02  0.7816164E-02  0.1312668E+00
        -11   -1    0    0    0    0  0.00000000000E+00  0.00000000000E+00  0.45593999997E+02  0.45594000000E+02  0.51100000000E-03 0. -1.
         11   -1    0    0    0    0 -0.00000000000E+00 -0.00000000000E+00 -0.45593999997E+02  0.45594000000E+02  0.51100000000E-03 0.  1.
    9900012    2    1    2    0    0  0.40771606597E+02 -0.65001850581E+01  0.13380840741E+02  0.47787271790E+02  0.20000003397E+02 0.  0.
        -12    1    1    2    0    0 -0.40771606597E+02  0.65001850581E+01 -0.13380840741E+02  0.43400728210E+02  0.00000000000E+00 0.  1.
         11    1    3    3    0    0  0.13958181886E+02 -0.10204245800E+02  0.66142150025E+01  0.18512301701E+02  0.51100000000E-03 0. -1.
        -11    1    3    3    0    0  0.16433520923E+02  0.51668074783E+01  0.87171084263E+00  0.17248663412E+02  0.51100000000E-03 0.  1.
        -12    1    3    3    0    0  0.10379903788E+02 -0.14627467369E+01  0.58949148955E+01  0.12026306677E+02  0.00000000000E+00 0.  1.
</event>
<event>
 7    1  0.2598019E-009  0.4778727E+02  0.7816164E-02  0.1312668E+00
        -11   -1    0    0    0    0  0.00000000000E+00  0.00000000000E+00  0.45593999997E+02  0.45594000000E+02  0.51100000000E-03 0.  1.
         11   -1    0    0    0    0 -0.00000000000E+00 -0.00000000000E+00 -0.45593999997E+02  0.45594000000E+02  0.51100000000E-03 0. -1.
    9900012    2    1    2    0    0 -0.38010624419E+02 -0.93284123771E+01 -0.18756235747E+02  0.47787271600E+02  0.20000002535E+02 0.  0.
        -12    1    1    2    0    0  0.38010624419E+02  0.93284123771E+01  0.18756235747E+02  0.43400728400E+02  0.00000000000E+00 0.  1.
         11    1    3    3    0    0 -0.28909578978E+02 -0.18197774732E+01 -0.14828428769E+02  0.32541629442E+02  0.51100000000E-03 0. -1.
        -11    1    3    3    0    0 -0.48863124424E+01 -0.79198807946E+01  0.23299833587E+00  0.93088586610E+01  0.51100000000E-03 0.  1.
        -12    1    3    3    0    0 -0.42147329986E+01  0.41124589064E+00 -0.41608053139E+01  0.59367834971E+01  0.00000000000E+00 0.  1.
</event>
<event>
 7    1  0.2598019E-009  0.4778727E+02  0.7816164E-02  0.1312668E+00
        -11   -1    0    0    0    0  0.00000000000E+00  0.00000000000E+00  0.45593999997E+02  0.45594000000E+02  0.51100000000E-03 0.  1.
         11   -1    0    0    0    0 -0.00000000000E+00 -0.00000000000E+00 -0.45593999997E+02  0.45594000000E+02  0.51100000000E-03 0. -1.
    9900012    2    1    2    0    0  0.38520455123E+02  0.19837831625E+02  0.25016546553E+01  0.47787270715E+02  0.19999998500E+02 0.  0.
        -12    1    1    2    0    0 -0.38520455123E+02 -0.19837831625E+02 -0.25016546553E+01  0.43400729285E+02  0.00000000000E+00 0.  1.
         11    1    3    3    0    0  0.33220690460E+02  0.18632558727E+02  0.43964254611E+01  0.38342079709E+02  0.51100000000E-03 0. -1.
        -11    1    3    3    0    0  0.13684121389E+01 -0.30557568831E+01 -0.75167252893E-02  0.33481724377E+01  0.51100000000E-03 0.  1.
        -12    1    3    3    0    0  0.39313525237E+01  0.42610297809E+01 -0.18872540805E+01  0.60970185684E+01  0.00000000000E+00 0.  1.
</event>
<event>
 7    1  0.2598019E-009  0.4778727E+02  0.7816164E-02  0.1312668E+00
        -11   -1    0    0    0    0  0.00000000000E+00  0.00000000000E+00  0.45593999997E+02  0.45594000000E+02  0.51100000000E-03 0.  1.
         11   -1    0    0    0    0 -0.00000000000E+00 -0.00000000000E+00 -0.45593999997E+02  0.45594000000E+02  0.51100000000E-03 0. -1.
    9900012    2    1    2    0    0  0.35236467039E+02 -0.21358953580E+02 -0.13631202777E+02  0.47787271935E+02  0.20000004062E+02 0.  0.
        -12    1    1    2    0    0 -0.35236467039E+02  0.21358953580E+02  0.13631202777E+02  0.43400728065E+02  0.00000000000E+00 0.  1.
         11    1    3    3    0    0  0.22021230750E+02 -0.19855110681E+02 -0.11147920468E+02  0.31677060389E+02  0.51100000000E-03 0. -1.
        -11    1    3    3    0    0  0.96495030532E+01 -0.32835857398E+01  0.16986928923E+01  0.10333460325E+02  0.51100000000E-03 0.  1.
         12    1    3    3    0    0  0.35657332359E+01  0.17797428405E+01 -0.41819752015E+01  0.57767512214E+01  0.00000000000E+00 0. -1.
</event>
<event>
 7    1  0.2598019E-009  0.4778727E+02  0.7816164E-02  0.1312668E+00
        -11   -1    0    0    0    0  0.00000000000E+00  0.00000000000E+00  0.45593999997E+02  0.45594000000E+02  0.51100000000E-03 0.  1.
         11   -1    0    0    0    0 -0.00000000000E+00 -0.00000000000E+00 -0.45593999997E+02  0.45594000000E+02  0.51100000000E-03 0. -1.
    9900012    2    1    2    0    0 -0.36470379708E+01 -0.18736142255E+02 -0.38977932075E+02  0.47787273031E+02  0.20000009058E+02 0.  0.
        -12    1    1    2    0    0  0.36470379708E+01  0.18736142255E+02  0.38977932075E+02  0.43400726969E+02  0.00000000000E+00 0.  1.
         11    1    3    3    0    0 -0.10881936168E+02 -0.12506028068E+02 -0.28546221494E+02  0.33010665468E+02  0.51100000000E-03 0. -1.
        -11    1    3    3    0    0  0.64164268626E+01 -0.46803976245E+01 -0.10317561295E+02  0.13020319771E+02  0.51100000000E-03 0.  1.
         12    1    3    3    0    0  0.81847133463E+00 -0.15497165623E+01 -0.11414928686E+00  0.17562877921E+01  0.00000000000E+00 0. -1.
</event>
<event>
 7    1  0.2598019E-009  0.4778725E+02  0.7816164E-02  0.1312668E+00
        -11   -1    0    0    0    0  0.00000000000E+00  0.00000000000E+00  0.45593999997E+02  0.45594000000E+02  0.51100000000E-03 0.  1.
         11   -1    0    0    0    0 -0.00000000000E+00 -0.00000000000E+00 -0.45593999997E+02  0.45594000000E+02  0.51100000000E-03 0. -1.
    9900012    2    1    2    0    0 -0.21084180211E+02  0.13934155345E+02  0.35283443430E+02  0.47787254377E+02  0.19999924008E+02 0.  0.
        -12    1    1    2    0    0  0.21084180211E+02 -0.13934155345E+02 -0.35283443430E+02  0.43400745623E+02  0.00000000000E+00 0.  1.
         11    1    3    3    0    0 -0.15543161264E+02  0.13244957084E+01  0.16327759657E+02  0.22581848610E+02  0.51100000000E-03 0. -1.
        -11    1    3    3    0    0 -0.26370891718E+01  0.12729382253E+02  0.12101876606E+02  0.17760822883E+02  0.51100000000E-03 0.  1.
        -12    1    3    3    0    0 -0.29039297753E+01 -0.11972261666E+00  0.68538071669E+01  0.74445828846E+01  0.00000000000E+00 0.  1.
</event>
<event>
 7    1  0.2598019E-009  0.4778727E+02  0.7816164E-02  0.1312668E+00
        -11   -1    0    0    0    0  0.00000000000E+00  0.00000000000E+00  0.45593999997E+02  0.45594000000E+02  0.51100000000E-03 0. -1.
         11   -1    0    0    0    0 -0.00000000000E+00 -0.00000000000E+00 -0.45593999997E+02  0.45594000000E+02  0.51100000000E-03 0.  1.
    9900012    2    1    2    0    0  0.30292912691E+01  0.64161552816E+01  0.42816814680E+02  0.47787271049E+02  0.20000000020E+02 0.  0.
        -12    1    1    2    0    0 -0.30292912691E+01 -0.64161552816E+01 -0.42816814680E+02  0.43400728951E+02  0.00000000000E+00 0.  1.
         11    1    3    3    0    0 -0.25598312903E+01  0.63119158411E+00  0.31895213135E+02  0.32003996004E+02  0.51100000000E-03 0. -1.
        -11    1    3    3    0    0 -0.80659031169E+00  0.48059666827E+01  0.39609172557E+01  0.62798701781E+01  0.51100000000E-03 0.  1.
         12    1    3    3    0    0  0.63957128711E+01  0.97899701476E+00  0.69606842891E+01  0.95034048665E+01  0.00000000000E+00 0. -1.
</event>
<event>
 7    1  0.2598019E-009  0.4778727E+02  0.7816164E-02  0.1312668E+00
        -11   -1    0    0    0    0  0.00000000000E+00  0.00000000000E+00  0.45593999997E+02  0.45594000000E+02  0.51100000000E-03 0.  1.
         11   -1    0    0    0    0 -0.00000000000E+00 -0.00000000000E+00 -0.45593999997E+02  0.45594000000E+02  0.51100000000E-03 0. -1.
    9900012    2    1    2    0    0  0.16783911434E+02 -0.39472864341E+02 -0.66194404336E+01  0.47787266205E+02  0.19999977935E+02 0.  0.
        -12    1    1    2    0    0 -0.16783911434E+02  0.39472864341E+02  0.66194404336E+01  0.43400733795E+02  0.00000000000E+00 0.  1.
         11    1    3    3    0    0  0.12076608482E+02 -0.19939385234E+02 -0.21352313060E+01  0.23409031781E+02  0.51100000000E-03 0. -1.
        -11    1    3    3    0    0 -0.88048927474E-01 -0.18890655704E+02 -0.49181302664E+01  0.19520569436E+02  0.51100000000E-03 0.  1.
        -12    1    3    3    0    0  0.47953518801E+01 -0.64282340325E+00  0.43392113883E+00  0.48576649881E+01  0.00000000000E+00 0.  1.
</event>
<event>
 7    1  0.2598019E-009  0.4778727E+02  0.7816164E-02  0.1312668E+00
        -11   -1    0    0    0    0  0.00000000000E+00  0.00000000000E+00  0.45593999997E+02  0.45594000000E+02  0.51100000000E-03 0. -1.
         11   -1    0    0    0    0 -0.00000000000E+00 -0.00000000000E+00 -0.45593999997E+02  0.45594000000E+02  0.51100000000E-03 0.  1.
    9900012    2    1    2    0    0  0.34420891494E+02  0.10119437834E+01  0.26415932501E+02  0.47787270843E+02  0.19999999082E+02 0.  0.
        -12    1    1    2    0    0 -0.34420891494E+02 -0.10119437834E+01 -0.26415932501E+02  0.43400729157E+02  0.00000000000E+00 0.  1.
         11    1    3    3    0    0  0.50535784297E+01 -0.36011323549E+01 -0.13181116817E+01  0.63438338447E+01  0.51100000000E-03 0. -1.
        -11    1    3    3    0    0  0.58031736294E+01  0.12041803431E+01  0.17045353567E+01  0.61670345803E+01  0.51100000000E-03 0.  1.
         12    1    3    3    0    0  0.23564139434E+02  0.34088957952E+01  0.26029508826E+02  0.35276402418E+02  0.00000000000E+00 0. -1.
</event>
<event>
 7    1  0.2598019E-009  0.4778726E+02  0.7816164E-02  0.1312668E+00
        -11   -1    0    0    0    0  0.00000000000E+00  0.00000000000E+00  0.45593999997E+02  0.45594000000E+02  0.51100000000E-03 0.  1.
         11   -1    0    0    0    0 -0.00000000000E+00 -0.00000000000E+00 -0.45593999997E+02  0.45594000000E+02  0.51100000000E-03 0. -1.
    9900012    2    1    2    0    0  0.24487363166E+02  0.42867590760E+01 -0.35575505553E+02  0.47787264367E+02  0.19999969553E+02 0.  0.
        -12    1    1    2    0    0 -0.24487363166E+02 -0.42867590760E+01  0.35575505553E+02  0.43400735633E+02  0.00000000000E+00 0.  1.
         11    1    3    3    0    0  0.12724857702E+02  0.93905218534E+01 -0.18546456822E+02  0.24373653093E+02  0.51100000000E-03 0. -1.
        -11    1    3    3    0    0  0.69848959748E+01 -0.78896838764E+01 -0.11044908847E+02  0.15265185723E+02  0.51100000000E-03 0.  1.
        -12    1    3    3    0    0  0.47776094895E+01  0.27859210990E+01 -0.59841398832E+01  0.81484255501E+01  0.00000000000E+00 0.  1.
</event>
<event>
 7    1  0.2598019E-009  0.4778727E+02  0.7816164E-02  0.1312668E+00
        -11   -1    0    0    0    0  0.00000000000E+00  0.00000000000E+00  0.45593999997E+02  0.45594000000E+02  0.51100000000E-03 0.  1.
         11   -1    0    0    0    0 -0.00000000000E+00 -0.00000000000E+00 -0.45593999997E+02  0.45594000000E+02  0.51100000000E-03 0. -1.
    9900012    2    1    2    0    0  0.37667169309E+00 -0.12140433829E+02 -0.41666429425E+02  0.47787270097E+02  0.19999995678E+02 0.  0.
        -12    1    1    2    0    0 -0.37667169309E+00  0.12140433829E+02  0.41666429425E+02  0.43400729903E+02  0.00000000000E+00 0.  1.
         11    1    3    3    0    0 -0.18696226120E+01  0.17144650641E+01 -0.16201320089E+02  0.16398708853E+02  0.51100000000E-03 0. -1.
        -11    1    3    3    0    0  0.31119442989E+01 -0.45160326263E+01 -0.15486594408E+01  0.56988678109E+01  0.51100000000E-03 0.  1.
         12    1    3    3    0    0 -0.86564999383E+00 -0.93388662670E+01 -0.23916449895E+02  0.25689693432E+02  0.00000000000E+00 0. -1.
</event>
<event>
 7    1  0.2759189E-009  0.4778727E+02  0.7816164E-02  0.1312668E+00
        -11   -1    0    0    0    0  0.00000000000E+00  0.00000000000E+00  0.45593999997E+02  0.45594000000E+02  0.51100000000E-03 0. -1.
         11   -1    0    0    0    0 -0.00000000000E+00 -0.00000000000E+00 -0.45593999997E+02  0.45594000000E+02  0.51100000000E-03 0.  1.
    9900012    2    1    2    0    0 -0.26505901874E+02  0.30170130064E+02 -0.16456727073E+02  0.47787269037E+02  0.19999990845E+02 0.  0.
        -12    1    1    2    0    0  0.26505901874E+02 -0.30170130064E+02  0.16456727073E+02  0.43400730963E+02  0.00000000000E+00 0.  1.
         11    1    3    3    0    0 -0.81572423638E+01  0.11131010317E+00 -0.31267314190E+01  0.87366722812E+01  0.51100000000E-03 0. -1.
        -11    1    3    3    0    0 -0.20199903136E+01  0.89736407573E+00  0.13029762376E+01  0.25658079601E+01  0.51100000000E-03 0.  1.
         12    1    3    3    0    0 -0.16328669196E+02  0.29161455885E+02 -0.14632971891E+02  0.36484788795E+02  0.00000000000E+00 0. -1.
</event>
<event>
 7    1  0.2598019E-009  0.4778727E+02  0.7816164E-02  0.1312668E+00
        -11   -1    0    0    0    0  0.00000000000E+00  0.00000000000E+00  0.45593999997E+02  0.45594000000E+02  0.51100000000E-03 0.  1.
         11   -1    0    0    0    0 -0.00000000000E+00 -0.00000000000E+00 -0.45593999997E+02  0.45594000000E+02  0.51100000000E-03 0. -1.
    9900012    2    1    2    0    0  0.39283878084E+01 -0.34137019319E+02 -0.26511408081E+02  0.47787273311E+02  0.20000010332E+02 0.  0.
        -12    1    1    2    0    0 -0.39283878084E+01  0.34137019319E+02  0.26511408081E+02  0.43400726689E+02  0.00000000000E+00 0.  1.
         11    1    3    3    0    0  0.50928436652E+01 -0.22695799193E+02 -0.24008745551E+02  0.33428374486E+02  0.51100000000E-03 0. -1.
        -11    1    3    3    0    0  0.12822556890E+01 -0.76995933830E+01  0.19538723098E+01  0.80464610345E+01  0.51100000000E-03 0.  1.
         12    1    3    3    0    0 -0.24467115459E+01 -0.37416267426E+01 -0.44565348397E+01  0.63124377896E+01  0.00000000000E+00 0. -1.
</event>
<event>
 7    1  0.2598019E-009  0.4778727E+02  0.7816164E-02  0.1312668E+00
        -11   -1    0    0    0    0  0.00000000000E+00  0.00000000000E+00  0.45593999997E+02  0.45594000000E+02  0.51100000000E-03 0.  1.
         11   -1    0    0    0    0 -0.00000000000E+00 -0.00000000000E+00 -0.45593999997E+02  0.45594000000E+02  0.51100000000E-03 0. -1.
    9900012    2    1    2    0    0 -0.53890599359E+01  0.27597506014E+02 -0.33059933417E+02  0.47787268408E+02  0.19999987980E+02 0.  0.
        -12    1    1    2    0    0  0.53890599359E+01 -0.27597506014E+02  0.33059933417E+02  0.43400731592E+02  0.00000000000E+00 0.  1.
         11    1    3    3    0    0 -0.57596060576E+01  0.15997637050E+02 -0.12038429680E+02  0.20833176487E+02  0.51100000000E-03 0. -1.
        -11    1    3    3    0    0 -0.18758845849E+01  0.49062028426E+00 -0.12815177246E+02  0.12961034656E+02  0.51100000000E-03 0.  1.
         12    1    3    3    0    0  0.22464307067E+01  0.11109248680E+02 -0.82063264902E+01  0.13993057265E+02  0.00000000000E+00 0. -1.
</event>
<event>
 7    1  0.2598019E-009  0.4778727E+02  0.7816164E-02  0.1312668E+00
        -11   -1    0    0    0    0  0.00000000000E+00  0.00000000000E+00  0.45593999997E+02  0.45594000000E+02  0.51100000000E-03 0.  1.
         11   -1    0    0    0    0 -0.00000000000E+00 -0.00000000000E+00 -0.45593999997E+02  0.45594000000E+02  0.51100000000E-03 0. -1.
    9900012    2    1    2    0    0 -0.38485207441E+02 -0.19539368157E+02 -0.45525125443E+01  0.47787268783E+02  0.19999989687E+02 0.  0.
        -12    1    1    2    0    0  0.38485207441E+02  0.19539368157E+02  0.45525125443E+01  0.43400731217E+02  0.00000000000E+00 0.  1.
         11    1    3    3    0    0 -0.16540730325E+01  0.19582927033E+01  0.23711325364E+01  0.34918673622E+01  0.51100000000E-03 0.  1.
        -11    1    3    3    0    0 -0.35901828650E+02 -0.20137943150E+02 -0.84811177126E+01  0.42028649903E+02  0.51100000000E-03 0. -1.
         12    1    3    3    0    0 -0.92930575841E+00 -0.13597177102E+01  0.15574726318E+01  0.22667515177E+01  0.00000000000E+00 0. -1.
</event>
<event>
 7    1  0.2598019E-009  0.4778728E+02  0.7816164E-02  0.1312668E+00
        -11   -1    0    0    0    0  0.00000000000E+00  0.00000000000E+00  0.45593999997E+02  0.45594000000E+02  0.51100000000E-03 0. -1.
         11   -1    0    0    0    0 -0.00000000000E+00 -0.00000000000E+00 -0.45593999997E+02  0.45594000000E+02  0.51100000000E-03 0.  1.
    9900012    2    1    2    0    0 -0.15148002046E+02 -0.36342057033E+02  0.18259674992E+02  0.47787276432E+02  0.20000024564E+02 0.  0.
        -12    1    1    2    0    0  0.15148002046E+02  0.36342057033E+02 -0.18259674992E+02  0.43400723568E+02  0.00000000000E+00 0.  1.
         11    1    3    3    0    0 -0.12525076802E+02 -0.30759766519E+02  0.11145228356E+02  0.35032226600E+02  0.51100000000E-03 0. -1.
        -11    1    3    3    0    0  0.14674805125E+01 -0.35145097316E+01  0.72282935080E+01  0.81702818193E+01  0.51100000000E-03 0.  1.
         12    1    3    3    0    0 -0.40904057563E+01 -0.20677807830E+01 -0.11384687195E+00  0.45847680125E+01  0.00000000000E+00 0. -1.
</event>
<event>
 7    1  0.2598019E-009  0.4778727E+02  0.7816164E-02  0.1312668E+00
        -11   -1    0    0    0    0  0.00000000000E+00  0.00000000000E+00  0.45593999997E+02  0.45594000000E+02  0.51100000000E-03 0. -1.
         11   -1    0    0    0    0 -0.00000000000E+00 -0.00000000000E+00 -0.45593999997E+02  0.45594000000E+02  0.51100000000E-03 0.  1.
    9900012    2    1    2    0    0  0.20238015729E+02  0.21098307128E+02  0.32076587008E+02  0.47787270992E+02  0.19999999759E+02 0.  0.
        -12    1    1    2    0    0 -0.20238015729E+02 -0.21098307128E+02 -0.32076587008E+02  0.43400729008E+02  0.00000000000E+00 0.  1.
         11    1    3    3    0    0  0.13959694413E+02  0.17025549679E+02  0.21243209726E+02  0.30594384610E+02  0.51100000000E-03 0. -1.
        -11    1    3    3    0    0 -0.25408110201E+01  0.11641818768E+00  0.57150292501E+01  0.62554642853E+01  0.51100000000E-03 0.  1.
        -12    1    3    3    0    0  0.88191323369E+01  0.39563392622E+01  0.51183480325E+01  0.10937422096E+02  0.00000000000E+00 0.  1.
</event>
<event>
 7    1  0.2598019E-009  0.4778727E+02  0.7816164E-02  0.1312668E+00
        -11   -1    0    0    0    0  0.00000000000E+00  0.00000000000E+00  0.45593999997E+02  0.45594000000E+02  0.51100000000E-03 0. -1.
         11   -1    0    0    0    0 -0.00000000000E+00 -0.00000000000E+00 -0.45593999997E+02  0.45594000000E+02  0.51100000000E-03 0.  1.
    9900012    2    1    2    0    0 -0.35580570990E+02  0.24678296357E+02 -0.29373533086E+01  0.47787269736E+02  0.19999994032E+02 0.  0.
        -12    1    1    2    0    0  0.35580570990E+02 -0.24678296357E+02  0.29373533086E+01  0.43400730264E+02  0.00000000000E+00 0.  1.
         11    1    3    3    0    0 -0.15343772277E+02  0.12988685193E+02 -0.99276125026E+01  0.22420855938E+02  0.51100000000E-03 0.  1.
        -11    1    3    3    0    0 -0.15134544441E+02  0.11295116964E+02  0.35918576900E+01  0.19223307327E+02  0.51100000000E-03 0. -1.
         12    1    3    3    0    0 -0.51022542716E+01  0.39449420042E+00  0.33984015039E+01  0.61431064705E+01  0.00000000000E+00 0. -1.
</event>
<event>
 7    1  0.2598019E-009  0.4778727E+02  0.7816164E-02  0.1312668E+00
        -11   -1    0    0    0    0  0.00000000000E+00  0.00000000000E+00  0.45593999997E+02  0.45594000000E+02  0.51100000000E-03 0.  1.
         11   -1    0    0    0    0 -0.00000000000E+00 -0.00000000000E+00 -0.45593999997E+02  0.45594000000E+02  0.51100000000E-03 0. -1.
    9900012    2    1    2    0    0  0.10200778509E+02  0.57884196632E+01 -0.41785905000E+02  0.47787267966E+02  0.19999985965E+02 0.  0.
        -12    1    1    2    0    0 -0.10200778509E+02 -0.57884196632E+01  0.41785905000E+02  0.43400732034E+02  0.00000000000E+00 0.  1.
         11    1    3    3    0    0  0.10175238241E+02  0.37774943483E+01 -0.24252894080E+02  0.26570807446E+02  0.51100000000E-03 0. -1.
        -11    1    3    3    0    0 -0.54390254839E+01 -0.12532721046E+01 -0.82578300416E+01  0.99672185909E+01  0.51100000000E-03 0.  1.
        -12    1    3    3    0    0  0.54645657520E+01  0.32641974195E+01 -0.92751808789E+01  0.11249241929E+02  0.00000000000E+00 0.  1.
</event>
<event>
 7    1  0.2598019E-009  0.4778727E+02  0.7816164E-02  0.1312668E+00
        -11   -1    0    0    0    0  0.00000000000E+00  0.00000000000E+00  0.45593999997E+02  0.45594000000E+02  0.51100000000E-03 0.  1.
         11   -1    0    0    0    0 -0.00000000000E+00 -0.00000000000E+00 -0.45593999997E+02  0.45594000000E+02  0.51100000000E-03 0. -1.
    9900012    2    1    2    0    0 -0.14738096750E+02 -0.20425976506E+02 -0.35343899617E+02  0.47787271294E+02  0.20000001139E+02 0.  0.
        -12    1    1    2    0    0  0.14738096750E+02  0.20425976506E+02  0.35343899617E+02  0.43400728706E+02  0.00000000000E+00 0.  1.
         11    1    3    3    0    0 -0.13461268796E+02 -0.67735393441E+01 -0.18477410644E+02  0.23843265238E+02  0.51100000000E-03 0. -1.
        -11    1    3    3    0    0  0.40492355997E+01 -0.54309571907E+01 -0.95895196909E+01  0.11740974964E+02  0.51100000000E-03 0.  1.
        -12    1    3    3    0    0 -0.53260635541E+01 -0.82214799709E+01 -0.72769692824E+01  0.12203031092E+02  0.00000000000E+00 0.  1.
</event>
<event>
 7    1  0.2598019E-009  0.4778727E+02  0.7816164E-02  0.1312668E+00
        -11   -1    0    0    0    0  0.00000000000E+00  0.00000000000E+00  0.45593999997E+02  0.45594000000E+02  0.51100000000E-03 0. -1.
         11   -1    0    0    0    0 -0.00000000000E+00 -0.00000000000E+00 -0.45593999997E+02  0.45594000000E+02  0.51100000000E-03 0.  1.
    9900012    2    1    2    0    0  0.12932266262E+01  0.42717254487E+02 -0.75621910604E+01  0.47787274204E+02  0.20000014404E+02 0.  0.
        -12    1    1    2    0    0 -0.12932266262E+01 -0.42717254487E+02  0.75621910604E+01  0.43400725796E+02  0.00000000000E+00 0.  1.
         11    1    3    3    0    0  0.22291102580E+01  0.25645274746E+02 -0.11413204079E+02  0.28158662557E+02  0.51100000000E-03 0. -1.
        -11    1    3    3    0    0  0.32874704105E+01  0.29292779324E+01  0.12146053652E+00  0.44048704667E+01  0.51100000000E-03 0.  1.
         12    1    3    3    0    0 -0.42233540423E+01  0.14142701808E+02  0.37295524823E+01  0.15223741180E+02  0.00000000000E+00 0. -1.
</event>
<event>
 7    1  0.2598019E-009  0.4778727E+02  0.7816164E-02  0.1312668E+00
        -11   -1    0    0    0    0  0.00000000000E+00  0.00000000000E+00  0.45593999997E+02  0.45594000000E+02  0.51100000000E-03 0. -1.
         11   -1    0    0    0    0 -0.00000000000E+00 -0.00000000000E+00 -0.45593999997E+02  0.45594000000E+02  0.51100000000E-03 0.  1.
    9900012    2    1    2    0    0 -0.35137348915E+02 -0.18133503723E+02 -0.17893186131E+02  0.47787270099E+02  0.19999995689E+02 0.  0.
        -12    1    1    2    0    0  0.35137348915E+02  0.18133503723E+02  0.17893186131E+02  0.43400729901E+02  0.00000000000E+00 0.  1.
         11    1    3    3    0    0 -0.11184981977E+02 -0.82395374437E+01  0.88037219169E-01  0.13892499772E+02  0.51100000000E-03 0. -1.
        -11    1    3    3    0    0 -0.58166172506E+01  0.16594377193E+01 -0.84060140610E+01  0.10356053420E+02  0.51100000000E-03 0.  1.
        -12    1    3    3    0    0 -0.18135749688E+02 -0.11553403998E+02 -0.95752092888E+01  0.23538716906E+02  0.00000000000E+00 0.  1.
</event>
<event>
 7    1  0.2598019E-009  0.4778727E+02  0.7816164E-02  0.1312668E+00
        -11   -1    0    0    0    0  0.00000000000E+00  0.00000000000E+00  0.45593999997E+02  0.45594000000E+02  0.51100000000E-03 0.  1.
         11   -1    0    0    0    0 -0.00000000000E+00 -0.00000000000E+00 -0.45593999997E+02  0.45594000000E+02  0.51100000000E-03 0. -1.
    9900012    2    1    2    0    0 -0.75966261390E+01 -0.33908975300E+02 -0.26001843853E+02  0.47787271684E+02  0.20000002917E+02 0.  0.
        -12    1    1    2    0    0  0.75966261390E+01  0.33908975300E+02  0.26001843853E+02  0.43400728316E+02  0.00000000000E+00 0.  1.
         11    1    3    3    0    0 -0.95757858103E+01 -0.25038010580E+02 -0.22085027658E+02  0.34732493354E+02  0.51100000000E-03 0. -1.
        -11    1    3    3    0    0  0.12773533738E+01 -0.77735592895E+01  0.10249576144E+01  0.79442050604E+01  0.51100000000E-03 0.  1.
        -12    1    3    3    0    0  0.70180629748E+00 -0.10974054299E+01 -0.49417738097E+01  0.51105732695E+01  0.00000000000E+00 0.  1.
</event>
<event>
 7    1  0.2598019E-009  0.4778727E+02  0.7816164E-02  0.1312668E+00
        -11   -1    0    0    0    0  0.00000000000E+00  0.00000000000E+00  0.45593999997E+02  0.45594000000E+02  0.51100000000E-03 0.  1.
         11   -1    0    0    0    0 -0.00000000000E+00 -0.00000000000E+00 -0.45593999997E+02  0.45594000000E+02  0.51100000000E-03 0. -1.
    9900012    2    1    2    0    0  0.52439963913E+01  0.24792668635E+02 -0.35234175210E+02  0.47787273982E+02  0.20000013393E+02 0.  0.
        -12    1    1    2    0    0 -0.52439963913E+01 -0.24792668635E+02  0.35234175210E+02  0.43400726018E+02  0.00000000000E+00 0.  1.
         11    1    3    3    0    0  0.32841246003E+01  0.23784976581E+01 -0.17121366463E+02  0.17594996883E+02  0.51100000000E-03 0. -1.
        -11    1    3    3    0    0 -0.13857308922E+01  0.18019597254E+01  0.37296753615E+00  0.23035654976E+01  0.51100000000E-03 0.  1.
         12    1    3    3    0    0  0.33456026832E+01  0.20612211251E+02 -0.18485776283E+02  0.27888711601E+02  0.00000000000E+00 0. -1.
</event>
<event>
 7    1  0.2598019E-009  0.4778727E+02  0.7816164E-02  0.1312668E+00
        -11   -1    0    0    0    0  0.00000000000E+00  0.00000000000E+00  0.45593999997E+02  0.45594000000E+02  0.51100000000E-03 0.  1.
         11   -1    0    0    0    0 -0.00000000000E+00 -0.00000000000E+00 -0.45593999997E+02  0.45594000000E+02  0.51100000000E-03 0. -1.
    9900012    2    1    2    0    0 -0.33410015697E+02  0.24670145577E+02 -0.12600709597E+02  0.47787272886E+02  0.20000008396E+02 0.  0.
        -12    1    1    2    0    0  0.33410015697E+02 -0.24670145577E+02  0.12600709597E+02  0.43400727114E+02  0.00000000000E+00 0.  1.
         11    1    3    3    0    0 -0.21067384960E+02  0.10633594192E+02 -0.14151047339E+02  0.27516543670E+02  0.51100000000E-03 0. -1.
        -11    1    3    3    0    0 -0.33280006860E+01  0.50310369689E+01  0.40766699679E+01  0.72805329363E+01  0.51100000000E-03 0.  1.
        -12    1    3    3    0    0 -0.90146300509E+01  0.90055144162E+01 -0.25263322256E+01  0.12990196279E+02  0.00000000000E+00 0.  1.
</event>
<event>
 7    1  0.2598019E-009  0.4778726E+02  0.7816164E-02  0.1312668E+00
        -11   -1    0    0    0    0  0.00000000000E+00  0.00000000000E+00  0.45593999997E+02  0.45594000000E+02  0.51100000000E-03 0.  1.
         11   -1    0    0    0    0 -0.00000000000E+00 -0.00000000000E+00 -0.45593999997E+02  0.45594000000E+02  0.51100000000E-03 0. -1.
    9900012    2    1    2    0    0  0.22990849256E+02 -0.26350774284E+02 -0.25703735503E+02  0.47787257222E+02  0.19999936978E+02 0.  0.
        -12    1    1    2    0    0 -0.22990849256E+02  0.26350774284E+02  0.25703735503E+02  0.43400742778E+02  0.00000000000E+00 0.  1.
         11    1    3    3    0    0  0.90203523827E+01 -0.48806281300E+01 -0.49304535036E+01  0.11379659927E+02  0.51100000000E-03 0. -1.
        -11    1    3    3    0    0  0.17187948594E+02 -0.15651921184E+02 -0.16408290499E+02  0.28454177391E+02  0.51100000000E-03 0.  1.
        -12    1    3    3    0    0 -0.32174517205E+01 -0.58182249695E+01 -0.43649914998E+01  0.79534199036E+01  0.00000000000E+00 0.  1.
</event>
<event>
 7    1  0.2598019E-009  0.4778727E+02  0.7816164E-02  0.1312668E+00
        -11   -1    0    0    0    0  0.00000000000E+00  0.00000000000E+00  0.45593999997E+02  0.45594000000E+02  0.51100000000E-03 0. -1.
         11   -1    0    0    0    0 -0.00000000000E+00 -0.00000000000E+00 -0.45593999997E+02  0.45594000000E+02  0.51100000000E-03 0.  1.
    9900012    2    1    2    0    0  0.71230525631E+01  0.23254043350E+02  0.35946279043E+02  0.47787269741E+02  0.19999994059E+02 0.  0.
        -12    1    1    2    0    0 -0.71230525631E+01 -0.23254043350E+02 -0.35946279043E+02  0.43400730259E+02  0.00000000000E+00 0.  1.
         11    1    3    3    0    0  0.11990180731E+02  0.11133613225E+02  0.14782971190E+02  0.22051258805E+02  0.51100000000E-03 0. -1.
        -11    1    3    3    0    0 -0.28349215620E+01  0.11611430243E+02  0.14725021832E+02  0.18965451768E+02  0.51100000000E-03 0.  1.
        -12    1    3    3    0    0 -0.20322066061E+01  0.50899988226E+00  0.64382860209E+01  0.67705591687E+01  0.00000000000E+00 0.  1.
</event>
<event>
 7    1  0.2598019E-009  0.4778727E+02  0.7816164E-02  0.1312668E+00
        -11   -1    0    0    0    0  0.00000000000E+00  0.00000000000E+00  0.45593999997E+02  0.45594000000E+02  0.51100000000E-03 0.  1.
         11   -1    0    0    0    0 -0.00000000000E+00 -0.00000000000E+00 -0.45593999997E+02  0.45594000000E+02  0.51100000000E-03 0. -1.
    9900012    2    1    2    0    0  0.15311651631E+02 -0.35417662730E+02  0.19868722012E+02  0.47787267019E+02  0.19999981646E+02 0.  0.
        -12    1    1    2    0    0 -0.15311651631E+02  0.35417662730E+02 -0.19868722012E+02  0.43400732981E+02  0.00000000000E+00 0.  1.
         11    1    3    3    0    0  0.11750016258E+02 -0.34567938774E+02  0.13128773564E+02  0.38799097524E+02  0.51100000000E-03 0. -1.
        -11    1    3    3    0    0  0.25009744073E+01 -0.21004793818E+01  0.65730705038E+01  0.73397644873E+01  0.51100000000E-03 0.  1.
         12    1    3    3    0    0  0.10606609657E+01  0.12507554260E+01  0.16687794379E+00  0.16484050072E+01  0.00000000000E+00 0. -1.
</event>
<event>
 7    1  0.2598019E-009  0.4778727E+02  0.7816164E-02  0.1312668E+00
        -11   -1    0    0    0    0  0.00000000000E+00  0.00000000000E+00  0.45593999997E+02  0.45594000000E+02  0.51100000000E-03 0. -1.
         11   -1    0    0    0    0 -0.00000000000E+00 -0.00000000000E+00 -0.45593999997E+02  0.45594000000E+02  0.51100000000E-03 0.  1.
    9900012    2    1    2    0    0  0.32477332858E+02 -0.23860763644E+02  0.16109319345E+02  0.47787270041E+02  0.19999995424E+02 0.  0.
        -12    1    1    2    0    0 -0.32477332858E+02  0.23860763644E+02 -0.16109319345E+02  0.43400729959E+02  0.00000000000E+00 0.  1.
         11    1    3    3    0    0  0.14172173730E+02 -0.66359501611E+01  0.75829029659E+01  0.17389271418E+02  0.51100000000E-03 0. -1.
        -11    1    3    3    0    0  0.11648526692E+02 -0.18102843362E+02  0.96492918315E+01  0.23590463009E+02  0.51100000000E-03 0.  1.
        -12    1    3    3    0    0  0.66566324363E+01  0.87802987909E+00 -0.11228754526E+01  0.68075356145E+01  0.00000000000E+00 0.  1.
</event>
<event>
 7    1  0.2598019E-009  0.4778727E+02  0.7816164E-02  0.1312668E+00
        -11   -1    0    0    0    0  0.00000000000E+00  0.00000000000E+00  0.45593999997E+02  0.45594000000E+02  0.51100000000E-03 0.  1.
         11   -1    0    0    0    0 -0.00000000000E+00 -0.00000000000E+00 -0.45593999997E+02  0.45594000000E+02  0.51100000000E-03 0. -1.
    9900012    2    1    2    0    0 -0.38145283949E+01 -0.27213664769E+02 -0.33592988250E+02  0.47787273778E+02  0.20000012465E+02 0.  0.
        -12    1    1    2    0    0  0.38145283949E+01  0.27213664769E+02  0.33592988250E+02  0.43400726222E+02  0.00000000000E+00 0.  1.
         11    1    3    3    0    0 -0.77766253392E+00 -0.10038823069E+02 -0.19523965836E+02  0.21967429751E+02  0.51100000000E-03 0. -1.
        -11    1    3    3    0    0 -0.21651347114E+01 -0.76026856285E+01 -0.14149283506E+02  0.16207740777E+02  0.51100000000E-03 0.  1.
        -12    1    3    3    0    0 -0.87173114962E+00 -0.95721560717E+01  0.80261093084E-01  0.96121032507E+01  0.00000000000E+00 0.  1.
</event>
<event>
 7    1  0.2598019E-009  0.4778727E+02  0.7816164E-02  0.1312668E+00
        -11   -1    0    0    0    0  0.00000000000E+00  0.00000000000E+00  0.45593999997E+02  0.45594000000E+02  0.51100000000E-03 0. -1.
         11   -1    0    0    0    0 -0.00000000000E+00 -0.00000000000E+00 -0.45593999997E+02  0.45594000000E+02  0.51100000000E-03 0.  1.
    9900012    2    1    2    0    0  0.11038606667E+02  0.28033755741E+02  0.31239098668E+02  0.47787267476E+02  0.19999983729E+02 0.  0.
        -12    1    1    2    0    0 -0.11038606667E+02 -0.28033755741E+02 -0.31239098668E+02  0.43400732524E+02  0.00000000000E+00 0.  1.
         11    1    3    3    0    0  0.26469947062E+01 -0.13676591446E+01  0.11341063689E+01  0.31879883983E+01  0.51100000000E-03 0. -1.
        -11    1    3    3    0    0  0.45113865760E+01  0.15276867579E+01  0.44070901428E+01  0.64891354937E+01  0.51100000000E-03 0.  1.
         12    1    3    3    0    0  0.38802253847E+01  0.27873728127E+02  0.25697902156E+02  0.38110143584E+02  0.00000000000E+00 0. -1.
</event>
<event>
 7    1  0.2598019E-009  0.4778727E+02  0.7816164E-02  0.1312668E+00
        -11   -1    0    0    0    0  0.00000000000E+00  0.00000000000E+00  0.45593999997E+02  0.45594000000E+02  0.51100000000E-03 0. -1.
         11   -1    0    0    0    0 -0.00000000000E+00 -0.00000000000E+00 -0.45593999997E+02  0.45594000000E+02  0.51100000000E-03 0.  1.
    9900012    2    1    2    0    0  0.14627652703E+02 -0.33017046428E+02  0.24073428616E+02  0.47787267935E+02  0.19999985825E+02 0.  0.
        -12    1    1    2    0    0 -0.14627652703E+02  0.33017046428E+02 -0.24073428616E+02  0.43400732065E+02  0.00000000000E+00 0.  1.
         11    1    3    3    0    0  0.80910030977E+01 -0.14721833929E+02  0.10704938576E+02  0.19919649484E+02  0.51100000000E-03 0. -1.
        -11    1    3    3    0    0 -0.14876490622E+01  0.54461543944E+00 -0.17897451760E+01  0.23901660539E+01  0.51100000000E-03 0.  1.
        -12    1    3    3    0    0  0.80242986676E+01 -0.18839827938E+02  0.15158235215E+02  0.25477452398E+02  0.00000000000E+00 0.  1.
</event>
<event>
 7    1  0.2598019E-009  0.4778727E+02  0.7816164E-02  0.1312668E+00
        -11   -1    0    0    0    0  0.00000000000E+00  0.00000000000E+00  0.45593999997E+02  0.45594000000E+02  0.51100000000E-03 0.  1.
         11   -1    0    0    0    0 -0.00000000000E+00 -0.00000000000E+00 -0.45593999997E+02  0.45594000000E+02  0.51100000000E-03 0. -1.
    9900012    2    1    2    0    0  0.35082598588E+02 -0.25550400473E+02  0.10769713210E+00  0.47787270897E+02  0.19999999327E+02 0.  0.
        -12    1    1    2    0    0 -0.35082598588E+02  0.25550400473E+02 -0.10769713210E+00  0.43400729103E+02  0.00000000000E+00 0.  1.
         11    1    3    3    0    0  0.13114007432E+02 -0.89200406749E+01  0.57518575356E+01  0.16870927121E+02  0.51100000000E-03 0. -1.
        -11    1    3    3    0    0  0.46772995750E+01 -0.24204616607E+01 -0.66860204585E+01  0.85110889902E+01  0.51100000000E-03 0.  1.
        -12    1    3    3    0    0  0.17291291582E+02 -0.14209898137E+02  0.10418600550E+01  0.22405254785E+02  0.00000000000E+00 0.  1.
</event>
<event>
 7    1  0.2598019E-009  0.4778728E+02  0.7816164E-02  0.1312668E+00
        -11   -1    0    0    0    0  0.00000000000E+00  0.00000000000E+00  0.45593999997E+02  0.45594000000E+02  0.51100000000E-03 0. -1.
         11   -1    0    0    0    0 -0.00000000000E+00 -0.00000000000E+00 -0.45593999997E+02  0.45594000000E+02  0.51100000000E-03 0.  1.
    9900012    2    1    2    0    0  0.11635745934E+02 -0.41308407194E+02  0.64689498305E+01  0.47787281109E+02  0.20000045887E+02 0.  0.
        -12    1    1    2    0    0 -0.11635745934E+02  0.41308407194E+02 -0.64689498305E+01  0.43400718891E+02  0.00000000000E+00 0.  1.
         11    1    3    3    0    0  0.32785026946E+01 -0.14893892259E+00  0.28444884214E+01  0.43430262907E+01  0.51100000000E-03 0. -1.
        -11    1    3    3    0    0  0.10332915767E+02 -0.35068398530E+02  0.49865419685E+01  0.36897524642E+02  0.51100000000E-03 0.  1.
         12    1    3    3    0    0 -0.19756725278E+01 -0.60910697422E+01 -0.13620805594E+01  0.65467301756E+01  0.00000000000E+00 0. -1.
</event>
<event>
 7    1  0.2598019E-009  0.4778727E+02  0.7816164E-02  0.1312668E+00
        -11   -1    0    0    0    0  0.00000000000E+00  0.00000000000E+00  0.45593999997E+02  0.45594000000E+02  0.51100000000E-03 0. -1.
         11   -1    0    0    0    0 -0.00000000000E+00 -0.00000000000E+00 -0.45593999997E+02  0.45594000000E+02  0.51100000000E-03 0.  1.
    9900012    2    1    2    0    0 -0.14788489079E+01  0.42843290520E+02 -0.67741035005E+01  0.47787274028E+02  0.20000013604E+02 0.  0.
        -12    1    1    2    0    0  0.14788489079E+01 -0.42843290520E+02  0.67741035005E+01  0.43400725972E+02  0.00000000000E+00 0.  1.
         11    1    3    3    0    0 -0.58096347080E+00  0.20477491890E+02 -0.11392032627E+01  0.20517382313E+02  0.51100000000E-03 0. -1.
        -11    1    3    3    0    0  0.32074578475E+01  0.88242386118E+01 -0.86902908929E+01  0.12793597187E+02  0.51100000000E-03 0.  1.
        -12    1    3    3    0    0 -0.41053432846E+01  0.13541560018E+02  0.30553906550E+01  0.14476294528E+02  0.00000000000E+00 0.  1.
</event>
<event>
 7    1  0.2598019E-009  0.4778727E+02  0.7816164E-02  0.1312668E+00
        -11   -1    0    0    0    0  0.00000000000E+00  0.00000000000E+00  0.45593999997E+02  0.45594000000E+02  0.51100000000E-03 0.  1.
         11   -1    0    0    0    0 -0.00000000000E+00 -0.00000000000E+00 -0.45593999997E+02  0.45594000000E+02  0.51100000000E-03 0. -1.
    9900012    2    1    2    0    0  0.15992628013E+02 -0.37763191649E+02 -0.14205646818E+02  0.47787271944E+02  0.20000004100E+02 0.  0.
        -12    1    1    2    0    0 -0.15992628013E+02  0.37763191649E+02  0.14205646818E+02  0.43400728056E+02  0.00000000000E+00 0.  1.
         11    1    3    3    0    0  0.69507654931E+01 -0.13829961225E+02  0.22451382937E+01  0.15640384096E+02  0.51100000000E-03 0. -1.
        -11    1    3    3    0    0  0.26308242409E+00 -0.99340076366E+01 -0.10816975458E+02  0.14688794315E+02  0.51100000000E-03 0.  1.
         12    1    3    3    0    0  0.87787800956E+01 -0.13999222787E+02 -0.56338096535E+01  0.17458093534E+02  0.00000000000E+00 0. -1.
</event>
<event>
 7    1  0.2598019E-009  0.4778727E+02  0.7816164E-02  0.1312668E+00
        -11   -1    0    0    0    0  0.00000000000E+00  0.00000000000E+00  0.45593999997E+02  0.45594000000E+02  0.51100000000E-03 0. -1.
         11   -1    0    0    0    0 -0.00000000000E+00 -0.00000000000E+00 -0.45593999997E+02  0.45594000000E+02  0.51100000000E-03 0.  1.
    9900012    2    1    2    0    0  0.77250347711E+01 -0.37077713556E+02  0.21194108780E+02  0.47787271299E+02  0.20000001162E+02 0.  0.
        -12    1    1    2    0    0 -0.77250347711E+01  0.37077713556E+02 -0.21194108780E+02  0.43400728701E+02  0.00000000000E+00 0.  1.
         11    1    3    3    0    0  0.55779160853E+01 -0.12668986687E+02  0.14364485879E+02  0.19948805136E+02  0.51100000000E-03 0. -1.
        -11    1    3    3    0    0 -0.15100587598E+00 -0.11625337498E+02 -0.24425142274E+01  0.11880115770E+02  0.51100000000E-03 0.  1.
         12    1    3    3    0    0  0.22981245618E+01 -0.12783389372E+02  0.92721371286E+01  0.15958350393E+02  0.00000000000E+00 0. -1.
</event>
<event>
 7    1  0.2598019E-009  0.4778727E+02  0.7816164E-02  0.1312668E+00
        -11   -1    0    0    0    0  0.00000000000E+00  0.00000000000E+00  0.45593999997E+02  0.45594000000E+02  0.51100000000E-03 0.  1.
         11   -1    0    0    0    0 -0.00000000000E+00 -0.00000000000E+00 -0.45593999997E+02  0.45594000000E+02  0.51100000000E-03 0. -1.
    9900012    2    1    2    0    0  0.75467258286E+01 -0.34532196537E+02 -0.25183284963E+02  0.47787268325E+02  0.19999987599E+02 0.  0.
        -12    1    1    2    0    0 -0.75467258286E+01  0.34532196537E+02  0.25183284963E+02  0.43400731675E+02  0.00000000000E+00 0.  1.
         11    1    3    3    0    0 -0.39133625730E+01 -0.15329447330E+02 -0.35584264947E+01  0.16216311586E+02  0.51100000000E-03 0. -1.
        -11    1    3    3    0    0  0.89283346129E+01 -0.12472260474E+02 -0.11587096237E+02  0.19223247378E+02  0.51100000000E-03 0.  1.
         12    1    3    3    0    0  0.25317537888E+01 -0.67304887327E+01 -0.10037762232E+02  0.12347709360E+02  0.00000000000E+00 0. -1.
</event>
<event>
 7    1  0.2598019E-009  0.4778727E+02  0.7816164E-02  0.1312668E+00
        -11   -1    0    0    0    0  0.00000000000E+00  0.00000000000E+00  0.45593999997E+02  0.45594000000E+02  0.51100000000E-03 0. -1.
         11   -1    0    0    0    0 -0.00000000000E+00 -0.00000000000E+00 -0.45593999997E+02  0.45594000000E+02  0.51100000000E-03 0.  1.
    9900012    2    1    2    0    0  0.40883785675E+02 -0.40542323964E-01  0.14564946334E+02  0.47787271475E+02  0.20000001964E+02 0.  0.
        -12    1    1    2    0    0 -0.40883785675E+02  0.40542323964E-01 -0.14564946334E+02  0.43400728525E+02  0.00000000000E+00 0.  1.
         11    1    3    3    0    0  0.11059471178E+02  0.75742309392E+01  0.72858492827E+01  0.15256620763E+02  0.51100000000E-03 0. -1.
        -11    1    3    3    0    0  0.15540078710E+02 -0.72636428839E+01  0.60494230041E+01  0.18189284571E+02  0.51100000000E-03 0.  1.
         12    1    3    3    0    0  0.14284235787E+02 -0.35113037929E+00  0.12296740471E+01  0.14341366142E+02  0.00000000000E+00 0. -1.
</event>
<event>
 7    1  0.2598019E-009  0.4778727E+02  0.7816164E-02  0.1312668E+00
        -11   -1    0    0    0    0  0.00000000000E+00  0.00000000000E+00  0.45593999997E+02  0.45594000000E+02  0.51100000000E-03 0.  1.
         11   -1    0    0    0    0 -0.00000000000E+00 -0.00000000000E+00 -0.45593999997E+02  0.45594000000E+02  0.51100000000E-03 0. -1.
    9900012    2    1    2    0    0  0.30866967668E+02  0.26713113764E+02 -0.14739859619E+02  0.47787267269E+02  0.19999982788E+02 0.  0.
        -12    1    1    2    0    0 -0.30866967668E+02 -0.26713113764E+02  0.14739859619E+02  0.43400732731E+02  0.00000000000E+00 0.  1.
         11    1    3    3    0    0  0.11749099847E+02  0.25813040619E+01 -0.35122920067E+01  0.12531587021E+02  0.51100000000E-03 0. -1.
        -11    1    3    3    0    0  0.34184341907E+01  0.11846255701E+02 -0.88549641621E+01  0.15179916239E+02  0.51100000000E-03 0.  1.
        -12    1    3    3    0    0  0.15699433631E+02  0.12285554001E+02 -0.23726034501E+01  0.20075764009E+02  0.00000000000E+00 0.  1.
</event>
<event>
 7    1  0.2598019E-009  0.4778723E+02  0.7816164E-02  0.1312668E+00
        -11   -1    0    0    0    0  0.00000000000E+00  0.00000000000E+00  0.45593999997E+02  0.45594000000E+02  0.51100000000E-03 0.  1.
         11   -1    0    0    0    0 -0.00000000000E+00 -0.00000000000E+00 -0.45593999997E+02  0.45594000000E+02  0.51100000000E-03 0. -1.
    9900012    2    1    2    0    0 -0.40753898610E+02 -0.10953089062E+02 -0.10137864672E+02  0.47787231435E+02  0.19999819403E+02 0.  0.
        -12    1    1    2    0    0  0.40753898610E+02  0.10953089062E+02  0.10137864672E+02  0.43400768565E+02  0.00000000000E+00 0.  1.
         11    1    3    3    0    0 -0.11272617392E+02 -0.23690859610E+01  0.32703631840E+00  0.11523516137E+02  0.51100000000E-03 0. -1.
        -11    1    3    3    0    0 -0.10777208478E+02 -0.32624998742E+01  0.40832848616E+01  0.11977701930E+02  0.51100000000E-03 0.  1.
        -12    1    3    3    0    0 -0.18704072740E+02 -0.53215032271E+01 -0.14548185852E+02  0.24286013367E+02  0.00000000000E+00 0.  1.
</event>
<event>
 7    1  0.2598019E-009  0.4778727E+02  0.7816164E-02  0.1312668E+00
        -11   -1    0    0    0    0  0.00000000000E+00  0.00000000000E+00  0.45593999997E+02  0.45594000000E+02  0.51100000000E-03 0.  1.
         11   -1    0    0    0    0 -0.00000000000E+00 -0.00000000000E+00 -0.45593999997E+02  0.45594000000E+02  0.51100000000E-03 0. -1.
    9900012    2    1    2    0    0  0.15201296152E+02 -0.14300952577E+02 -0.38052945401E+02  0.47787270709E+02  0.19999998469E+02 0.  0.
        -12    1    1    2    0    0 -0.15201296152E+02  0.14300952577E+02  0.38052945401E+02  0.43400729291E+02  0.00000000000E+00 0.  1.
         11    1    3    3    0    0  0.42570853384E+01 -0.59342072641E+01 -0.13627058401E+02  0.15460734535E+02  0.51100000000E-03 0. -1.
        -11    1    3    3    0    0  0.66864844514E+01 -0.11455103258E+02 -0.90011244977E+01  0.16029619691E+02  0.51100000000E-03 0.  1.
        -12    1    3    3    0    0  0.42577263620E+01  0.30883579447E+01 -0.15424762503E+02  0.16296916482E+02  0.00000000000E+00 0.  1.
</event>
<event>
 7    1  0.2598019E-009  0.4778730E+02  0.7816164E-02  0.1312668E+00
        -11   -1    0    0    0    0  0.00000000000E+00  0.00000000000E+00  0.45593999997E+02  0.45594000000E+02  0.51100000000E-03 0.  1.
         11   -1    0    0    0    0 -0.00000000000E+00 -0.00000000000E+00 -0.45593999997E+02  0.45594000000E+02  0.51100000000E-03 0. -1.
    9900012    2    1    2    0    0 -0.56978826560E+00  0.47678819100E+01 -0.43134251660E+02  0.47787296978E+02  0.20000118240E+02 0.  0.
        -12    1    1    2    0    0  0.56978826560E+00 -0.47678819100E+01  0.43134251660E+02  0.43400703022E+02  0.00000000000E+00 0.  1.
         11    1    3    3    0    0 -0.15592769140E+01 -0.42632441055E+00 -0.26593295289E+02  0.26642380741E+02  0.51100000000E-03 0. -1.
        -11    1    3    3    0    0  0.80602191467E+00 -0.28301054738E+01 -0.21243357633E+00  0.29503044936E+01  0.51100000000E-03 0.  1.
        -12    1    3    3    0    0  0.18346673372E+00  0.80243117943E+01 -0.16328522795E+02  0.18194611743E+02  0.00000000000E+00 0.  1.
</event>
<event>
 7    1  0.2598019E-009  0.4778728E+02  0.7816164E-02  0.1312668E+00
        -11   -1    0    0    0    0  0.00000000000E+00  0.00000000000E+00  0.45593999997E+02  0.45594000000E+02  0.51100000000E-03 0.  1.
         11   -1    0    0    0    0 -0.00000000000E+00 -0.00000000000E+00 -0.45593999997E+02  0.45594000000E+02  0.51100000000E-03 0. -1.
    9900012    2    1    2    0    0  0.29130077780E+02  0.14321074266E+02 -0.28809166533E+02  0.47787277933E+02  0.20000031406E+02 0.  0.
        -12    1    1    2    0    0 -0.29130077780E+02 -0.14321074266E+02  0.28809166533E+02  0.43400722067E+02  0.00000000000E+00 0.  1.
         11    1    3    3    0    0 -0.48419971840E+00 -0.29448848040E+01 -0.19020498066E+01  0.35390096926E+01  0.51100000000E-03 0. -1.
        -11    1    3    3    0    0  0.19781381372E+01 -0.53397405940E+00 -0.28644362994E+01  0.35218112329E+01  0.51100000000E-03 0.  1.
         12    1    3    3    0    0  0.27636139362E+02  0.17799933130E+02 -0.24042680427E+02  0.40726457007E+02  0.00000000000E+00 0. -1.
</event>
<event>
 7    1  0.2598019E-009  0.4778727E+02  0.7816164E-02  0.1312668E+00
        -11   -1    0    0    0    0  0.00000000000E+00  0.00000000000E+00  0.45593999997E+02  0.45594000000E+02  0.51100000000E-03 0.  1.
         11   -1    0    0    0    0 -0.00000000000E+00 -0.00000000000E+00 -0.45593999997E+02  0.45594000000E+02  0.51100000000E-03 0. -1.
    9900012    2    1    2    0    0 -0.18140916078E+02  0.36911372224E+02 -0.13859330155E+02  0.47787271112E+02  0.20000000310E+02 0.  0.
        -12    1    1    2    0    0  0.18140916078E+02 -0.36911372224E+02  0.13859330155E+02  0.43400728888E+02  0.00000000000E+00 0.  1.
         11    1    3    3    0    0 -0.74835513040E+01  0.15935590266E+02 -0.11977082697E+02  0.21293123008E+02  0.51100000000E-03 0. -1.
        -11    1    3    3    0    0 -0.12045538245E+02  0.11170959842E+02 -0.77155059296E-01  0.16428368408E+02  0.51100000000E-03 0.  1.
        -12    1    3    3    0    0  0.13881734710E+01  0.98048221161E+01 -0.18050923991E+01  0.10065779696E+02  0.00000000000E+00 0.  1.
</event>
<event>
 7    1  0.2598019E-009  0.4778727E+02  0.7816164E-02  0.1312668E+00
        -11   -1    0    0    0    0  0.00000000000E+00  0.00000000000E+00  0.45593999997E+02  0.45594000000E+02  0.51100000000E-03 0.  1.
         11   -1    0    0    0    0 -0.00000000000E+00 -0.00000000000E+00 -0.45593999997E+02  0.45594000000E+02  0.51100000000E-03 0. -1.
    9900012    2    1    2    0    0  0.14540786394E+02 -0.21290103096E+02 -0.34913035673E+02  0.47787273984E+02  0.20000013403E+02 0.  0.
        -12    1    1    2    0    0 -0.14540786394E+02  0.21290103096E+02  0.34913035673E+02  0.43400726016E+02  0.00000000000E+00 0.  1.
         11    1    3    3    0    0  0.13170508291E+02 -0.45430175946E+01 -0.11281086006E+02  0.17926633796E+02  0.51100000000E-03 0. -1.
        -11    1    3    3    0    0  0.73142678811E+00 -0.11853408655E+02 -0.10573990621E+02  0.15901181082E+02  0.51100000000E-03 0.  1.
         12    1    3    3    0    0  0.63885131433E+00 -0.48936768465E+01 -0.13057959046E+02  0.13959459106E+02  0.00000000000E+00 0. -1.
</event>
<event>
 7    1  0.2598019E-009  0.4778729E+02  0.7816164E-02  0.1312668E+00
        -11   -1    0    0    0    0  0.00000000000E+00  0.00000000000E+00  0.45593999997E+02  0.45594000000E+02  0.51100000000E-03 0. -1.
         11   -1    0    0    0    0 -0.00000000000E+00 -0.00000000000E+00 -0.45593999997E+02  0.45594000000E+02  0.51100000000E-03 0.  1.
    9900012    2    1    2    0    0  0.24569145886E+02  0.23563001065E+02 -0.26921433357E+02  0.47787291218E+02  0.20000091979E+02 0.  0.
        -12    1    1    2    0    0 -0.24569145886E+02 -0.23563001065E+02  0.26921433357E+02  0.43400708782E+02  0.00000000000E+00 0.  1.
         11    1    3    3    0    0  0.22588278539E+02  0.14827231790E+02 -0.17734901831E+02  0.32320332194E+02  0.51100000000E-03 0. -1.
        -11    1    3    3    0    0 -0.18088320811E+01  0.15258254150E+01  0.87383026778E+00  0.25226169532E+01  0.51100000000E-03 0.  1.
         12    1    3    3    0    0  0.37896994284E+01  0.72099438601E+01 -0.10060361794E+02  0.12944342071E+02  0.00000000000E+00 0. -1.
</event>
<event>
 7    1  0.2598019E-009  0.4778726E+02  0.7816164E-02  0.1312668E+00
        -11   -1    0    0    0    0  0.00000000000E+00  0.00000000000E+00  0.45593999997E+02  0.45594000000E+02  0.51100000000E-03 0.  1.
         11   -1    0    0    0    0 -0.00000000000E+00 -0.00000000000E+00 -0.45593999997E+02  0.45594000000E+02  0.51100000000E-03 0. -1.
    9900012    2    1    2    0    0 -0.54014025041E+01  0.23583911968E+02 -0.36031212215E+02  0.47787259149E+02  0.19999945764E+02 0.  0.
        -12    1    1    2    0    0  0.54014025041E+01 -0.23583911968E+02  0.36031212215E+02  0.43400740851E+02  0.00000000000E+00 0.  1.
         11    1    3    3    0    0 -0.23286172050E+01  0.57845950933E+00 -0.23290124119E+01  0.33438559430E+01  0.51100000000E-03 0. -1.
        -11    1    3    3    0    0 -0.85578914897E+01  0.88031871339E+01 -0.82716577913E+01  0.14803848599E+02  0.51100000000E-03 0.  1.
        -12    1    3    3    0    0  0.54851061907E+01  0.14202265325E+02 -0.25430542012E+02  0.29639554607E+02  0.00000000000E+00 0.  1.
</event>
<event>
 7    1  0.2598019E-009  0.4778726E+02  0.7816164E-02  0.1312668E+00
        -11   -1    0    0    0    0  0.00000000000E+00  0.00000000000E+00  0.45593999997E+02  0.45594000000E+02  0.51100000000E-03 0.  1.
         11   -1    0    0    0    0 -0.00000000000E+00 -0.00000000000E+00 -0.45593999997E+02  0.45594000000E+02  0.51100000000E-03 0. -1.
    9900012    2    1    2    0    0 -0.82177233851E+01 -0.11245758757E+02 -0.41105063007E+02  0.47787259540E+02  0.19999947546E+02 0.  0.
        -12    1    1    2    0    0  0.82177233851E+01  0.11245758757E+02  0.41105063007E+02  0.43400740460E+02  0.00000000000E+00 0.  1.
         11    1    3    3    0    0 -0.16328903828E+01  0.44709211260E-01 -0.20350864929E+02  0.20416317825E+02  0.51100000000E-03 0. -1.
        -11    1    3    3    0    0 -0.77566416135E+01 -0.10913847391E+02 -0.10426751653E+02  0.16970406721E+02  0.51100000000E-03 0.  1.
        -12    1    3    3    0    0  0.11718086111E+01 -0.37662057760E+00 -0.10327446426E+02  0.10400534994E+02  0.00000000000E+00 0.  1.
</event>
<event>
 7    1  0.2598019E-009  0.4778730E+02  0.7816164E-02  0.1312668E+00
        -11   -1    0    0    0    0  0.00000000000E+00  0.00000000000E+00  0.45593999997E+02  0.45594000000E+02  0.51100000000E-03 0.  1.
         11   -1    0    0    0    0 -0.00000000000E+00 -0.00000000000E+00 -0.45593999997E+02  0.45594000000E+02  0.51100000000E-03 0. -1.
    9900012    2    1    2    0    0  0.74933487969E+01  0.12918955103E+02 -0.40750107145E+02  0.47787298284E+02  0.20000124194E+02 0.  0.
        -12    1    1    2    0    0 -0.74933487969E+01 -0.12918955103E+02  0.40750107145E+02  0.43400701716E+02  0.00000000000E+00 0.  1.
         11    1    3    3    0    0 -0.53227928709E+01  0.30775978916E+01 -0.57216400543E+01  0.83988628934E+01  0.51100000000E-03 0. -1.
        -11    1    3    3    0    0  0.96599207772E+01  0.74296493552E+01 -0.16934710766E+02  0.20863800899E+02  0.51100000000E-03 0.  1.
         12    1    3    3    0    0  0.31562208907E+01  0.24117078563E+01 -0.18093756325E+02  0.18524634492E+02  0.00000000000E+00 0. -1.
</event>
<event>
 7    1  0.2598019E-009  0.4778727E+02  0.7816164E-02  0.1312668E+00
        -11   -1    0    0    0    0  0.00000000000E+00  0.00000000000E+00  0.45593999997E+02  0.45594000000E+02  0.51100000000E-03 0.  1.
         11   -1    0    0    0    0 -0.00000000000E+00 -0.00000000000E+00 -0.45593999997E+02  0.45594000000E+02  0.51100000000E-03 0. -1.
    9900012    2    1    2    0    0 -0.48000168889E+01 -0.31682789742E+02 -0.29270872671E+02  0.47787270572E+02  0.19999997844E+02 0.  0.
        -12    1    1    2    0    0  0.48000168889E+01  0.31682789742E+02  0.29270872671E+02  0.43400729428E+02  0.00000000000E+00 0.  1.
         11    1    3    3    0    0  0.47033404514E+01 -0.22743695225E+02 -0.15812037277E+02  0.28096576429E+02  0.51100000000E-03 0. -1.
        -11    1    3    3    0    0 -0.10158927594E+02 -0.70291408247E+01 -0.11580173265E+02  0.16932602980E+02  0.51100000000E-03 0.  1.
        -12    1    3    3    0    0  0.65557025362E+00 -0.19099536926E+01 -0.18786621295E+01  0.27580911627E+01  0.00000000000E+00 0.  1.
</event>
<event>
 7    1  0.2598019E-009  0.4778728E+02  0.7816164E-02  0.1312668E+00
        -11   -1    0    0    0    0  0.00000000000E+00  0.00000000000E+00  0.45593999997E+02  0.45594000000E+02  0.51100000000E-03 0.  1.
         11   -1    0    0    0    0 -0.00000000000E+00 -0.00000000000E+00 -0.45593999997E+02  0.45594000000E+02  0.51100000000E-03 0. -1.
    9900012    2    1    2    0    0  0.20694339361E+02  0.24724356727E+02 -0.29052940133E+02  0.47787276187E+02  0.20000023446E+02 0.  0.
        -12    1    1    2    0    0 -0.20694339361E+02 -0.24724356727E+02  0.29052940133E+02  0.43400723813E+02  0.00000000000E+00 0.  1.
         11    1    3    3    0    0  0.90697214885E+01  0.51415787425E+01 -0.16231712879E+02  0.19291557301E+02  0.51100000000E-03 0. -1.
        -11    1    3    3    0    0  0.13211989808E+02  0.17486639324E+02 -0.86436150531E+01  0.23559526969E+02  0.51100000000E-03 0.  1.
        -12    1    3    3    0    0 -0.15873719356E+01  0.20961386606E+01 -0.41776122010E+01  0.49361919176E+01  0.00000000000E+00 0.  1.
</event>
<event>
 7    1  0.2598019E-009  0.4778727E+02  0.7816164E-02  0.1312668E+00
        -11   -1    0    0    0    0  0.00000000000E+00  0.00000000000E+00  0.45593999997E+02  0.45594000000E+02  0.51100000000E-03 0.  1.
         11   -1    0    0    0    0 -0.00000000000E+00 -0.00000000000E+00 -0.45593999997E+02  0.45594000000E+02  0.51100000000E-03 0. -1.
    9900012    2    1    2    0    0 -0.27550138944E+02 -0.54871224955E+01 -0.33083299296E+02  0.47787270036E+02  0.19999995401E+02 0.  0.
        -12    1    1    2    0    0  0.27550138944E+02  0.54871224955E+01  0.33083299296E+02  0.43400729964E+02  0.00000000000E+00 0.  1.
         11    1    3    3    0    0 -0.18244374576E+02 -0.73001279913E+01 -0.25144117620E+02  0.31911999679E+02  0.51100000000E-03 0. -1.
        -11    1    3    3    0    0  0.87648593023E+00  0.28591913728E+01 -0.37965118127E+01  0.48328775173E+01  0.51100000000E-03 0.  1.
        -12    1    3    3    0    0 -0.10182250298E+02 -0.10461858770E+01 -0.41426698630E+01  0.11042392839E+02  0.00000000000E+00 0.  1.
</event>
<event>
 7    1  0.2598019E-009  0.4778727E+02  0.7816164E-02  0.1312668E+00
        -11   -1    0    0    0    0  0.00000000000E+00  0.00000000000E+00  0.45593999997E+02  0.45594000000E+02  0.51100000000E-03 0. -1.
         11   -1    0    0    0    0 -0.00000000000E+00 -0.00000000000E+00 -0.45593999997E+02  0.45594000000E+02  0.51100000000E-03 0.  1.
    9900012    2    1    2    0    0  0.19293353376E+02 -0.18362924981E+02  0.34266492667E+02  0.47787273991E+02  0.20000013437E+02 0.  0.
        -12    1    1    2    0    0 -0.19293353376E+02  0.18362924981E+02 -0.34266492667E+02  0.43400726009E+02  0.00000000000E+00 0.  1.
         11    1    3    3    0    0  0.93846012178E+01 -0.15599906107E+02  0.20416906009E+02  0.27354668008E+02  0.51100000000E-03 0. -1.
        -11    1    3    3    0    0  0.97822986396E+00  0.35316698851E+01  0.15444693755E+01  0.39768092433E+01  0.51100000000E-03 0.  1.
        -12    1    3    3    0    0  0.89305222944E+01 -0.62946887591E+01  0.12305117282E+02  0.16455796740E+02  0.00000000000E+00 0.  1.
</event>
<event>
 7    1  0.2598019E-009  0.4778728E+02  0.7816164E-02  0.1312668E+00
        -11   -1    0    0    0    0  0.00000000000E+00  0.00000000000E+00  0.45593999997E+02  0.45594000000E+02  0.51100000000E-03 0.  1.
         11   -1    0    0    0    0 -0.00000000000E+00 -0.00000000000E+00 -0.45593999997E+02  0.45594000000E+02  0.51100000000E-03 0. -1.
    9900012    2    1    2    0    0  0.27591933023E+01 -0.22485157343E+02 -0.37019283980E+02  0.47787276103E+02  0.20000023063E+02 0.  0.
        -12    1    1    2    0    0 -0.27591933023E+01  0.22485157343E+02  0.37019283980E+02  0.43400723897E+02  0.00000000000E+00 0.  1.
         11    1    3    3    0    0  0.68698409997E+01 -0.11178959350E+02 -0.18027850025E+02  0.22297247012E+02  0.51100000000E-03 0. -1.
        -11    1    3    3    0    0 -0.71997948166E+01 -0.62957408177E+01 -0.61691053607E+01  0.11381180038E+02  0.51100000000E-03 0.  1.
        -12    1    3    3    0    0  0.30891471193E+01 -0.50104571750E+01 -0.12822328594E+02  0.14108849053E+02  0.00000000000E+00 0.  1.
</event>
<event>
 7    1  0.2598019E-009  0.4778728E+02  0.7816164E-02  0.1312668E+00
        -11   -1    0    0    0    0  0.00000000000E+00  0.00000000000E+00  0.45593999997E+02  0.45594000000E+02  0.51100000000E-03 0. -1.
         11   -1    0    0    0    0 -0.00000000000E+00 -0.00000000000E+00 -0.45593999997E+02  0.45594000000E+02  0.51100000000E-03 0.  1.
    9900012    2    1    2    0    0 -0.30822327832E+02 -0.28842200523E+02 -0.10086337102E+02  0.47787278576E+02  0.20000034340E+02 0.  0.
        -12    1    1    2    0    0  0.30822327832E+02  0.28842200523E+02  0.10086337102E+02  0.43400721424E+02  0.00000000000E+00 0.  1.
         11    1    3    3    0    0  0.77718931395E+00 -0.23295166095E+01  0.34041469204E-01  0.24559784092E+01  0.51100000000E-03 0. -1.
        -11    1    3    3    0    0 -0.99714095178E+01 -0.14843253200E+02 -0.10531531515E+02  0.20752453581E+02  0.51100000000E-03 0.  1.
        -12    1    3    3    0    0 -0.21628107628E+02 -0.11669430714E+02  0.41115294311E+00  0.24578846586E+02  0.00000000000E+00 0.  1.
</event>
<event>
 7    1  0.2598019E-009  0.4778727E+02  0.7816164E-02  0.1312668E+00
        -11   -1    0    0    0    0  0.00000000000E+00  0.00000000000E+00  0.45593999997E+02  0.45594000000E+02  0.51100000000E-03 0. -1.
         11   -1    0    0    0    0 -0.00000000000E+00 -0.00000000000E+00 -0.45593999997E+02  0.45594000000E+02  0.51100000000E-03 0.  1.
    9900012    2    1    2    0    0 -0.33591554584E+02  0.61220621535E+01 -0.26790873665E+02  0.47787273093E+02  0.20000009339E+02 0.  0.
        -12    1    1    2    0    0  0.33591554584E+02 -0.61220621535E+01  0.26790873665E+02  0.43400726907E+02  0.00000000000E+00 0.  1.
         11    1    3    3    0    0  0.16064375571E+01 -0.81264079373E+00  0.58269933051E+00  0.18922382132E+01  0.51100000000E-03 0. -1.
        -11    1    3    3    0    0 -0.34133898228E+02  0.49868091851E+01 -0.26539225961E+02  0.43523807152E+02  0.51100000000E-03 0.  1.
        -12    1    3    3    0    0 -0.10640939127E+01  0.19478937621E+01 -0.83434703438E+00  0.23712277279E+01  0.00000000000E+00 0.  1.
</event>
<event>
 7    1  0.2598019E-009  0.4778727E+02  0.7816164E-02  0.1312668E+00
        -11   -1    0    0    0    0  0.00000000000E+00  0.00000000000E+00  0.45593999997E+02  0.45594000000E+02  0.51100000000E-03 0.  1.
         11   -1    0    0    0    0 -0.00000000000E+00 -0.00000000000E+00 -0.45593999997E+02  0.45594000000E+02  0.51100000000E-03 0. -1.
    9900012    2    1    2    0    0  0.32052374992E+02  0.24829591984E+02 -0.15484181385E+02  0.47787271275E+02  0.20000001049E+02 0.  0.
        -12    1    1    2    0    0 -0.32052374992E+02 -0.24829591984E+02  0.15484181385E+02  0.43400728725E+02  0.00000000000E+00 0.  1.
         11    1    3    3    0    0  0.18878424594E+02  0.20222273172E+02 -0.51876992049E+01  0.28146890959E+02  0.51100000000E-03 0. -1.
        -11    1    3    3    0    0  0.12086849524E+01  0.14885266516E+01  0.15882643561E+01  0.24898222492E+01  0.51100000000E-03 0.  1.
         12    1    3    3    0    0  0.11965265446E+02  0.31187921607E+01 -0.11884746537E+02  0.17150558066E+02  0.00000000000E+00 0. -1.
</event>
<event>
 7    1  0.2598019E-009  0.4778727E+02  0.7816164E-02  0.1312668E+00
        -11   -1    0    0    0    0  0.00000000000E+00  0.00000000000E+00  0.45593999997E+02  0.45594000000E+02  0.51100000000E-03 0.  1.
         11   -1    0    0    0    0 -0.00000000000E+00 -0.00000000000E+00 -0.45593999997E+02  0.45594000000E+02  0.51100000000E-03 0. -1.
    9900012    2    1    2    0    0 -0.41152449676E+02 -0.13421652495E+02  0.31556668886E+01  0.47787273007E+02  0.20000008948E+02 0.  0.
        -12    1    1    2    0    0  0.41152449676E+02  0.13421652495E+02 -0.31556668886E+01  0.43400726993E+02  0.00000000000E+00 0.  1.
         11    1    3    3    0    0 -0.18468632035E+02  0.71575044466E+00 -0.44255253251E+01  0.19004945215E+02  0.51100000000E-03 0. -1.
        -11    1    3    3    0    0 -0.63334549362E+00  0.69900850585E+00  0.10559575862E+01  0.14159046898E+01  0.51100000000E-03 0.  1.
         12    1    3    3    0    0 -0.22050472147E+02 -0.14836411445E+02  0.65252346274E+01  0.27366423102E+02  0.00000000000E+00 0. -1.
</event>
<event>
 7    1  0.2598019E-009  0.4778725E+02  0.7816164E-02  0.1312668E+00
        -11   -1    0    0    0    0  0.00000000000E+00  0.00000000000E+00  0.45593999997E+02  0.45594000000E+02  0.51100000000E-03 0. -1.
         11   -1    0    0    0    0 -0.00000000000E+00 -0.00000000000E+00 -0.45593999997E+02  0.45594000000E+02  0.51100000000E-03 0.  1.
    9900012    2    1    2    0    0  0.16761440116E+01 -0.22993939514E+02  0.36770832822E+02  0.47787252777E+02  0.19999916710E+02 0.  0.
        -12    1    1    2    0    0 -0.16761440116E+01  0.22993939514E+02 -0.36770832822E+02  0.43400747223E+02  0.00000000000E+00 0.  1.
         11    1    3    3    0    0  0.72728935422E+01 -0.20635506150E+02  0.21070974824E+02  0.30376060884E+02  0.51100000000E-03 0. -1.
        -11    1    3    3    0    0 -0.57020812026E+01 -0.32439467584E+01  0.14511348761E+02  0.15925330883E+02  0.51100000000E-03 0.  1.
        -12    1    3    3    0    0  0.10533167202E+00  0.88551339452E+00  0.11885092367E+01  0.14858610092E+01  0.00000000000E+00 0.  1.
</event>
<event>
 7    1  0.2598019E-009  0.4778726E+02  0.7816164E-02  0.1312668E+00
        -11   -1    0    0    0    0  0.00000000000E+00  0.00000000000E+00  0.45593999997E+02  0.45594000000E+02  0.51100000000E-03 0.  1.
         11   -1    0    0    0    0 -0.00000000000E+00 -0.00000000000E+00 -0.45593999997E+02  0.45594000000E+02  0.51100000000E-03 0. -1.
    9900012    2    1    2    0    0 -0.16188696572E+02  0.28826872996E+02 -0.28116925784E+02  0.47787262461E+02  0.19999960863E+02 0.  0.
        -12    1    1    2    0    0  0.16188696572E+02 -0.28826872996E+02  0.28116925784E+02  0.43400737539E+02  0.00000000000E+00 0.  1.
         11    1    3    3    0    0 -0.50458785269E+01  0.15415532784E+02 -0.21050654206E+02  0.26574980412E+02  0.51100000000E-03 0. -1.
        -11    1    3    3    0    0 -0.22400389616E+01 -0.10222204689E+01  0.70046588180E+00  0.25599535053E+01  0.51100000000E-03 0.  1.
        -12    1    3    3    0    0 -0.89027790830E+01  0.14433560681E+02 -0.77667374593E+01  0.18652328543E+02  0.00000000000E+00 0.  1.
</event>
<event>
 7    1  0.2598019E-009  0.4778727E+02  0.7816164E-02  0.1312668E+00
        -11   -1    0    0    0    0  0.00000000000E+00  0.00000000000E+00  0.45593999997E+02  0.45594000000E+02  0.51100000000E-03 0. -1.
         11   -1    0    0    0    0 -0.00000000000E+00 -0.00000000000E+00 -0.45593999997E+02  0.45594000000E+02  0.51100000000E-03 0.  1.
    9900012    2    1    2    0    0 -0.43078103538E+02  0.51779302605E+01  0.10437856952E+01  0.47787268960E+02  0.19999990497E+02 0.  0.
        -12    1    1    2    0    0  0.43078103538E+02 -0.51779302605E+01 -0.10437856952E+01  0.43400731040E+02  0.00000000000E+00 0.  1.
         11    1    3    3    0    0 -0.15743093500E+02  0.36540920797E+00  0.38041860086E+01  0.16200319388E+02  0.51100000000E-03 0. -1.
        -11    1    3    3    0    0 -0.13319207593E+02  0.17284697098E+01 -0.87568514340E+01  0.16033444600E+02  0.51100000000E-03 0.  1.
        -12    1    3    3    0    0 -0.14015802445E+02  0.30840513428E+01  0.59964511206E+01  0.15553504972E+02  0.00000000000E+00 0.  1.
</event>
<event>
 7    1  0.2598019E-009  0.4778727E+02  0.7816164E-02  0.1312668E+00
        -11   -1    0    0    0    0  0.00000000000E+00  0.00000000000E+00  0.45593999997E+02  0.45594000000E+02  0.51100000000E-03 0. -1.
         11   -1    0    0    0    0 -0.00000000000E+00 -0.00000000000E+00 -0.45593999997E+02  0.45594000000E+02  0.51100000000E-03 0.  1.
    9900012    2    1    2    0    0  0.28788362325E+02 -0.29572140083E+02  0.13429153077E+02  0.47787269283E+02  0.19999991967E+02 0.  0.
        -12    1    1    2    0    0 -0.28788362325E+02  0.29572140083E+02 -0.13429153077E+02  0.43400730717E+02  0.00000000000E+00 0.  1.
         11    1    3    3    0    0  0.24722886156E+02 -0.14998567560E+02  0.53415407041E+01  0.29405954942E+02  0.51100000000E-03 0. -1.
        -11    1    3    3    0    0  0.94150449317E-02 -0.23879438606E+01  0.44218616570E+01  0.50254577204E+01  0.51100000000E-03 0.  1.
         12    1    3    3    0    0  0.40560611246E+01 -0.12185628662E+02  0.36657507164E+01  0.13355856620E+02  0.00000000000E+00 0. -1.
</event>
<event>
 7    1  0.2598019E-009  0.4778727E+02  0.7816164E-02  0.1312668E+00
        -11   -1    0    0    0    0  0.00000000000E+00  0.00000000000E+00  0.45593999997E+02  0.45594000000E+02  0.51100000000E-03 0. -1.
         11   -1    0    0    0    0 -0.00000000000E+00 -0.00000000000E+00 -0.45593999997E+02  0.45594000000E+02  0.51100000000E-03 0.  1.
    9900012    2    1    2    0    0  0.22141174075E+02 -0.12203246420E+02  0.35277077744E+02  0.47787273891E+02  0.20000012979E+02 0.  0.
        -12    1    1    2    0    0 -0.22141174075E+02  0.12203246420E+02 -0.35277077744E+02  0.43400726109E+02  0.00000000000E+00 0.  1.
         11    1    3    3    0    0  0.23012446133E+02 -0.58255813769E+01  0.29558839466E+02  0.37910883216E+02  0.51100000000E-03 0. -1.
        -11    1    3    3    0    0 -0.27095445341E+01 -0.25347410992E+01  0.19632512816E+01  0.41977255601E+01  0.51100000000E-03 0.  1.
         12    1    3    3    0    0  0.18382724760E+01 -0.38429239442E+01  0.37549869966E+01  0.56786651144E+01  0.00000000000E+00 0. -1.
</event>
<event>
 7    1  0.2598019E-009  0.4778724E+02  0.7816164E-02  0.1312668E+00
        -11   -1    0    0    0    0  0.00000000000E+00  0.00000000000E+00  0.45593999997E+02  0.45594000000E+02  0.51100000000E-03 0.  1.
         11   -1    0    0    0    0 -0.00000000000E+00 -0.00000000000E+00 -0.45593999997E+02  0.45594000000E+02  0.51100000000E-03 0. -1.
    9900012    2    1    2    0    0 -0.39929999905E+01 -0.27495149960E+02 -0.33342147164E+02  0.47787238512E+02  0.19999851669E+02 0.  0.
        -12    1    1    2    0    0  0.39929999905E+01  0.27495149960E+02  0.33342147164E+02  0.43400761488E+02  0.00000000000E+00 0.  1.
         11    1    3    3    0    0  0.50277962545E+01 -0.14037943751E+02 -0.97311619542E+01  0.17805564107E+02  0.51100000000E-03 0. -1.
        -11    1    3    3    0    0 -0.93259217037E+01 -0.13469339990E+02 -0.17910708490E+02  0.24273224225E+02  0.51100000000E-03 0.  1.
         12    1    3    3    0    0  0.30512545878E+00  0.12133780157E-01 -0.57002767196E+01  0.57084501797E+01  0.00000000000E+00 0. -1.
</event>
<event>
 7    1  0.2598019E-009  0.4778727E+02  0.7816164E-02  0.1312668E+00
        -11   -1    0    0    0    0  0.00000000000E+00  0.00000000000E+00  0.45593999997E+02  0.45594000000E+02  0.51100000000E-03 0.  1.
         11   -1    0    0    0    0 -0.00000000000E+00 -0.00000000000E+00 -0.45593999997E+02  0.45594000000E+02  0.51100000000E-03 0. -1.
    9900012    2    1    2    0    0  0.18856954390E+02 -0.34630774801E+02  0.18131403149E+02  0.47787273366E+02  0.20000010585E+02 0.  0.
        -12    1    1    2    0    0 -0.18856954390E+02  0.34630774801E+02 -0.18131403149E+02  0.43400726634E+02  0.00000000000E+00 0.  1.
         11    1    3    3    0    0  0.18261638609E+02 -0.22244921958E+02  0.15390655822E+02  0.32637344936E+02  0.51100000000E-03 0. -1.
        -11    1    3    3    0    0 -0.89140519255E+00 -0.10958822307E+02  0.50116825377E+01  0.12083350185E+02  0.51100000000E-03 0.  1.
        -12    1    3    3    0    0  0.14867209733E+01 -0.14270305361E+01 -0.22709352100E+01  0.30665782448E+01  0.00000000000E+00 0.  1.
</event>
<event>
 7    1  0.2598019E-009  0.4778727E+02  0.7816164E-02  0.1312668E+00
        -11   -1    0    0    0    0  0.00000000000E+00  0.00000000000E+00  0.45593999997E+02  0.45594000000E+02  0.51100000000E-03 0.  1.
         11   -1    0    0    0    0 -0.00000000000E+00 -0.00000000000E+00 -0.45593999997E+02  0.45594000000E+02  0.51100000000E-03 0. -1.
    9900012    2    1    2    0    0 -0.14953439977E+01  0.38952475912E+02 -0.19081187432E+02  0.47787272505E+02  0.20000006658E+02 0.  0.
        -12    1    1    2    0    0  0.14953439977E+01 -0.38952475912E+02  0.19081187432E+02  0.43400727495E+02  0.00000000000E+00 0.  1.
         11    1    3    3    0    0  0.30713672494E+01  0.53631855908E+01 -0.59641336301E+01  0.85888268513E+01  0.51100000000E-03 0. -1.
        -11    1    3    3    0    0  0.40290897327E+01  0.16310576950E+02 -0.19810635568E+01  0.16917242612E+02  0.51100000000E-03 0.  1.
        -12    1    3    3    0    0 -0.85958009798E+01  0.17278713371E+02 -0.11135990245E+02  0.22281203041E+02  0.00000000000E+00 0.  1.
</event>
<event>
 7    1  0.2598019E-009  0.4778727E+02  0.7816164E-02  0.1312668E+00
        -11   -1    0    0    0    0  0.00000000000E+00  0.00000000000E+00  0.45593999997E+02  0.45594000000E+02  0.51100000000E-03 0.  1.
         11   -1    0    0    0    0 -0.00000000000E+00 -0.00000000000E+00 -0.45593999997E+02  0.45594000000E+02  0.51100000000E-03 0. -1.
    9900012    2    1    2    0    0 -0.13951801975E+02  0.33773271534E+02 -0.23416594148E+02  0.47787268094E+02  0.19999986547E+02 0.  0.
        -12    1    1    2    0    0  0.13951801975E+02 -0.33773271534E+02  0.23416594148E+02  0.43400731906E+02  0.00000000000E+00 0.  1.
         11    1    3    3    0    0 -0.40180963042E+01  0.12261328621E+02 -0.14035066826E+02  0.19064846669E+02  0.51100000000E-03 0. -1.
        -11    1    3    3    0    0 -0.10889400290E+02  0.10679265341E+02 -0.15695858329E+01  0.15332623613E+02  0.51100000000E-03 0.  1.
        -12    1    3    3    0    0  0.95569461963E+00  0.10832677573E+02 -0.78119414898E+01  0.13389797812E+02  0.00000000000E+00 0.  1.
</event>
<event>
 7    1  0.2598019E-009  0.4778727E+02  0.7816164E-02  0.1312668E+00
        -11   -1    0    0    0    0  0.00000000000E+00  0.00000000000E+00  0.45593999997E+02  0.45594000000E+02  0.51100000000E-03 0. -1.
         11   -1    0    0    0    0 -0.00000000000E+00 -0.00000000000E+00 -0.45593999997E+02  0.45594000000E+02  0.51100000000E-03 0.  1.
    9900012    2    1    2    0    0  0.28880630932E+02  0.17933835954E+02  0.26979804831E+02  0.47787272082E+02  0.20000004732E+02 0.  0.
        -12    1    1    2    0    0 -0.28880630932E+02 -0.17933835954E+02 -0.26979804831E+02  0.43400727918E+02  0.00000000000E+00 0.  1.
         11    1    3    3    0    0  0.21334064761E+02  0.12352617448E+02  0.77051279271E+01  0.25828249528E+02  0.51100000000E-03 0. -1.
        -11    1    3    3    0    0  0.80977006577E+01  0.43968453838E+01  0.16881922482E+02  0.19232896615E+02  0.51100000000E-03 0.  1.
        -12    1    3    3    0    0 -0.55113448598E+00  0.11843731217E+01  0.23927544220E+01  0.27261259393E+01  0.00000000000E+00 0.  1.
</event>
<event>
 7    1  0.2598019E-009  0.4778727E+02  0.7816164E-02  0.1312668E+00
        -11   -1    0    0    0    0  0.00000000000E+00  0.00000000000E+00  0.45593999997E+02  0.45594000000E+02  0.51100000000E-03 0.  1.
         11   -1    0    0    0    0 -0.00000000000E+00 -0.00000000000E+00 -0.45593999997E+02  0.45594000000E+02  0.51100000000E-03 0. -1.
    9900012    2    1    2    0    0 -0.37558465508E+01  0.41690881720E+02  0.11462424038E+02  0.47787272279E+02  0.20000005629E+02 0.  0.
        -12    1    1    2    0    0  0.37558465508E+01 -0.41690881720E+02 -0.11462424038E+02  0.43400727721E+02  0.00000000000E+00 0.  1.
         11    1    3    3    0    0 -0.11158270652E+02  0.25847729052E+02  0.37688801604E+01  0.28404516525E+02  0.51100000000E-03 0. -1.
        -11    1    3    3    0    0  0.35071356515E+01  0.39845118873E+01  0.22430258715E+01  0.57625949692E+01  0.51100000000E-03 0.  1.
         12    1    3    3    0    0  0.38952884501E+01  0.11858640781E+02  0.54505180057E+01  0.13620160785E+02  0.00000000000E+00 0. -1.
</event>
<event>
 7    1  0.2598019E-009  0.4778727E+02  0.7816164E-02  0.1312668E+00
        -11   -1    0    0    0    0  0.00000000000E+00  0.00000000000E+00  0.45593999997E+02  0.45594000000E+02  0.51100000000E-03 0.  1.
         11   -1    0    0    0    0 -0.00000000000E+00 -0.00000000000E+00 -0.45593999997E+02  0.45594000000E+02  0.51100000000E-03 0. -1.
    9900012    2    1    2    0    0  0.28734052636E+02 -0.70783867200E+01 -0.31747034897E+02  0.47787267700E+02  0.19999984750E+02 0.  0.
        -12    1    1    2    0    0 -0.28734052636E+02  0.70783867200E+01  0.31747034897E+02  0.43400732300E+02  0.00000000000E+00 0.  1.
         11    1    3    3    0    0  0.14723761813E+02  0.38807286834E+01 -0.64067226316E+01  0.16519543340E+02  0.51100000000E-03 0. -1.
        -11    1    3    3    0    0  0.43815448214E+01 -0.60093032506E+01 -0.91519570035E+01  0.11792708672E+02  0.51100000000E-03 0.  1.
         12    1    3    3    0    0  0.96287460015E+01 -0.49498121528E+01 -0.16188355262E+02  0.19475015687E+02  0.00000000000E+00 0. -1.
</event>
<event>
 7    1  0.2598019E-009  0.4778726E+02  0.7816164E-02  0.1312668E+00
        -11   -1    0    0    0    0  0.00000000000E+00  0.00000000000E+00  0.45593999997E+02  0.45594000000E+02  0.51100000000E-03 0.  1.
         11   -1    0    0    0    0 -0.00000000000E+00 -0.00000000000E+00 -0.45593999997E+02  0.45594000000E+02  0.51100000000E-03 0. -1.
    9900012    2    1    2    0    0 -0.69049135673E+00  0.21133575861E+02 -0.37901447022E+02  0.47787256996E+02  0.19999935946E+02 0.  0.
        -12    1    1    2    0    0  0.69049135673E+00 -0.21133575861E+02  0.37901447022E+02  0.43400743004E+02  0.00000000000E+00 0.  1.
         11    1    3    3    0    0  0.36727220515E+01  0.55621258215E+00 -0.92249019312E+01  0.99447008807E+01  0.51100000000E-03 0.  1.
        -11    1    3    3    0    0  0.10023977785E+01  0.40654293101E+01 -0.15475559441E+02  0.16032013506E+02  0.51100000000E-03 0. -1.
        -12    1    3    3    0    0 -0.53656111867E+01  0.16511933969E+02 -0.13200985650E+02  0.21810542609E+02  0.00000000000E+00 0.  1.
</event>
<event>
 7    1  0.2598019E-009  0.4778728E+02  0.7816164E-02  0.1312668E+00
        -11   -1    0    0    0    0  0.00000000000E+00  0.00000000000E+00  0.45593999997E+02  0.45594000000E+02  0.51100000000E-03 0.  1.
         11   -1    0    0    0    0 -0.00000000000E+00 -0.00000000000E+00 -0.45593999997E+02  0.45594000000E+02  0.51100000000E-03 0. -1.
    9900012    2    1    2    0    0 -0.27755602069E+02 -0.19202017821E+01 -0.33310091480E+02  0.47787276326E+02  0.20000024079E+02 0.  0.
        -12    1    1    2    0    0  0.27755602069E+02  0.19202017821E+01  0.33310091480E+02  0.43400723674E+02  0.00000000000E+00 0.  1.
         11    1    3    3    0    0 -0.11404664516E+02  0.70493867551E+01 -0.97933587942E+01  0.16603316027E+02  0.51100000000E-03 0. -1.
        -11    1    3    3    0    0 -0.22909925448E+01  0.15671306730E+01 -0.45491630002E+01  0.53291115254E+01  0.51100000000E-03 0.  1.
         12    1    3    3    0    0 -0.14059945008E+02 -0.10536719210E+02 -0.18967569685E+02  0.25854848774E+02  0.00000000000E+00 0. -1.
</event>
<event>
 7    1  0.2598019E-009  0.4778727E+02  0.7816164E-02  0.1312668E+00
        -11   -1    0    0    0    0  0.00000000000E+00  0.00000000000E+00  0.45593999997E+02  0.45594000000E+02  0.51100000000E-03 0.  1.
         11   -1    0    0    0    0 -0.00000000000E+00 -0.00000000000E+00 -0.45593999997E+02  0.45594000000E+02  0.51100000000E-03 0. -1.
    9900012    2    1    2    0    0 -0.31438972931E+02  0.10947769538E+01 -0.29900096529E+02  0.47787270421E+02  0.19999997158E+02 0.  0.
        -12    1    1    2    0    0  0.31438972931E+02 -0.10947769538E+01  0.29900096529E+02  0.43400729579E+02  0.00000000000E+00 0.  1.
         11    1    3    3    0    0 -0.21485810003E+02 -0.31407023782E+01 -0.13817636642E+02  0.25737737382E+02  0.51100000000E-03 0. -1.
        -11    1    3    3    0    0  0.91222805997E+00  0.38844817378E+01 -0.27462754225E+01  0.48439020802E+01  0.51100000000E-03 0.  1.
        -12    1    3    3    0    0 -0.10865390988E+02  0.35099759406E+00 -0.13336184464E+02  0.17205630959E+02  0.00000000000E+00 0.  1.
</event>
<event>
 7    1  0.2598019E-009  0.4778727E+02  0.7816164E-02  0.1312668E+00
        -11   -1    0    0    0    0  0.00000000000E+00  0.00000000000E+00  0.45593999997E+02  0.45594000000E+02  0.51100000000E-03 0.  1.
         11   -1    0    0    0    0 -0.00000000000E+00 -0.00000000000E+00 -0.45593999997E+02  0.45594000000E+02  0.51100000000E-03 0. -1.
    9900012    2    1    2    0    0  0.49352479941E+00 -0.24901768670E+02 -0.35542675192E+02  0.47787269483E+02  0.19999992879E+02 0.  0.
        -12    1    1    2    0    0 -0.49352479941E+00  0.24901768670E+02  0.35542675192E+02  0.43400730517E+02  0.00000000000E+00 0.  1.
         11    1    3    3    0    0 -0.95422751484E+01 -0.14559714548E+02 -0.19353462473E+02  0.26030689823E+02  0.51100000000E-03 0. -1.
        -11    1    3    3    0    0  0.37712889043E+01 -0.51810129412E+01 -0.75405732761E+01  0.98957445748E+01  0.51100000000E-03 0.  1.
         12    1    3    3    0    0  0.62645110435E+01 -0.51610411813E+01 -0.86486394431E+01  0.11860835085E+02  0.00000000000E+00 0. -1.
</event>
<event>
 7    1  0.2598019E-009  0.4778727E+02  0.7816164E-02  0.1312668E+00
        -11   -1    0    0    0    0  0.00000000000E+00  0.00000000000E+00  0.45593999997E+02  0.45594000000E+02  0.51100000000E-03 0.  1.
         11   -1    0    0    0    0 -0.00000000000E+00 -0.00000000000E+00 -0.45593999997E+02  0.45594000000E+02  0.51100000000E-03 0. -1.
    9900012    2    1    2    0    0  0.21448539830E+02 -0.28006676912E+02 -0.25282587455E+02  0.47787273728E+02  0.20000012236E+02 0.  0.
        -12    1    1    2    0    0 -0.21448539830E+02  0.28006676912E+02  0.25282587455E+02  0.43400726272E+02  0.00000000000E+00 0.  1.
         11    1    3    3    0    0  0.11513317012E+02 -0.16365288601E+02 -0.20505617688E+02  0.28650645658E+02  0.51100000000E-03 0. -1.
        -11    1    3    3    0    0  0.10548150978E+02 -0.57205341867E+01 -0.53864412105E+01  0.13153012948E+02  0.51100000000E-03 0.  1.
        -12    1    3    3    0    0 -0.61292815934E+00 -0.59208541246E+01  0.60947144278E+00  0.59836151224E+01  0.00000000000E+00 0.  1.
</event>
<event>
 7    1  0.2598019E-009  0.4778727E+02  0.7816164E-02  0.1312668E+00
        -11   -1    0    0    0    0  0.00000000000E+00  0.00000000000E+00  0.45593999997E+02  0.45594000000E+02  0.51100000000E-03 0. -1.
         11   -1    0    0    0    0 -0.00000000000E+00 -0.00000000000E+00 -0.45593999997E+02  0.45594000000E+02  0.51100000000E-03 0.  1.
    9900012    2    1    2    0    0 -0.18794770842E+02  0.36297471647E+02  0.14590182545E+02  0.47787270909E+02  0.19999999383E+02 0.  0.
        -12    1    1    2    0    0  0.18794770842E+02 -0.36297471647E+02 -0.14590182545E+02  0.43400729091E+02  0.00000000000E+00 0.  1.
         11    1    3    3    0    0 -0.10707694817E+02  0.22863090968E+02  0.16272442406E+02  0.30036112248E+02  0.51100000000E-03 0. -1.
        -11    1    3    3    0    0 -0.77305810029E+01  0.70651973669E+01 -0.36255526781E+01  0.11082577722E+02  0.51100000000E-03 0.  1.
         12    1    3    3    0    0 -0.35649502216E+00  0.63691833123E+01  0.19432928170E+01  0.66685809389E+01  0.00000000000E+00 0. -1.
</event>
<event>
 7    1  0.2598019E-009  0.4778725E+02  0.7816164E-02  0.1312668E+00
        -11   -1    0    0    0    0  0.00000000000E+00  0.00000000000E+00  0.45593999997E+02  0.45594000000E+02  0.51100000000E-03 0.  1.
         11   -1    0    0    0    0 -0.00000000000E+00 -0.00000000000E+00 -0.45593999997E+02  0.45594000000E+02  0.51100000000E-03 0. -1.
    9900012    2    1    2    0    0  0.58955507627E+01  0.35814703945E+02  0.23794417928E+02  0.47787252748E+02  0.19999916579E+02 0.  0.
        -12    1    1    2    0    0 -0.58955507627E+01 -0.35814703945E+02 -0.23794417928E+02  0.43400747252E+02  0.00000000000E+00 0.  1.
         11    1    3    3    0    0  0.41693298295E+00  0.16712375068E+02  0.33633506038E+01  0.17052549401E+02  0.51100000000E-03 0. -1.
        -11    1    3    3    0    0  0.86949305479E+01  0.98251111893E+01  0.12344661562E+02  0.18014585659E+02  0.51100000000E-03 0.  1.
         12    1    3    3    0    0 -0.32163127682E+01  0.92772176883E+01  0.80864057618E+01  0.12720117688E+02  0.00000000000E+00 0. -1.
</event>
<event>
 7    1  0.2598019E-009  0.4778727E+02  0.7816164E-02  0.1312668E+00
        -11   -1    0    0    0    0  0.00000000000E+00  0.00000000000E+00  0.45593999997E+02  0.45594000000E+02  0.51100000000E-03 0.  1.
         11   -1    0    0    0    0 -0.00000000000E+00 -0.00000000000E+00 -0.45593999997E+02  0.45594000000E+02  0.51100000000E-03 0. -1.
    9900012    2    1    2    0    0 -0.17025136132E+02  0.22473304100E+02 -0.32995736155E+02  0.47787271183E+02  0.20000000630E+02 0.  0.
        -12    1    1    2    0    0  0.17025136132E+02 -0.22473304100E+02  0.32995736155E+02  0.43400728817E+02  0.00000000000E+00 0.  1.
         11    1    3    3    0    0 -0.12441784679E+02  0.19460149178E+02 -0.31939485900E+02  0.39416064896E+02  0.51100000000E-03 0. -1.
        -11    1    3    3    0    0 -0.60162973622E+01  0.32204183656E+01 -0.11504229381E+01  0.69202891268E+01  0.51100000000E-03 0.  1.
         12    1    3    3    0    0  0.14329459084E+01 -0.20726344372E+00  0.94172683904E-01  0.14509171603E+01  0.00000000000E+00 0. -1.
</event>
<event>
 7    1  0.2598019E-009  0.4778727E+02  0.7816164E-02  0.1312668E+00
        -11   -1    0    0    0    0  0.00000000000E+00  0.00000000000E+00  0.45593999997E+02  0.45594000000E+02  0.51100000000E-03 0.  1.
         11   -1    0    0    0    0 -0.00000000000E+00 -0.00000000000E+00 -0.45593999997E+02  0.45594000000E+02  0.51100000000E-03 0. -1.
    9900012    2    1    2    0    0  0.86529880628E+01  0.19743010881E+02 -0.37669123176E+02  0.47787268187E+02  0.19999986971E+02 0.  0.
        -12    1    1    2    0    0 -0.86529880628E+01 -0.19743010881E+02  0.37669123176E+02  0.43400731813E+02  0.00000000000E+00 0.  1.
         11    1    3    3    0    0  0.10718076867E+02  0.10018230234E+02 -0.27202843490E+02  0.30906905425E+02  0.51100000000E-03 0. -1.
        -11    1    3    3    0    0 -0.16622863929E+01  0.89250875248E+01 -0.12034331472E+02  0.15074664760E+02  0.51100000000E-03 0.  1.
         12    1    3    3    0    0 -0.40280241132E+00  0.79969312273E+00  0.15680517857E+01  0.18056980024E+01  0.00000000000E+00 0. -1.
</event>
<event>
 7    1  0.2598019E-009  0.4778726E+02  0.7816164E-02  0.1312668E+00
        -11   -1    0    0    0    0  0.00000000000E+00  0.00000000000E+00  0.45593999997E+02  0.45594000000E+02  0.51100000000E-03 0. -1.
         11   -1    0    0    0    0 -0.00000000000E+00 -0.00000000000E+00 -0.45593999997E+02  0.45594000000E+02  0.51100000000E-03 0.  1.
    9900012    2    1    2    0    0 -0.41422067308E+02 -0.12699968781E+02  0.25588140778E+01  0.47787258110E+02  0.19999941028E+02 0.  0.
        -12    1    1    2    0    0  0.41422067308E+02  0.12699968781E+02 -0.25588140778E+01  0.43400741890E+02  0.00000000000E+00 0.  1.
         11    1    3    3    0    0 -0.20999914759E+02 -0.28412911995E+00  0.63783196992E+01  0.21949034413E+02  0.51100000000E-03 0. -1.
        -11    1    3    3    0    0 -0.21307430429E+02 -0.12292175794E+02 -0.40119135688E+01  0.24923876665E+02  0.51100000000E-03 0.  1.
        -12    1    3    3    0    0  0.88527788028E+00 -0.12366386696E+00  0.19240794736E+00  0.91434703232E+00  0.00000000000E+00 0.  1.
</event>
<event>
 7    1  0.2598019E-009  0.4778727E+02  0.7816164E-02  0.1312668E+00
        -11   -1    0    0    0    0  0.00000000000E+00  0.00000000000E+00  0.45593999997E+02  0.45594000000E+02  0.51100000000E-03 0.  1.
         11   -1    0    0    0    0 -0.00000000000E+00 -0.00000000000E+00 -0.45593999997E+02  0.45594000000E+02  0.51100000000E-03 0. -1.
    9900012    2    1    2    0    0  0.89673094279E+01 -0.19214226842E+02 -0.37868512920E+02  0.47787269334E+02  0.19999992203E+02 0.  0.
        -12    1    1    2    0    0 -0.89673094279E+01  0.19214226842E+02  0.37868512920E+02  0.43400730666E+02  0.00000000000E+00 0.  1.
         11    1    3    3    0    0  0.10474415574E+02 -0.13735218282E+02 -0.23427131447E+02  0.29106701822E+02  0.51100000000E-03 0. -1.
        -11    1    3    3    0    0 -0.10443928032E+01  0.30314954646E+01 -0.28284961049E+01  0.42756416543E+01  0.51100000000E-03 0.  1.
         12    1    3    3    0    0 -0.46271334268E+00 -0.85105040245E+01 -0.11612885368E+02  0.14404925858E+02  0.00000000000E+00 0. -1.
</event>
<event>
 7    1  0.2598019E-009  0.4778727E+02  0.7816164E-02  0.1312668E+00
        -11   -1    0    0    0    0  0.00000000000E+00  0.00000000000E+00  0.45593999997E+02  0.45594000000E+02  0.51100000000E-03 0. -1.
         11   -1    0    0    0    0 -0.00000000000E+00 -0.00000000000E+00 -0.45593999997E+02  0.45594000000E+02  0.51100000000E-03 0.  1.
    9900012    2    1    2    0    0 -0.34145580747E+01  0.35329309330E+02  0.24976071087E+02  0.47787269228E+02  0.19999991719E+02 0.  0.
        -12    1    1    2    0    0  0.34145580747E+01 -0.35329309330E+02 -0.24976071087E+02  0.43400730772E+02  0.00000000000E+00 0.  1.
         11    1    3    3    0    0 -0.74190579450E+01  0.11714911379E+02  0.16736265298E+02  0.21734400056E+02  0.51100000000E-03 0. -1.
        -11    1    3    3    0    0  0.24485751858E+01  0.46928468233E+01 -0.15219124979E+00  0.52954220026E+01  0.51100000000E-03 0.  1.
         12    1    3    3    0    0  0.15559246844E+01  0.18921551128E+02  0.83919970386E+01  0.20757447170E+02  0.00000000000E+00 0. -1.
</event>
<event>
 7    1  0.2598019E-009  0.4778727E+02  0.7816164E-02  0.1312668E+00
        -11   -1    0    0    0    0  0.00000000000E+00  0.00000000000E+00  0.45593999997E+02  0.45594000000E+02  0.51100000000E-03 0.  1.
         11   -1    0    0    0    0 -0.00000000000E+00 -0.00000000000E+00 -0.45593999997E+02  0.45594000000E+02  0.51100000000E-03 0. -1.
    9900012    2    1    2    0    0 -0.33112951107E+02  0.27902987159E+02  0.29290329674E+01  0.47787268928E+02  0.19999990351E+02 0.  0.
        -12    1    1    2    0    0  0.33112951107E+02 -0.27902987159E+02 -0.29290329674E+01  0.43400731072E+02  0.00000000000E+00 0.  1.
         11    1    3    3    0    0 -0.13567735424E+02  0.19039115874E+02  0.18020832599E+01  0.23448217035E+02  0.51100000000E-03 0. -1.
        -11    1    3    3    0    0 -0.10021176655E+02  0.10630600332E+02  0.11238592441E+01  0.14652532369E+02  0.51100000000E-03 0.  1.
         12    1    3    3    0    0 -0.95240390283E+01 -0.17667290465E+01  0.30904634735E-02  0.96865195240E+01  0.00000000000E+00 0. -1.
</event>
<event>
 7    1  0.2598019E-009  0.4778726E+02  0.7816164E-02  0.1312668E+00
        -11   -1    0    0    0    0  0.00000000000E+00  0.00000000000E+00  0.45593999997E+02  0.45594000000E+02  0.51100000000E-03 0. -1.
         11   -1    0    0    0    0 -0.00000000000E+00 -0.00000000000E+00 -0.45593999997E+02  0.45594000000E+02  0.51100000000E-03 0.  1.
    9900012    2    1    2    0    0  0.38541026607E+02 -0.18644539306E+02  0.71129733883E+01  0.47787263045E+02  0.19999963527E+02 0.  0.
        -12    1    1    2    0    0 -0.38541026607E+02  0.18644539306E+02 -0.71129733883E+01  0.43400736955E+02  0.00000000000E+00 0.  1.
         11    1    3    3    0    0  0.12395030239E+02 -0.12406647651E+02  0.39878816385E+01  0.17985129435E+02  0.51100000000E-03 0. -1.
        -11    1    3    3    0    0  0.26760115922E+02 -0.38022644015E+01  0.21737685157E+01  0.27116162866E+02  0.51100000000E-03 0.  1.
         12    1    3    3    0    0 -0.61411955415E+00 -0.24356272538E+01  0.95132323404E+00  0.26859707448E+01  0.00000000000E+00 0. -1.
</event>
<event>
 7    1  0.2598019E-009  0.4778727E+02  0.7816164E-02  0.1312668E+00
        -11   -1    0    0    0    0  0.00000000000E+00  0.00000000000E+00  0.45593999997E+02  0.45594000000E+02  0.51100000000E-03 0.  1.
         11   -1    0    0    0    0 -0.00000000000E+00 -0.00000000000E+00 -0.45593999997E+02  0.45594000000E+02  0.51100000000E-03 0. -1.
    9900012    2    1    2    0    0  0.14115013093E+02  0.75454474061E+01 -0.40341735591E+02  0.47787274180E+02  0.20000014297E+02 0.  0.
        -12    1    1    2    0    0 -0.14115013093E+02 -0.75454474061E+01  0.40341735591E+02  0.43400725820E+02  0.00000000000E+00 0.  1.
         11    1    3    3    0    0  0.13520827154E+02  0.13356261592E+02 -0.29149468241E+02  0.34797902087E+02  0.51100000000E-03 0. -1.
        -11    1    3    3    0    0 -0.65179313887E+00 -0.34142607607E+01 -0.39597586487E+01  0.52689372415E+01  0.51100000000E-03 0.  1.
         12    1    3    3    0    0  0.12459790774E+01 -0.23965534253E+01 -0.72325087018E+01  0.77204348520E+01  0.00000000000E+00 0. -1.
</event>
<event>
 7    1  0.2598019E-009  0.4778727E+02  0.7816164E-02  0.1312668E+00
        -11   -1    0    0    0    0  0.00000000000E+00  0.00000000000E+00  0.45593999997E+02  0.45594000000E+02  0.51100000000E-03 0.  1.
         11   -1    0    0    0    0 -0.00000000000E+00 -0.00000000000E+00 -0.45593999997E+02  0.45594000000E+02  0.51100000000E-03 0. -1.
    9900012    2    1    2    0    0 -0.28457359771E+02 -0.49372188304E+01 -0.32394841546E+02  0.47787271737E+02  0.20000003159E+02 0.  0.
        -12    1    1    2    0    0  0.28457359771E+02  0.49372188304E+01  0.32394841546E+02  0.43400728263E+02  0.00000000000E+00 0.  1.
         11    1    3    3    0    0 -0.12422113666E+02  0.21421590285E+01 -0.33228163085E+01  0.13036060054E+02  0.51100000000E-03 0. -1.
        -11    1    3    3    0    0 -0.31311140904E+00  0.11158472086E+01 -0.30542543296E+01  0.32667450954E+01  0.51100000000E-03 0.  1.
         12    1    3    3    0    0 -0.15722134695E+02 -0.81952250675E+01 -0.26017770908E+02  0.31484466588E+02  0.00000000000E+00 0. -1.
</event>
<event>
 7    1  0.2598019E-009  0.4778727E+02  0.7816164E-02  0.1312668E+00
        -11   -1    0    0    0    0  0.00000000000E+00  0.00000000000E+00  0.45593999997E+02  0.45594000000E+02  0.51100000000E-03 0. -1.
         11   -1    0    0    0    0 -0.00000000000E+00 -0.00000000000E+00 -0.45593999997E+02  0.45594000000E+02  0.51100000000E-03 0.  1.
    9900012    2    1    2    0    0 -0.42794356068E+02 -0.55110942738E+01 -0.46791144939E+01  0.47787272081E+02  0.20000004728E+02 0.  0.
        -12    1    1    2    0    0  0.42794356068E+02  0.55110942738E+01  0.46791144939E+01  0.43400727919E+02  0.00000000000E+00 0.  1.
         11    1    3    3    0    0 -0.93350625860E+01  0.17877960097E+01 -0.60739571330E+01  0.11279741290E+02  0.51100000000E-03 0. -1.
        -11    1    3    3    0    0 -0.40449663063E+01  0.32125550586E+00 -0.39418047194E+01  0.56571001606E+01  0.51100000000E-03 0.  1.
         12    1    3    3    0    0 -0.29414327176E+02 -0.76201457894E+01  0.53366473585E+01  0.30850430631E+02  0.00000000000E+00 0. -1.
</event>
<event>
 7    1  0.2598019E-009  0.4778727E+02  0.7816164E-02  0.1312668E+00
        -11   -1    0    0    0    0  0.00000000000E+00  0.00000000000E+00  0.45593999997E+02  0.45594000000E+02  0.51100000000E-03 0. -1.
         11   -1    0    0    0    0 -0.00000000000E+00 -0.00000000000E+00 -0.45593999997E+02  0.45594000000E+02  0.51100000000E-03 0.  1.
    9900012    2    1    2    0    0 -0.31348514312E+02 -0.15794694589E+02  0.25522961164E+02  0.47787271051E+02  0.20000000031E+02 0.  0.
        -12    1    1    2    0    0  0.31348514312E+02  0.15794694589E+02 -0.25522961164E+02  0.43400728949E+02  0.00000000000E+00 0.  1.
         11    1    3    3    0    0 -0.12279367810E+02 -0.25325875858E+01  0.74007908356E+01  0.14559140736E+02  0.51100000000E-03 0. -1.
        -11    1    3    3    0    0 -0.15805442775E+02 -0.69361101094E+01  0.19431447816E+02  0.25990436881E+02  0.51100000000E-03 0.  1.
        -12    1    3    3    0    0 -0.32637037264E+01 -0.63259968939E+01 -0.13092774880E+01  0.72376934348E+01  0.00000000000E+00 0.  1.
</event>
<event>
 7    1  0.2598019E-009  0.4778728E+02  0.7816164E-02  0.1312668E+00
        -11   -1    0    0    0    0  0.00000000000E+00  0.00000000000E+00  0.45593999997E+02  0.45594000000E+02  0.51100000000E-03 0. -1.
         11   -1    0    0    0    0 -0.00000000000E+00 -0.00000000000E+00 -0.45593999997E+02  0.45594000000E+02  0.51100000000E-03 0.  1.
    9900012    2    1    2    0    0 -0.30386402405E+02  0.27414137825E+02 -0.14448335998E+02  0.47787276309E+02  0.20000024001E+02 0.  0.
        -12    1    1    2    0    0  0.30386402405E+02 -0.27414137825E+02  0.14448335998E+02  0.43400723691E+02  0.00000000000E+00 0.  1.
         11    1    3    3    0    0 -0.60407205834E+01  0.67569700942E+01 -0.11001077259E+02  0.14253794272E+02  0.51100000000E-03 0. -1.
        -11    1    3    3    0    0 -0.60814179496E+01  0.11239279196E+02 -0.19817963697E+01  0.12931842801E+02  0.51100000000E-03 0.  1.
         12    1    3    3    0    0 -0.18264263872E+02  0.94178885352E+01 -0.14654623698E+01  0.20601639236E+02  0.00000000000E+00 0. -1.
</event>
<event>
 7    1  0.2598019E-009  0.4778727E+02  0.7816164E-02  0.1312668E+00
        -11   -1    0    0    0    0  0.00000000000E+00  0.00000000000E+00  0.45593999997E+02  0.45594000000E+02  0.51100000000E-03 0.  1.
         11   -1    0    0    0    0 -0.00000000000E+00 -0.00000000000E+00 -0.45593999997E+02  0.45594000000E+02  0.51100000000E-03 0. -1.
    9900012    2    1    2    0    0 -0.12907847480E+02  0.19126822869E+02 -0.36758333936E+02  0.47787274276E+02  0.20000014734E+02 0.  0.
        -12    1    1    2    0    0  0.12907847480E+02 -0.19126822869E+02  0.36758333936E+02  0.43400725724E+02  0.00000000000E+00 0.  1.
         11    1    3    3    0    0 -0.33514192648E+01  0.76589252437E+01 -0.16539280888E+02  0.18532106182E+02  0.51100000000E-03 0. -1.
        -11    1    3    3    0    0 -0.10574334361E+02  0.14290192914E+02 -0.18991460915E+02  0.26013491666E+02  0.51100000000E-03 0.  1.
        -12    1    3    3    0    0  0.10179061462E+01 -0.28222952887E+01 -0.12275921320E+01  0.32416764277E+01  0.00000000000E+00 0.  1.
</event>
<event>
 7    1  0.2598019E-009  0.4778727E+02  0.7816164E-02  0.1312668E+00
        -11   -1    0    0    0    0  0.00000000000E+00  0.00000000000E+00  0.45593999997E+02  0.45594000000E+02  0.51100000000E-03 0.  1.
         11   -1    0    0    0    0 -0.00000000000E+00 -0.00000000000E+00 -0.45593999997E+02  0.45594000000E+02  0.51100000000E-03 0. -1.
    9900012    2    1    2    0    0 -0.12027093591E+02  0.14473525718E+02 -0.39108688144E+02  0.47787269415E+02  0.19999992573E+02 0.  0.
        -12    1    1    2    0    0  0.12027093591E+02 -0.14473525718E+02  0.39108688144E+02  0.43400730585E+02  0.00000000000E+00 0.  1.
         11    1    3    3    0    0  0.95825424826E+00  0.81918670215E+01 -0.13692382893E+02  0.15984563993E+02  0.51100000000E-03 0. -1.
        -11    1    3    3    0    0  0.28745073877E+00  0.13213221415E+01 -0.12675782572E+02  0.12747705056E+02  0.51100000000E-03 0.  1.
         12    1    3    3    0    0 -0.13272798578E+02  0.49603365546E+01 -0.12740522679E+02  0.19055000366E+02  0.00000000000E+00 0. -1.
</event>
<event>
 7    1  0.2598019E-009  0.4778727E+02  0.7816164E-02  0.1312668E+00
        -11   -1    0    0    0    0  0.00000000000E+00  0.00000000000E+00  0.45593999997E+02  0.45594000000E+02  0.51100000000E-03 0. -1.
         11   -1    0    0    0    0 -0.00000000000E+00 -0.00000000000E+00 -0.45593999997E+02  0.45594000000E+02  0.51100000000E-03 0.  1.
    9900012    2    1    2    0    0  0.30071242544E+02 -0.24832403055E+02  0.19044567721E+02  0.47787269254E+02  0.19999991836E+02 0.  0.
        -12    1    1    2    0    0 -0.30071242544E+02  0.24832403055E+02 -0.19044567721E+02  0.43400730746E+02  0.00000000000E+00 0.  1.
         11    1    3    3    0    0  0.51719851444E+01 -0.21771408479E+01  0.96836747212E+01  0.11192092252E+02  0.51100000000E-03 0. -1.
        -11    1    3    3    0    0  0.20056995002E+02 -0.16923448398E+02  0.23867193812E+01  0.26351140086E+02  0.51100000000E-03 0.  1.
        -12    1    3    3    0    0  0.48422623976E+01 -0.57318138097E+01  0.69741736185E+01  0.10244036916E+02  0.00000000000E+00 0.  1.
</event>
<event>
 7    1  0.2598019E-009  0.4778727E+02  0.7816164E-02  0.1312668E+00
        -11   -1    0    0    0    0  0.00000000000E+00  0.00000000000E+00  0.45593999997E+02  0.45594000000E+02  0.51100000000E-03 0.  1.
         11   -1    0    0    0    0 -0.00000000000E+00 -0.00000000000E+00 -0.45593999997E+02  0.45594000000E+02  0.51100000000E-03 0. -1.
    9900012    2    1    2    0    0  0.91470673940E+01  0.20939912770E+02 -0.36898163789E+02  0.47787270977E+02  0.19999999692E+02 0.  0.
        -12    1    1    2    0    0 -0.91470673940E+01 -0.20939912770E+02  0.36898163789E+02  0.43400729023E+02  0.00000000000E+00 0.  1.
         11    1    3    3    0    0  0.97675198869E+01  0.64053151791E+01 -0.10132596948E+02  0.15462924318E+02  0.51100000000E-03 0. -1.
        -11    1    3    3    0    0  0.25482205671E+01  0.30028989740E+01 -0.12281905593E+01  0.41254433237E+01  0.51100000000E-03 0.  1.
         12    1    3    3    0    0 -0.31686730599E+01  0.11531698617E+02 -0.25537376282E+02  0.28198903335E+02  0.00000000000E+00 0. -1.
</event>
<event>
 7    1  0.2598019E-009  0.4778727E+02  0.7816164E-02  0.1312668E+00
        -11   -1    0    0    0    0  0.00000000000E+00  0.00000000000E+00  0.45593999997E+02  0.45594000000E+02  0.51100000000E-03 0.  1.
         11   -1    0    0    0    0 -0.00000000000E+00 -0.00000000000E+00 -0.45593999997E+02  0.45594000000E+02  0.51100000000E-03 0. -1.
    9900012    2    1    2    0    0  0.45817982568E+01 -0.24033184860E+02 -0.35847404462E+02  0.47787271246E+02  0.20000000917E+02 0.  0.
        -12    1    1    2    0    0 -0.45817982568E+01  0.24033184860E+02  0.35847404462E+02  0.43400728754E+02  0.00000000000E+00 0.  1.
         11    1    3    3    0    0  0.90173355001E+01 -0.12391107980E+02 -0.10651077243E+02  0.18662726038E+02  0.51100000000E-03 0. -1.
        -11    1    3    3    0    0 -0.32495381259E+01 -0.40608073356E+00 -0.65298705805E+01  0.73050400173E+01  0.51100000000E-03 0.  1.
         12    1    3    3    0    0 -0.11859991174E+01 -0.11235996147E+02 -0.18666456638E+02  0.21819505190E+02  0.00000000000E+00 0. -1.
</event>
<event>
 7    1  0.2598019E-009  0.4778728E+02  0.7816164E-02  0.1312668E+00
        -11   -1    0    0    0    0  0.00000000000E+00  0.00000000000E+00  0.45593999997E+02  0.45594000000E+02  0.51100000000E-03 0. -1.
         11   -1    0    0    0    0 -0.00000000000E+00 -0.00000000000E+00 -0.45593999997E+02  0.45594000000E+02  0.51100000000E-03 0.  1.
    9900012    2    1    2    0    0  0.32338081981E+02 -0.25074026097E+01  0.28837202232E+02  0.47787275967E+02  0.20000022442E+02 0.  0.
        -12    1    1    2    0    0 -0.32338081981E+02  0.25074026097E+01 -0.28837202232E+02  0.43400724033E+02  0.00000000000E+00 0.  1.
         11    1    3    3    0    0  0.42075344438E+01 -0.47779876707E+01 -0.32394287018E+00  0.63747510949E+01  0.51100000000E-03 0. -1.
        -11    1    3    3    0    0  0.33145989495E+01 -0.24431611878E+01  0.34888224503E+01  0.53969885248E+01  0.51100000000E-03 0.  1.
         12    1    3    3    0    0  0.24815948588E+02  0.47137462489E+01  0.25672322652E+02  0.36015536347E+02  0.00000000000E+00 0. -1.
</event>
<event>
 7    1  0.2598019E-009  0.4778728E+02  0.7816164E-02  0.1312668E+00
        -11   -1    0    0    0    0  0.00000000000E+00  0.00000000000E+00  0.45593999997E+02  0.45594000000E+02  0.51100000000E-03 0.  1.
         11   -1    0    0    0    0 -0.00000000000E+00 -0.00000000000E+00 -0.45593999997E+02  0.45594000000E+02  0.51100000000E-03 0. -1.
    9900012    2    1    2    0    0  0.64259215947E+01 -0.26304091007E+01 -0.42841700951E+02  0.47787275803E+02  0.20000021698E+02 0.  0.
        -12    1    1    2    0    0 -0.64259215947E+01  0.26304091007E+01  0.42841700951E+02  0.43400724197E+02  0.00000000000E+00 0.  1.
         11    1    3    3    0    0  0.57223992118E+01  0.85078215032E+00 -0.23110075556E+02  0.23823208757E+02  0.51100000000E-03 0. -1.
        -11    1    3    3    0    0 -0.56726690103E+01 -0.42349990776E+01 -0.88950057038E+01  0.11368180049E+02  0.51100000000E-03 0.  1.
        -12    1    3    3    0    0  0.63761913932E+01  0.75380782654E+00 -0.10836619691E+02  0.12595886998E+02  0.00000000000E+00 0.  1.
</event>
<event>
 7    1  0.2598019E-009  0.4778727E+02  0.7816164E-02  0.1312668E+00
        -11   -1    0    0    0    0  0.00000000000E+00  0.00000000000E+00  0.45593999997E+02  0.45594000000E+02  0.51100000000E-03 0. -1.
         11   -1    0    0    0    0 -0.00000000000E+00 -0.00000000000E+00 -0.45593999997E+02  0.45594000000E+02  0.51100000000E-03 0.  1.
    9900012    2    1    2    0    0  0.13541456954E+02  0.38089506455E+02  0.15793720293E+02  0.47787272366E+02  0.20000006026E+02 0.  0.
        -12    1    1    2    0    0 -0.13541456954E+02 -0.38089506455E+02 -0.15793720293E+02  0.43400727634E+02  0.00000000000E+00 0.  1.
         11    1    3    3    0    0  0.69522723582E+01  0.28081270579E+02  0.12643003459E+02  0.31571147983E+02  0.51100000000E-03 0. -1.
        -11    1    3    3    0    0  0.47540374151E+01 -0.56832385803E-03 -0.15593526287E+01  0.50032442424E+01  0.51100000000E-03 0.  1.
        -12    1    3    3    0    0  0.18351471809E+01  0.10008804200E+02  0.47100694630E+01  0.11212880140E+02  0.00000000000E+00 0.  1.
</event>
<event>
 7    1  0.2598019E-009  0.4778727E+02  0.7816164E-02  0.1312668E+00
        -11   -1    0    0    0    0  0.00000000000E+00  0.00000000000E+00  0.45593999997E+02  0.45594000000E+02  0.51100000000E-03 0. -1.
         11   -1    0    0    0    0 -0.00000000000E+00 -0.00000000000E+00 -0.45593999997E+02  0.45594000000E+02  0.51100000000E-03 0.  1.
    9900012    2    1    2    0    0 -0.21122808926E+02  0.67622530568E+01  0.37305791114E+02  0.47787272195E+02  0.20000005248E+02 0.  0.
        -12    1    1    2    0    0  0.21122808926E+02 -0.67622530568E+01 -0.37305791114E+02  0.43400727805E+02  0.00000000000E+00 0.  1.
         11    1    3    3    0    0 -0.14202336860E+02 -0.48431346056E+01  0.18952742714E+02  0.24173720892E+02  0.51100000000E-03 0. -1.
        -11    1    3    3    0    0 -0.18383077303E+01  0.52088794847E+01  0.31612845267E+01  0.63643947801E+01  0.51100000000E-03 0.  1.
         12    1    3    3    0    0 -0.50821643357E+01  0.63965081777E+01  0.15191763873E+02  0.17249156523E+02  0.00000000000E+00 0. -1.
</event>
<event>
 7    1  0.2598019E-009  0.4778727E+02  0.7816164E-02  0.1312668E+00
        -11   -1    0    0    0    0  0.00000000000E+00  0.00000000000E+00  0.45593999997E+02  0.45594000000E+02  0.51100000000E-03 0. -1.
         11   -1    0    0    0    0 -0.00000000000E+00 -0.00000000000E+00 -0.45593999997E+02  0.45594000000E+02  0.51100000000E-03 0.  1.
    9900012    2    1    2    0    0 -0.42562569442E+02  0.52666963775E+01  0.66568061823E+01  0.47787268706E+02  0.19999989340E+02 0.  0.
        -12    1    1    2    0    0  0.42562569442E+02 -0.52666963775E+01 -0.66568061823E+01  0.43400731294E+02  0.00000000000E+00 0.  1.
         11    1    3    3    0    0 -0.13157952890E+02  0.92307456420E+01  0.33309897765E+01  0.16414441279E+02  0.51100000000E-03 0. -1.
        -11    1    3    3    0    0 -0.19974166227E+02 -0.66764628622E+01  0.15681879266E+00  0.21061031912E+02  0.51100000000E-03 0.  1.
        -12    1    3    3    0    0 -0.94304503256E+01  0.27124135978E+01  0.31689976132E+01  0.10311795515E+02  0.00000000000E+00 0.  1.
</event>
<event>
 7    1  0.2598019E-009  0.4778727E+02  0.7816164E-02  0.1312668E+00
        -11   -1    0    0    0    0  0.00000000000E+00  0.00000000000E+00  0.45593999997E+02  0.45594000000E+02  0.51100000000E-03 0. -1.
         11   -1    0    0    0    0 -0.00000000000E+00 -0.00000000000E+00 -0.45593999997E+02  0.45594000000E+02  0.51100000000E-03 0.  1.
    9900012    2    1    2    0    0  0.33228172011E+02  0.16993063927E+02  0.22152822068E+02  0.47787272328E+02  0.20000005854E+02 0.  0.
        -12    1    1    2    0    0 -0.33228172011E+02 -0.16993063927E+02 -0.22152822068E+02  0.43400727672E+02  0.00000000000E+00 0.  1.
         11    1    3    3    0    0  0.43430508018E+01  0.10039069018E+01  0.93926446676E+01  0.10396715513E+02  0.51100000000E-03 0.  1.
        -11    1    3    3    0    0  0.16370772116E+02  0.15246552928E+02  0.60656382907E+01  0.23178686848E+02  0.51100000000E-03 0. -1.
        -12    1    3    3    0    0  0.12514349093E+02  0.74260409687E+00  0.66945391099E+01  0.14211869967E+02  0.00000000000E+00 0.  1.
</event>
<event>
 7    1  0.2598019E-009  0.4778727E+02  0.7816164E-02  0.1312668E+00
        -11   -1    0    0    0    0  0.00000000000E+00  0.00000000000E+00  0.45593999997E+02  0.45594000000E+02  0.51100000000E-03 0.  1.
         11   -1    0    0    0    0 -0.00000000000E+00 -0.00000000000E+00 -0.45593999997E+02  0.45594000000E+02  0.51100000000E-03 0. -1.
    9900012    2    1    2    0    0 -0.63795943194E+01 -0.34119287427E+02 -0.26053760785E+02  0.47787269024E+02  0.19999990790E+02 0.  0.
        -12    1    1    2    0    0  0.63795943194E+01  0.34119287427E+02  0.26053760785E+02  0.43400730976E+02  0.00000000000E+00 0.  1.
         11    1    3    3    0    0 -0.32370624817E+01 -0.48342057007E+01 -0.13232188714E+02  0.14454720222E+02  0.51100000000E-03 0.  1.
        -11    1    3    3    0    0 -0.41673735494E+01 -0.22406256718E+02 -0.59471473787E+01  0.23553681339E+02  0.51100000000E-03 0. -1.
         12    1    3    3    0    0  0.10248417118E+01 -0.68788250082E+01 -0.68744246922E+01  0.97788674639E+01  0.00000000000E+00 0. -1.
</event>
<event>
 7    1  0.2598019E-009  0.4778727E+02  0.7816164E-02  0.1312668E+00
        -11   -1    0    0    0    0  0.00000000000E+00  0.00000000000E+00  0.45593999997E+02  0.45594000000E+02  0.51100000000E-03 0.  1.
         11   -1    0    0    0    0 -0.00000000000E+00 -0.00000000000E+00 -0.45593999997E+02  0.45594000000E+02  0.51100000000E-03 0. -1.
    9900012    2    1    2    0    0 -0.90673327499E+01 -0.12200444927E+02 -0.40651645148E+02  0.47787266908E+02  0.19999981142E+02 0.  0.
        -12    1    1    2    0    0  0.90673327499E+01  0.12200444927E+02  0.40651645148E+02  0.43400733092E+02  0.00000000000E+00 0.  1.
         11    1    3    3    0    0 -0.46692955523E+01  0.24233779718E+01 -0.17041567200E+02  0.17835080449E+02  0.51100000000E-03 0. -1.
        -11    1    3    3    0    0 -0.18882036508E+01  0.23391541767E+00  0.47731721706E-01  0.19032361987E+01  0.51100000000E-03 0.  1.
         12    1    3    3    0    0 -0.25098335468E+01 -0.14857738316E+02 -0.23657809670E+02  0.28048950260E+02  0.00000000000E+00 0. -1.
</event>
<event>
 7    1  0.2598019E-009  0.4778727E+02  0.7816164E-02  0.1312668E+00
        -11   -1    0    0    0    0  0.00000000000E+00  0.00000000000E+00  0.45593999997E+02  0.45594000000E+02  0.51100000000E-03 0.  1.
         11   -1    0    0    0    0 -0.00000000000E+00 -0.00000000000E+00 -0.45593999997E+02  0.45594000000E+02  0.51100000000E-03 0. -1.
    9900012    2    1    2    0    0 -0.34149180918E+02 -0.27717812092E+00 -0.26783957531E+02  0.47787265373E+02  0.19999974143E+02 0.  0.
        -12    1    1    2    0    0  0.34149180918E+02  0.27717812092E+00  0.26783957531E+02  0.43400734627E+02  0.00000000000E+00 0.  1.
         11    1    3    3    0    0 -0.12483130173E+02 -0.43964432813E+00 -0.15462400977E+02  0.19877315470E+02  0.51100000000E-03 0. -1.
        -11    1    3    3    0    0 -0.72367613862E+01 -0.23934106042E+01  0.22390184649E+01  0.79443271351E+01  0.51100000000E-03 0.  1.
        -12    1    3    3    0    0 -0.14429289359E+02  0.25558768114E+01 -0.13560575019E+02  0.19965622768E+02  0.00000000000E+00 0.  1.
</event>
<event>
 7    1  0.2598019E-009  0.4778727E+02  0.7816164E-02  0.1312668E+00
        -11   -1    0    0    0    0  0.00000000000E+00  0.00000000000E+00  0.45593999997E+02  0.45594000000E+02  0.51100000000E-03 0.  1.
         11   -1    0    0    0    0 -0.00000000000E+00 -0.00000000000E+00 -0.45593999997E+02  0.45594000000E+02  0.51100000000E-03 0. -1.
    9900012    2    1    2    0    0  0.30657791039E+02  0.29941175910E+02  0.68738052267E+01  0.47787270000E+02  0.19999995237E+02 0.  0.
        -12    1    1    2    0    0 -0.30657791039E+02 -0.29941175910E+02 -0.68738052267E+01  0.43400730000E+02  0.00000000000E+00 0.  1.
         11    1    3    3    0    0  0.19362715839E+02  0.26748291608E+02  0.11340102204E+00  0.33021186058E+02  0.51100000000E-03 0. -1.
        -11    1    3    3    0    0  0.48118628365E+01  0.42644955993E+01  0.23204099343E+01  0.68355138211E+01  0.51100000000E-03 0.  1.
         12    1    3    3    0    0  0.64832123633E+01 -0.10716112973E+01  0.44399942704E+01  0.79305701208E+01  0.00000000000E+00 0. -1.
</event>
<event>
 7    1  0.2598019E-009  0.4778727E+02  0.7816164E-02  0.1312668E+00
        -11   -1    0    0    0    0  0.00000000000E+00  0.00000000000E+00  0.45593999997E+02  0.45594000000E+02  0.51100000000E-03 0.  1.
         11   -1    0    0    0    0 -0.00000000000E+00 -0.00000000000E+00 -0.45593999997E+02  0.45594000000E+02  0.51100000000E-03 0. -1.
    9900012    2    1    2    0    0 -0.14103814531E+02  0.26516922337E+01 -0.40959422778E+02  0.47787269933E+02  0.19999994933E+02 0.  0.
        -12    1    1    2    0    0  0.14103814531E+02 -0.26516922337E+01  0.40959422778E+02  0.43400730067E+02  0.00000000000E+00 0.  1.
         11    1    3    3    0    0 -0.64897815221E+01  0.62279168690E+01 -0.29674467156E+02  0.31007712170E+02  0.51100000000E-03 0. -1.
        -11    1    3    3    0    0 -0.46579468875E+01 -0.65946591134E+01 -0.62719025456E+01  0.10223637309E+02  0.51100000000E-03 0.  1.
        -12    1    3    3    0    0 -0.29560861214E+01  0.30184344782E+01 -0.50130530763E+01  0.65559204542E+01  0.00000000000E+00 0.  1.
</event>
<event>
 7    1  0.2598019E-009  0.4778728E+02  0.7816164E-02  0.1312668E+00
        -11   -1    0    0    0    0  0.00000000000E+00  0.00000000000E+00  0.45593999997E+02  0.45594000000E+02  0.51100000000E-03 0. -1.
         11   -1    0    0    0    0 -0.00000000000E+00 -0.00000000000E+00 -0.45593999997E+02  0.45594000000E+02  0.51100000000E-03 0.  1.
    9900012    2    1    2    0    0 -0.33788785237E+02  0.27047348340E+02 -0.32220015631E+01  0.47787281641E+02  0.20000048312E+02 0.  0.
        -12    1    1    2    0    0  0.33788785237E+02 -0.27047348340E+02  0.32220015631E+01  0.43400718359E+02  0.00000000000E+00 0.  1.
         11    1    3    3    0    0 -0.11622670381E+02  0.93829720363E+01 -0.87856990882E+01  0.17329602989E+02  0.51100000000E-03 0.  1.
        -11    1    3    3    0    0 -0.14482384626E+02  0.15843317239E+02  0.13507614825E+01  0.21507550359E+02  0.51100000000E-03 0. -1.
         12    1    3    3    0    0 -0.76837302294E+01  0.18210590651E+01  0.42129360426E+01  0.89501282927E+01  0.00000000000E+00 0. -1.
</event>
<event>
 7    1  0.2598019E-009  0.4778727E+02  0.7816164E-02  0.1312668E+00
        -11   -1    0    0    0    0  0.00000000000E+00  0.00000000000E+00  0.45593999997E+02  0.45594000000E+02  0.51100000000E-03 0.  1.
         11   -1    0    0    0    0 -0.00000000000E+00 -0.00000000000E+00 -0.45593999997E+02  0.45594000000E+02  0.51100000000E-03 0. -1.
    9900012    2    1    2    0    0  0.40009450152E+02  0.15827657977E+02 -0.56878918228E+01  0.47787274524E+02  0.20000015863E+02 0.  0.
        -12    1    1    2    0    0 -0.40009450152E+02 -0.15827657977E+02  0.56878918228E+01  0.43400725476E+02  0.00000000000E+00 0.  1.
         11    1    3    3    0    0 -0.12974173935E+01  0.28185430056E+01 -0.20211218221E+01  0.37030271736E+01  0.51100000000E-03 0. -1.
        -11    1    3    3    0    0  0.24472445990E+02  0.44436217578E+01 -0.15931422970E+00  0.24873113363E+02  0.51100000000E-03 0.  1.
        -12    1    3    3    0    0  0.16834421555E+02  0.85654932132E+01 -0.35074557710E+01  0.19211133987E+02  0.00000000000E+00 0.  1.
</event>
<event>
 7    1  0.2598019E-009  0.4778727E+02  0.7816164E-02  0.1312668E+00
        -11   -1    0    0    0    0  0.00000000000E+00  0.00000000000E+00  0.45593999997E+02  0.45594000000E+02  0.51100000000E-03 0. -1.
         11   -1    0    0    0    0 -0.00000000000E+00 -0.00000000000E+00 -0.45593999997E+02  0.45594000000E+02  0.51100000000E-03 0.  1.
    9900012    2    1    2    0    0  0.14834263434E+01  0.31301710315E+02  0.30027084001E+02  0.47787269638E+02  0.19999993587E+02 0.  0.
        -12    1    1    2    0    0 -0.14834263434E+01 -0.31301710315E+02 -0.30027084001E+02  0.43400730362E+02  0.00000000000E+00 0.  1.
         11    1    3    3    0    0 -0.53990223235E+01  0.28591024962E+02  0.25522800818E+02  0.38704127846E+02  0.51100000000E-03 0. -1.
        -11    1    3    3    0    0  0.33744829464E+01  0.27285473595E+01  0.20339338805E+01  0.47925977444E+01  0.51100000000E-03 0.  1.
         12    1    3    3    0    0  0.35079657205E+01 -0.17862006915E-01  0.24703493030E+01  0.42905440479E+01  0.00000000000E+00 0. -1.
</event>
