<event>
 7    1  0.4836188E-013  0.5052886E+02  0.7816164E-02  0.1300439E+00
        -11   -1    0    0    0    0  0.00000000000E+00  0.00000000000E+00  0.45593999997E+02  0.45594000000E+02  0.51100000000E-03 0. -1.
         11   -1    0    0    0    0 -0.00000000000E+00 -0.00000000000E+00 -0.45593999997E+02  0.45594000000E+02  0.51100000000E-03 0.  1.
    9900012    2    1    2    0    0 -0.11081449470E+02 -0.38579348923E+02  0.64808135146E+01  0.50528860443E+02  0.30000001803E+02 0.  0.
         12    1    1    2    0    0  0.11081449470E+02  0.38579348923E+02 -0.64808135146E+01  0.40659139557E+02  0.00000000000E+00 0. -1.
         11    1    3    3    0    0 -0.80493356344E+01 -0.11640256742E+02  0.11209201517E+02  0.18053630662E+02  0.51100000000E-03 0. -1.
        -11    1    3    3    0    0  0.99215809098E+00  0.15780816074E+01 -0.31152592004E+01  0.36303662879E+01  0.51100000000E-03 0.  1.
        -12    1    3    3    0    0 -0.40242719265E+01 -0.28517173788E+02 -0.16131288017E+01  0.28844863493E+02  0.00000000000E+00 0.  1.
</event>
<event>
 7    1  0.4836188E-013  0.5052885E+02  0.7816164E-02  0.1300439E+00
        -11   -1    0    0    0    0  0.00000000000E+00  0.00000000000E+00  0.45593999997E+02  0.45594000000E+02  0.51100000000E-03 0. -1.
         11   -1    0    0    0    0 -0.00000000000E+00 -0.00000000000E+00 -0.45593999997E+02  0.45594000000E+02  0.51100000000E-03 0.  1.
    9900012    2    1    2    0    0  0.13624104841E+02 -0.29220102343E+02 -0.24773687422E+02  0.50528853401E+02  0.29999980397E+02 0.  0.
         12    1    1    2    0    0 -0.13624104841E+02  0.29220102343E+02  0.24773687422E+02  0.40659146599E+02  0.00000000000E+00 0. -1.
         11    1    3    3    0    0 -0.42156696386E+01  0.31219594584E+01 -0.14393106920E+01  0.54396798518E+01  0.51100000000E-03 0. -1.
        -11    1    3    3    0    0  0.55639225652E+01 -0.23274986740E+01 -0.24006015472E+01  0.64913305600E+01  0.51100000000E-03 0.  1.
         12    1    3    3    0    0  0.12275851914E+02 -0.30014563128E+02 -0.20933775183E+02  0.38597842989E+02  0.00000000000E+00 0. -1.
</event>
<event>
 7    1  0.4836188E-013  0.5052886E+02  0.7816164E-02  0.1300439E+00
        -11   -1    0    0    0    0  0.00000000000E+00  0.00000000000E+00  0.45593999997E+02  0.45594000000E+02  0.51100000000E-03 0.  1.
         11   -1    0    0    0    0 -0.00000000000E+00 -0.00000000000E+00 -0.45593999997E+02  0.45594000000E+02  0.51100000000E-03 0. -1.
    9900012    2    1    2    0    0 -0.94694009710E+01  0.62140553814E+01  0.39049733614E+02  0.50528859154E+02  0.29999997885E+02 0.  0.
         12    1    1    2    0    0  0.94694009710E+01 -0.62140553814E+01 -0.39049733614E+02  0.40659140846E+02  0.00000000000E+00 0. -1.
         11    1    3    3    0    0 -0.30768118520E+01 -0.39512452634E+01 -0.18124202660E+01  0.53257842414E+01  0.51100000000E-03 0. -1.
        -11    1    3    3    0    0 -0.77957306127E+01  0.53574214935E+01  0.93672584141E+01  0.13312434462E+02  0.51100000000E-03 0.  1.
        -12    1    3    3    0    0  0.14031414937E+01  0.48078791513E+01  0.31494895465E+02  0.31890640451E+02  0.00000000000E+00 0.  1.
</event>
<event>
 7    1  0.4836188E-013  0.5052887E+02  0.7816164E-02  0.1300439E+00
        -11   -1    0    0    0    0  0.00000000000E+00  0.00000000000E+00  0.45593999997E+02  0.45594000000E+02  0.51100000000E-03 0. -1.
         11   -1    0    0    0    0 -0.00000000000E+00 -0.00000000000E+00 -0.45593999997E+02  0.45594000000E+02  0.51100000000E-03 0.  1.
    9900012    2    1    2    0    0 -0.40437886108E+02  0.13515368136E+01 -0.40144232498E+01  0.50528869676E+02  0.30000029868E+02 0.  0.
         12    1    1    2    0    0  0.40437886108E+02 -0.13515368136E+01  0.40144232498E+01  0.40659130324E+02  0.00000000000E+00 0. -1.
         11    1    3    3    0    0 -0.86180473919E+01 -0.56261528770E+01  0.24843431119E+01  0.10587553920E+02  0.51100000000E-03 0.  1.
        -11    1    3    3    0    0 -0.19625929228E+02  0.14030789147E+02  0.67110271338E+00  0.24134840403E+02  0.51100000000E-03 0. -1.
         12    1    3    3    0    0 -0.12193909488E+02 -0.70530994568E+01 -0.71698690750E+01  0.15806475354E+02  0.00000000000E+00 0. -1.
</event>
<event>
 7    1  0.4836188E-013  0.5052885E+02  0.7816164E-02  0.1300439E+00
        -11   -1    0    0    0    0  0.00000000000E+00  0.00000000000E+00  0.45593999997E+02  0.45594000000E+02  0.51100000000E-03 0.  1.
         11   -1    0    0    0    0 -0.00000000000E+00 -0.00000000000E+00 -0.45593999997E+02  0.45594000000E+02  0.51100000000E-03 0. -1.
    9900012    2    1    2    0    0  0.26207518389E+02  0.13879610265E+02  0.27815257472E+02  0.50528854049E+02  0.29999982368E+02 0.  0.
         12    1    1    2    0    0 -0.26207518389E+02 -0.13879610265E+02 -0.27815257472E+02  0.40659145951E+02  0.00000000000E+00 0. -1.
         11    1    3    3    0    0  0.53323782580E+01  0.63964127430E+01  0.20371446426E+02  0.22007820965E+02  0.51100000000E-03 0. -1.
        -11    1    3    3    0    0  0.66718463883E+01  0.10999209357E+02  0.42104106987E+01  0.13536014895E+02  0.51100000000E-03 0.  1.
        -12    1    3    3    0    0  0.14203293742E+02 -0.35160118351E+01  0.32334003474E+01  0.14985018190E+02  0.00000000000E+00 0.  1.
</event>
<event>
 7    1  0.4836188E-013  0.5052886E+02  0.7816164E-02  0.1300439E+00
        -11   -1    0    0    0    0  0.00000000000E+00  0.00000000000E+00  0.45593999997E+02  0.45594000000E+02  0.51100000000E-03 0.  1.
         11   -1    0    0    0    0 -0.00000000000E+00 -0.00000000000E+00 -0.45593999997E+02  0.45594000000E+02  0.51100000000E-03 0. -1.
    9900012    2    1    2    0    0  0.17257213815E+02  0.20488213565E+02  0.30587371966E+02  0.50528860221E+02  0.30000001128E+02 0.  0.
         12    1    1    2    0    0 -0.17257213815E+02 -0.20488213565E+02 -0.30587371966E+02  0.40659139779E+02  0.00000000000E+00 0. -1.
         11    1    3    3    0    0  0.65289365524E+01 -0.40144886074E+01  0.15263186023E+02  0.17079460738E+02  0.51100000000E-03 0. -1.
        -11    1    3    3    0    0 -0.23695880550E+01  0.29428192773E+01  0.48171977545E+01  0.61221342126E+01  0.51100000000E-03 0.  1.
         12    1    3    3    0    0  0.13097865318E+02  0.21559882896E+02  0.10506988189E+02  0.27327265270E+02  0.00000000000E+00 0. -1.
</event>
<event>
 7    1  0.4836188E-013  0.5052883E+02  0.7816164E-02  0.1300439E+00
        -11   -1    0    0    0    0  0.00000000000E+00  0.00000000000E+00  0.45593999997E+02  0.45594000000E+02  0.51100000000E-03 0.  1.
         11   -1    0    0    0    0 -0.00000000000E+00 -0.00000000000E+00 -0.45593999997E+02  0.45594000000E+02  0.51100000000E-03 0. -1.
    9900012    2    1    2    0    0  0.13493264545E+02 -0.99145715897E+01  0.37051326780E+02  0.50528834562E+02  0.29999923136E+02 0.  0.
         12    1    1    2    0    0 -0.13493264545E+02  0.99145715897E+01 -0.37051326780E+02  0.40659165438E+02  0.00000000000E+00 0. -1.
         11    1    3    3    0    0  0.89100506642E+01 -0.49770286303E+01  0.27082827007E+02  0.28941999512E+02  0.51100000000E-03 0. -1.
        -11    1    3    3    0    0 -0.30188521672E+01  0.13187592014E+01  0.11190978895E+02  0.11665787720E+02  0.51100000000E-03 0.  1.
         12    1    3    3    0    0  0.76020660484E+01 -0.62563021608E+01 -0.12224791213E+01  0.99210473305E+01  0.00000000000E+00 0. -1.
</event>
<event>
 7    1  0.4836188E-013  0.5052886E+02  0.7816164E-02  0.1300439E+00
        -11   -1    0    0    0    0  0.00000000000E+00  0.00000000000E+00  0.45593999997E+02  0.45594000000E+02  0.51100000000E-03 0. -1.
         11   -1    0    0    0    0 -0.00000000000E+00 -0.00000000000E+00 -0.45593999997E+02  0.45594000000E+02  0.51100000000E-03 0.  1.
    9900012    2    1    2    0    0  0.37678588331E+02  0.12322287569E+02 -0.90361000499E+01  0.50528857195E+02  0.29999991929E+02 0.  0.
         12    1    1    2    0    0 -0.37678588331E+02 -0.12322287569E+02  0.90361000499E+01  0.40659142805E+02  0.00000000000E+00 0. -1.
         11    1    3    3    0    0  0.89638763461E+01  0.11136023767E+02  0.37598895821E+01  0.14781707426E+02  0.51100000000E-03 0. -1.
        -11    1    3    3    0    0  0.17528153414E+02  0.27297761889E+01  0.11805712801E+01  0.17778683555E+02  0.51100000000E-03 0.  1.
         12    1    3    3    0    0  0.11186558571E+02 -0.15435123870E+01 -0.13976560912E+02  0.17968466214E+02  0.00000000000E+00 0. -1.
</event>
<event>
 7    1  0.4836188E-013  0.5052886E+02  0.7816164E-02  0.1300439E+00
        -11   -1    0    0    0    0  0.00000000000E+00  0.00000000000E+00  0.45593999997E+02  0.45594000000E+02  0.51100000000E-03 0.  1.
         11   -1    0    0    0    0 -0.00000000000E+00 -0.00000000000E+00 -0.45593999997E+02  0.45594000000E+02  0.51100000000E-03 0. -1.
    9900012    2    1    2    0    0 -0.11924519773E+02  0.57634149394E+01  0.38441575165E+02  0.50528858042E+02  0.29999994506E+02 0.  0.
         12    1    1    2    0    0  0.11924519773E+02 -0.57634149394E+01 -0.38441575165E+02  0.40659141958E+02  0.00000000000E+00 0. -1.
         11    1    3    3    0    0 -0.53477450814E+01 -0.37865374326E+00 -0.14727628246E+01  0.55597470007E+01  0.51100000000E-03 0. -1.
        -11    1    3    3    0    0 -0.10248053581E+02  0.10678137116E+02  0.30320719723E+02  0.33740054227E+02  0.51100000000E-03 0.  1.
         12    1    3    3    0    0  0.36712788891E+01 -0.45360684331E+01  0.95936182665E+01  0.11229056815E+02  0.00000000000E+00 0. -1.
</event>
<event>
 7    1  0.4836188E-013  0.5052886E+02  0.7816164E-02  0.1300439E+00
        -11   -1    0    0    0    0  0.00000000000E+00  0.00000000000E+00  0.45593999997E+02  0.45594000000E+02  0.51100000000E-03 0.  1.
         11   -1    0    0    0    0 -0.00000000000E+00 -0.00000000000E+00 -0.45593999997E+02  0.45594000000E+02  0.51100000000E-03 0. -1.
    9900012    2    1    2    0    0 -0.63071305039E+01 -0.15840496126E+02  0.36911573189E+02  0.50528862675E+02  0.30000008586E+02 0.  0.
         12    1    1    2    0    0  0.63071305039E+01  0.15840496126E+02 -0.36911573189E+02  0.40659137325E+02  0.00000000000E+00 0. -1.
         11    1    3    3    0    0 -0.42539009440E+01 -0.76480307636E+01  0.23631077768E+01  0.90648952795E+01  0.51100000000E-03 0. -1.
        -11    1    3    3    0    0  0.68816855075E+01 -0.66967676119E+01  0.55664816717E+01  0.11099099528E+02  0.51100000000E-03 0.  1.
         12    1    3    3    0    0 -0.89349150674E+01 -0.14956977510E+01  0.28981983741E+02  0.30364867867E+02  0.00000000000E+00 0. -1.
</event>
<event>
 7    1  0.5345443E-013  0.5052886E+02  0.7816164E-02  0.1300439E+00
        -11   -1    0    0    0    0  0.00000000000E+00  0.00000000000E+00  0.45593999997E+02  0.45594000000E+02  0.51100000000E-03 0.  1.
         11   -1    0    0    0    0 -0.00000000000E+00 -0.00000000000E+00 -0.45593999997E+02  0.45594000000E+02  0.51100000000E-03 0. -1.
    9900012    2    1    2    0    0  0.93156488606E+01  0.39476706462E+02  0.28238398592E+01  0.50528859105E+02  0.29999997734E+02 0.  0.
         12    1    1    2    0    0 -0.93156488606E+01 -0.39476706462E+02 -0.28238398592E+01  0.40659140895E+02  0.00000000000E+00 0. -1.
         11    1    3    3    0    0  0.55523794443E+01 -0.81539077018E+00 -0.21273709477E+01  0.60016236979E+01  0.51100000000E-03 0. -1.
        -11    1    3    3    0    0 -0.11775167203E+01  0.36412489165E+01  0.64662627131E+01  0.75138400990E+01  0.51100000000E-03 0.  1.
        -12    1    3    3    0    0  0.49407861366E+01  0.36650848316E+02 -0.15150519062E+01  0.37013395308E+02  0.00000000000E+00 0.  1.
</event>
<event>
 7    1  0.4836188E-013  0.5052888E+02  0.7816164E-02  0.1300439E+00
        -11   -1    0    0    0    0  0.00000000000E+00  0.00000000000E+00  0.45593999997E+02  0.45594000000E+02  0.51100000000E-03 0.  1.
         11   -1    0    0    0    0 -0.00000000000E+00 -0.00000000000E+00 -0.45593999997E+02  0.45594000000E+02  0.51100000000E-03 0. -1.
    9900012    2    1    2    0    0  0.15737885827E+01 -0.15191084335E+02  0.37681805945E+02  0.50528876140E+02  0.30000049515E+02 0.  0.
         12    1    1    2    0    0 -0.15737885827E+01  0.15191084335E+02 -0.37681805945E+02  0.40659123860E+02  0.00000000000E+00 0. -1.
         11    1    3    3    0    0 -0.36575828629E+01  0.19850774759E+01 -0.38991965634E+00  0.41797706377E+01  0.51100000000E-03 0. -1.
        -11    1    3    3    0    0  0.35343125911E+01 -0.73548073357E+01  0.13152147780E+01  0.82652493374E+01  0.51100000000E-03 0.  1.
        -12    1    3    3    0    0  0.16970588545E+01 -0.98213544749E+01  0.36756510823E+02  0.38083856165E+02  0.00000000000E+00 0.  1.
</event>
<event>
 7    1  0.4836188E-013  0.5052885E+02  0.7816164E-02  0.1300439E+00
        -11   -1    0    0    0    0  0.00000000000E+00  0.00000000000E+00  0.45593999997E+02  0.45594000000E+02  0.51100000000E-03 0.  1.
         11   -1    0    0    0    0 -0.00000000000E+00 -0.00000000000E+00 -0.45593999997E+02  0.45594000000E+02  0.51100000000E-03 0. -1.
    9900012    2    1    2    0    0  0.40009763460E+02 -0.64507821821E+01 -0.32821887998E+01  0.50528849416E+02  0.29999968285E+02 0.  0.
         12    1    1    2    0    0 -0.40009763460E+02  0.64507821821E+01  0.32821887998E+01  0.40659150584E+02  0.00000000000E+00 0. -1.
         11    1    3    3    0    0  0.20541251603E+01 -0.29323413001E+01  0.16664115941E+01  0.39490484343E+01  0.51100000000E-03 0.  1.
        -11    1    3    3    0    0  0.13223062328E+01  0.73335229287E+01 -0.37784915394E+01  0.83550015496E+01  0.51100000000E-03 0. -1.
        -12    1    3    3    0    0  0.36633332067E+02 -0.10851963811E+02 -0.11701088545E+01  0.38224799432E+02  0.00000000000E+00 0.  1.
</event>
<event>
 7    1  0.4836188E-013  0.5052886E+02  0.7816164E-02  0.1300439E+00
        -11   -1    0    0    0    0  0.00000000000E+00  0.00000000000E+00  0.45593999997E+02  0.45594000000E+02  0.51100000000E-03 0. -1.
         11   -1    0    0    0    0 -0.00000000000E+00 -0.00000000000E+00 -0.45593999997E+02  0.45594000000E+02  0.51100000000E-03 0.  1.
    9900012    2    1    2    0    0 -0.35835625229E+02 -0.17764592096E+02 -0.73070455178E+01  0.50528859797E+02  0.29999999839E+02 0.  0.
         12    1    1    2    0    0  0.35835625229E+02  0.17764592096E+02  0.73070455178E+01  0.40659140203E+02  0.00000000000E+00 0. -1.
         11    1    3    3    0    0 -0.40522790344E+01 -0.12414762242E+02  0.56612658606E+01  0.14233664964E+02  0.51100000000E-03 0. -1.
        -11    1    3    3    0    0 -0.12437715256E+02 -0.68024934596E+01 -0.79631589796E+01  0.16259845610E+02  0.51100000000E-03 0.  1.
        -12    1    3    3    0    0 -0.19345630938E+02  0.14526636061E+01 -0.50051523988E+01  0.20035349223E+02  0.00000000000E+00 0.  1.
</event>
<event>
 7    1  0.5928257E-013  0.5052886E+02  0.7816164E-02  0.1300439E+00
        -11   -1    0    0    0    0  0.00000000000E+00  0.00000000000E+00  0.45593999997E+02  0.45594000000E+02  0.51100000000E-03 0.  1.
         11   -1    0    0    0    0 -0.00000000000E+00 -0.00000000000E+00 -0.45593999997E+02  0.45594000000E+02  0.51100000000E-03 0. -1.
    9900012    2    1    2    0    0 -0.37737185609E+02  0.14802289908E+02  0.31563951727E+01  0.50528858412E+02  0.29999995629E+02 0.  0.
         12    1    1    2    0    0  0.37737185609E+02 -0.14802289908E+02 -0.31563951727E+01  0.40659141588E+02  0.00000000000E+00 0. -1.
         11    1    3    3    0    0 -0.36735388428E+01  0.66057732286E+01 -0.63128640075E+01  0.98480140036E+01  0.51100000000E-03 0. -1.
        -11    1    3    3    0    0 -0.20584538030E+02  0.27395728240E+01 -0.36633729300E+01  0.21086696438E+02  0.51100000000E-03 0.  1.
        -12    1    3    3    0    0 -0.13479108736E+02  0.54569438553E+01  0.13132632110E+02  0.19594147970E+02  0.00000000000E+00 0.  1.
</event>
<event>
 7    1  0.4836188E-013  0.5052886E+02  0.7816164E-02  0.1300439E+00
        -11   -1    0    0    0    0  0.00000000000E+00  0.00000000000E+00  0.45593999997E+02  0.45594000000E+02  0.51100000000E-03 0. -1.
         11   -1    0    0    0    0 -0.00000000000E+00 -0.00000000000E+00 -0.45593999997E+02  0.45594000000E+02  0.51100000000E-03 0.  1.
    9900012    2    1    2    0    0 -0.21839239227E+02  0.63118471531E+00 -0.34290159725E+02  0.50528858124E+02  0.29999994753E+02 0.  0.
         12    1    1    2    0    0  0.21839239227E+02 -0.63118471531E+00  0.34290159725E+02  0.40659141876E+02  0.00000000000E+00 0. -1.
         11    1    3    3    0    0 -0.72163252550E+01 -0.36798538793E+01 -0.25933015505E+02  0.27168694635E+02  0.51100000000E-03 0. -1.
        -11    1    3    3    0    0 -0.23489961106E+01 -0.54825975923E+01 -0.35376858619E+01  0.69348309717E+01  0.51100000000E-03 0.  1.
        -12    1    3    3    0    0 -0.12273917861E+02  0.97936361869E+01 -0.48194583587E+01  0.16425332517E+02  0.00000000000E+00 0.  1.
</event>
<event>
 7    1  0.4836188E-013  0.5052886E+02  0.7816164E-02  0.1300439E+00
        -11   -1    0    0    0    0  0.00000000000E+00  0.00000000000E+00  0.45593999997E+02  0.45594000000E+02  0.51100000000E-03 0. -1.
         11   -1    0    0    0    0 -0.00000000000E+00 -0.00000000000E+00 -0.45593999997E+02  0.45594000000E+02  0.51100000000E-03 0.  1.
    9900012    2    1    2    0    0  0.31409571990E+02  0.25477671542E+02  0.41824430056E+01  0.50528858478E+02  0.29999995830E+02 0.  0.
         12    1    1    2    0    0 -0.31409571990E+02 -0.25477671542E+02 -0.41824430056E+01  0.40659141522E+02  0.00000000000E+00 0. -1.
         11    1    3    3    0    0  0.10039721033E+02  0.10476200548E+02 -0.60526936466E+01  0.15722018858E+02  0.51100000000E-03 0.  1.
        -11    1    3    3    0    0  0.39487505333E+01  0.50866315347E+01  0.13062506592E+02  0.14563499919E+02  0.51100000000E-03 0. -1.
         12    1    3    3    0    0  0.17421100424E+02  0.99148394601E+01 -0.28273699401E+01  0.20243339701E+02  0.00000000000E+00 0. -1.
</event>
<event>
 7    1  0.4836188E-013  0.5052887E+02  0.7816164E-02  0.1300439E+00
        -11   -1    0    0    0    0  0.00000000000E+00  0.00000000000E+00  0.45593999997E+02  0.45594000000E+02  0.51100000000E-03 0. -1.
         11   -1    0    0    0    0 -0.00000000000E+00 -0.00000000000E+00 -0.45593999997E+02  0.45594000000E+02  0.51100000000E-03 0.  1.
    9900012    2    1    2    0    0  0.12217322463E+02 -0.32324069906E+02 -0.21425606501E+02  0.50528867233E+02  0.30000022440E+02 0.  0.
         12    1    1    2    0    0 -0.12217322463E+02  0.32324069906E+02  0.21425606501E+02  0.40659132767E+02  0.00000000000E+00 0. -1.
         11    1    3    3    0    0 -0.25568144767E+01 -0.10925465927E+02 -0.79205975094E+01  0.13734590316E+02  0.51100000000E-03 0. -1.
        -11    1    3    3    0    0  0.10546667992E+02 -0.25747093584E+02 -0.12993814422E+02  0.30708048574E+02  0.51100000000E-03 0.  1.
        -12    1    3    3    0    0  0.42274689484E+01  0.43484896042E+01 -0.51119456895E+00  0.60862283423E+01  0.00000000000E+00 0.  1.
</event>
<event>
 7    1  0.4836188E-013  0.5052886E+02  0.7816164E-02  0.1300439E+00
        -11   -1    0    0    0    0  0.00000000000E+00  0.00000000000E+00  0.45593999997E+02  0.45594000000E+02  0.51100000000E-03 0.  1.
         11   -1    0    0    0    0 -0.00000000000E+00 -0.00000000000E+00 -0.45593999997E+02  0.45594000000E+02  0.51100000000E-03 0. -1.
    9900012    2    1    2    0    0 -0.33755137318E+02  0.18932514734E+02 -0.12462589537E+02  0.50528861452E+02  0.30000004870E+02 0.  0.
         12    1    1    2    0    0  0.33755137318E+02 -0.18932514734E+02  0.12462589537E+02  0.40659138548E+02  0.00000000000E+00 0. -1.
         11    1    3    3    0    0 -0.56660311096E+01  0.43028060977E+00  0.45831945011E+01  0.73003234198E+01  0.51100000000E-03 0. -1.
        -11    1    3    3    0    0 -0.14855149141E+02  0.21517853881E+02 -0.11551392001E+02  0.28585453452E+02  0.51100000000E-03 0.  1.
         12    1    3    3    0    0 -0.13233957067E+02 -0.30156197566E+01 -0.54943920371E+01  0.14643084580E+02  0.00000000000E+00 0. -1.
</event>
<event>
 7    1  0.4836188E-013  0.5052887E+02  0.7816164E-02  0.1300439E+00
        -11   -1    0    0    0    0  0.00000000000E+00  0.00000000000E+00  0.45593999997E+02  0.45594000000E+02  0.51100000000E-03 0.  1.
         11   -1    0    0    0    0 -0.00000000000E+00 -0.00000000000E+00 -0.45593999997E+02  0.45594000000E+02  0.51100000000E-03 0. -1.
    9900012    2    1    2    0    0 -0.21899696577E+02  0.62564785206E+00  0.34251668623E+02  0.50528868813E+02  0.30000027244E+02 0.  0.
         12    1    1    2    0    0  0.21899696577E+02 -0.62564785206E+00 -0.34251668623E+02  0.40659131187E+02  0.00000000000E+00 0. -1.
         11    1    3    3    0    0 -0.21118537155E+02 -0.11693775138E+01  0.32909519953E+02  0.39120283219E+02  0.51100000000E-03 0.  1.
        -11    1    3    3    0    0 -0.19068779420E+01  0.63532927935E+01  0.85509368131E+00  0.66881760048E+01  0.51100000000E-03 0. -1.
        -12    1    3    3    0    0  0.11257185198E+01 -0.45582674277E+01  0.48705498876E+00  0.47204095893E+01  0.00000000000E+00 0.  1.
</event>
<event>
 7    1  0.4836188E-013  0.5052887E+02  0.7816164E-02  0.1300439E+00
        -11   -1    0    0    0    0  0.00000000000E+00  0.00000000000E+00  0.45593999997E+02  0.45594000000E+02  0.51100000000E-03 0. -1.
         11   -1    0    0    0    0 -0.00000000000E+00 -0.00000000000E+00 -0.45593999997E+02  0.45594000000E+02  0.51100000000E-03 0.  1.
    9900012    2    1    2    0    0 -0.10781397401E+02  0.66590747395E+01 -0.38633966023E+02  0.50528866500E+02  0.30000020212E+02 0.  0.
         12    1    1    2    0    0  0.10781397401E+02 -0.66590747395E+01  0.38633966023E+02  0.40659133500E+02  0.00000000000E+00 0. -1.
         11    1    3    3    0    0 -0.44756893769E+01  0.33211279745E+01 -0.31861038909E+01  0.64197308889E+01  0.51100000000E-03 0. -1.
        -11    1    3    3    0    0 -0.11532705315E+02  0.14541894969E+01 -0.36628757971E+02  0.38428945728E+02  0.51100000000E-03 0.  1.
        -12    1    3    3    0    0  0.52269972911E+01  0.18837572681E+01  0.11808958386E+01  0.56801898831E+01  0.00000000000E+00 0.  1.
</event>
<event>
 7    1  0.4836188E-013  0.5052886E+02  0.7816164E-02  0.1300439E+00
        -11   -1    0    0    0    0  0.00000000000E+00  0.00000000000E+00  0.45593999997E+02  0.45594000000E+02  0.51100000000E-03 0.  1.
         11   -1    0    0    0    0 -0.00000000000E+00 -0.00000000000E+00 -0.45593999997E+02  0.45594000000E+02  0.51100000000E-03 0. -1.
    9900012    2    1    2    0    0  0.20480647547E+02  0.16886621953E+02  0.30798553191E+02  0.50528858302E+02  0.29999995295E+02 0.  0.
         12    1    1    2    0    0 -0.20480647547E+02 -0.16886621953E+02 -0.30798553191E+02  0.40659141698E+02  0.00000000000E+00 0. -1.
         11    1    3    3    0    0 -0.15360441743E+01 -0.30649690185E+01  0.60398226377E+01  0.69449927679E+01  0.51100000000E-03 0. -1.
        -11    1    3    3    0    0  0.80302704507E+00  0.83129736688E+01 -0.79809199758E+00  0.83897160114E+01  0.51100000000E-03 0.  1.
        -12    1    3    3    0    0  0.21213664677E+02  0.11638617302E+02  0.25556822551E+02  0.35194149523E+02  0.00000000000E+00 0.  1.
</event>
<event>
 7    1  0.4836188E-013  0.5052883E+02  0.7816164E-02  0.1300439E+00
        -11   -1    0    0    0    0  0.00000000000E+00  0.00000000000E+00  0.45593999997E+02  0.45594000000E+02  0.51100000000E-03 0. -1.
         11   -1    0    0    0    0 -0.00000000000E+00 -0.00000000000E+00 -0.45593999997E+02  0.45594000000E+02  0.51100000000E-03 0.  1.
    9900012    2    1    2    0    0 -0.13455617986E+02 -0.15050232850E+02 -0.35293132618E+02  0.50528826690E+02  0.29999899208E+02 0.  0.
         12    1    1    2    0    0  0.13455617986E+02  0.15050232850E+02  0.35293132618E+02  0.40659173310E+02  0.00000000000E+00 0. -1.
         11    1    3    3    0    0 -0.23826956107E+01 -0.44316222242E+01  0.42086699372E+01  0.65596811518E+01  0.51100000000E-03 0. -1.
        -11    1    3    3    0    0 -0.75686934885E+00  0.42744684907E+00 -0.16020759589E+02  0.16044322987E+02  0.51100000000E-03 0.  1.
        -12    1    3    3    0    0 -0.10316053027E+02 -0.11046057475E+02 -0.23481042966E+02  0.27924822552E+02  0.00000000000E+00 0.  1.
</event>
<event>
 7    1  0.4836188E-013  0.5052893E+02  0.7816164E-02  0.1300439E+00
        -11   -1    0    0    0    0  0.00000000000E+00  0.00000000000E+00  0.45593999997E+02  0.45594000000E+02  0.51100000000E-03 0. -1.
         11   -1    0    0    0    0 -0.00000000000E+00 -0.00000000000E+00 -0.45593999997E+02  0.45594000000E+02  0.51100000000E-03 0.  1.
    9900012    2    1    2    0    0  0.35789479433E+02 -0.19267016704E+02 -0.10271953630E+01  0.50528930888E+02  0.30000215925E+02 0.  0.
         12    1    1    2    0    0 -0.35789479433E+02  0.19267016704E+02  0.10271953630E+01  0.40659069112E+02  0.00000000000E+00 0. -1.
         11    1    3    3    0    0  0.87686140887E+01  0.54737806444E+01 -0.51024987161E+01  0.11527634666E+02  0.51100000000E-03 0. -1.
        -11    1    3    3    0    0  0.77835014364E+01 -0.57427026439E+01 -0.44565514430E+01  0.10649994333E+02  0.51100000000E-03 0.  1.
         12    1    3    3    0    0  0.19237363908E+02 -0.18998094704E+02  0.85318547961E+01  0.28351301889E+02  0.00000000000E+00 0. -1.
</event>
<event>
 7    1  0.4836188E-013  0.5052886E+02  0.7816164E-02  0.1300439E+00
        -11   -1    0    0    0    0  0.00000000000E+00  0.00000000000E+00  0.45593999997E+02  0.45594000000E+02  0.51100000000E-03 0.  1.
         11   -1    0    0    0    0 -0.00000000000E+00 -0.00000000000E+00 -0.45593999997E+02  0.45594000000E+02  0.51100000000E-03 0. -1.
    9900012    2    1    2    0    0 -0.12246566212E+02 -0.11735287322E+02  0.36952268440E+02  0.50528862092E+02  0.30000006816E+02 0.  0.
         12    1    1    2    0    0  0.12246566212E+02  0.11735287322E+02 -0.36952268440E+02  0.40659137908E+02  0.00000000000E+00 0. -1.
         11    1    3    3    0    0 -0.61742972994E+01 -0.10388533403E+02  0.31839660114E+02  0.34055947055E+02  0.51100000000E-03 0. -1.
        -11    1    3    3    0    0 -0.49041333950E+01  0.29177661836E+01  0.89525892838E+01  0.10616625594E+02  0.51100000000E-03 0.  1.
         12    1    3    3    0    0 -0.11681355181E+01 -0.42645201021E+01 -0.38399809572E+01  0.58562894431E+01  0.00000000000E+00 0. -1.
</event>
<event>
 7    1  0.4836188E-013  0.5052886E+02  0.7816164E-02  0.1300439E+00
        -11   -1    0    0    0    0  0.00000000000E+00  0.00000000000E+00  0.45593999997E+02  0.45594000000E+02  0.51100000000E-03 0.  1.
         11   -1    0    0    0    0 -0.00000000000E+00 -0.00000000000E+00 -0.45593999997E+02  0.45594000000E+02  0.51100000000E-03 0. -1.
    9900012    2    1    2    0    0  0.11360120035E+02  0.21506459038E+02  0.32581978590E+02  0.50528862818E+02  0.30000009021E+02 0.  0.
         12    1    1    2    0    0 -0.11360120035E+02 -0.21506459038E+02 -0.32581978590E+02  0.40659137182E+02  0.00000000000E+00 0. -1.
         11    1    3    3    0    0  0.10271991845E+02  0.18931355364E+02  0.86566016448E+01  0.23213073572E+02  0.51100000000E-03 0. -1.
        -11    1    3    3    0    0 -0.17469096890E+01  0.72133703274E+01  0.10751694117E+02  0.13064583100E+02  0.51100000000E-03 0.  1.
         12    1    3    3    0    0  0.28350378798E+01 -0.46382666534E+01  0.13173682828E+02  0.14251206145E+02  0.00000000000E+00 0. -1.
</event>
<event>
 7    1  0.4836188E-013  0.5052885E+02  0.7816164E-02  0.1300439E+00
        -11   -1    0    0    0    0  0.00000000000E+00  0.00000000000E+00  0.45593999997E+02  0.45594000000E+02  0.51100000000E-03 0.  1.
         11   -1    0    0    0    0 -0.00000000000E+00 -0.00000000000E+00 -0.45593999997E+02  0.45594000000E+02  0.51100000000E-03 0. -1.
    9900012    2    1    2    0    0  0.24178562723E+02  0.13561544669E+02  0.29743031027E+02  0.50528852396E+02  0.29999977344E+02 0.  0.
         12    1    1    2    0    0 -0.24178562723E+02 -0.13561544669E+02 -0.29743031027E+02  0.40659147604E+02  0.00000000000E+00 0. -1.
         11    1    3    3    0    0  0.18068074349E+02  0.98884144198E+01  0.20857938887E+02  0.29313642989E+02  0.51100000000E-03 0.  1.
        -11    1    3    3    0    0  0.51923109235E+01  0.10558736034E+02  0.30810491678E+01  0.12163053218E+02  0.51100000000E-03 0. -1.
         12    1    3    3    0    0  0.91817745094E+00 -0.68856057844E+01  0.58040429727E+01  0.90521561895E+01  0.00000000000E+00 0. -1.
</event>
<event>
 7    1  0.4836188E-013  0.5052886E+02  0.7816164E-02  0.1300439E+00
        -11   -1    0    0    0    0  0.00000000000E+00  0.00000000000E+00  0.45593999997E+02  0.45594000000E+02  0.51100000000E-03 0.  1.
         11   -1    0    0    0    0 -0.00000000000E+00 -0.00000000000E+00 -0.45593999997E+02  0.45594000000E+02  0.51100000000E-03 0. -1.
    9900012    2    1    2    0    0 -0.40156788890E+02 -0.62446018797E+01 -0.12661397178E+01  0.50528857654E+02  0.29999993324E+02 0.  0.
         12    1    1    2    0    0  0.40156788890E+02  0.62446018797E+01  0.12661397178E+01  0.40659142346E+02  0.00000000000E+00 0. -1.
         11    1    3    3    0    0 -0.28935574941E+02 -0.11113392378E+02 -0.36219219606E+01  0.31207263678E+02  0.51100000000E-03 0. -1.
        -11    1    3    3    0    0 -0.11115204256E+02 -0.17078437543E+01 -0.20144086054E+01  0.11424637334E+02  0.51100000000E-03 0.  1.
        -12    1    3    3    0    0 -0.10600969297E+00  0.65766342522E+01  0.43701908483E+01  0.78969566412E+01  0.00000000000E+00 0.  1.
</event>
<event>
 7    1  0.4836188E-013  0.5052886E+02  0.7816164E-02  0.1300439E+00
        -11   -1    0    0    0    0  0.00000000000E+00  0.00000000000E+00  0.45593999997E+02  0.45594000000E+02  0.51100000000E-03 0.  1.
         11   -1    0    0    0    0 -0.00000000000E+00 -0.00000000000E+00 -0.45593999997E+02  0.45594000000E+02  0.51100000000E-03 0. -1.
    9900012    2    1    2    0    0  0.57503728989E+01 -0.18950490652E+02  0.35510245899E+02  0.50528862673E+02  0.30000008580E+02 0.  0.
         12    1    1    2    0    0 -0.57503728989E+01  0.18950490652E+02 -0.35510245899E+02  0.40659137327E+02  0.00000000000E+00 0. -1.
         11    1    3    3    0    0  0.56454033496E+01 -0.85071885693E+01  0.52367842816E+01  0.11474613118E+02  0.51100000000E-03 0. -1.
        -11    1    3    3    0    0 -0.40981245277E+00  0.87393003160E+00 -0.33956943431E+01  0.35302181631E+01  0.51100000000E-03 0.  1.
        -12    1    3    3    0    0  0.51478200200E+00 -0.11317232114E+02  0.33669155960E+02  0.35524031392E+02  0.00000000000E+00 0.  1.
</event>
<event>
 7    1  0.4836188E-013  0.5052888E+02  0.7816164E-02  0.1300439E+00
        -11   -1    0    0    0    0  0.00000000000E+00  0.00000000000E+00  0.45593999997E+02  0.45594000000E+02  0.51100000000E-03 0. -1.
         11   -1    0    0    0    0 -0.00000000000E+00 -0.00000000000E+00 -0.45593999997E+02  0.45594000000E+02  0.51100000000E-03 0.  1.
    9900012    2    1    2    0    0  0.12415425478E+02  0.12324272026E+02 -0.36703316552E+02  0.50528881506E+02  0.30000065827E+02 0.  0.
         12    1    1    2    0    0 -0.12415425478E+02 -0.12324272026E+02  0.36703316552E+02  0.40659118494E+02  0.00000000000E+00 0. -1.
         11    1    3    3    0    0  0.33317937658E+01  0.20714478991E+01  0.29726296119E+01  0.49222223809E+01  0.51100000000E-03 0. -1.
        -11    1    3    3    0    0  0.12263668779E+02  0.82568346633E+00 -0.25248211035E+02  0.28081158912E+02  0.51100000000E-03 0.  1.
         12    1    3    3    0    0 -0.31800370669E+01  0.94271406609E+01 -0.14427735129E+02  0.17525500214E+02  0.00000000000E+00 0. -1.
</event>
<event>
 7    1  0.4836188E-013  0.5052883E+02  0.7816164E-02  0.1300439E+00
        -11   -1    0    0    0    0  0.00000000000E+00  0.00000000000E+00  0.45593999997E+02  0.45594000000E+02  0.51100000000E-03 0. -1.
         11   -1    0    0    0    0 -0.00000000000E+00 -0.00000000000E+00 -0.45593999997E+02  0.45594000000E+02  0.51100000000E-03 0.  1.
    9900012    2    1    2    0    0  0.17171696828E+02  0.20026401835E+02 -0.30939358638E+02  0.50528833071E+02  0.29999918602E+02 0.  0.
         12    1    1    2    0    0 -0.17171696828E+02 -0.20026401835E+02  0.30939358638E+02  0.40659166929E+02  0.00000000000E+00 0. -1.
         11    1    3    3    0    0  0.34282710862E+01 -0.47158667274E+01 -0.29102091865E+01  0.65162688251E+01  0.51100000000E-03 0. -1.
        -11    1    3    3    0    0  0.13803037587E+02  0.58248127926E+01 -0.11411422704E+02  0.18832760262E+02  0.51100000000E-03 0.  1.
        -12    1    3    3    0    0 -0.59611845726E-01  0.18917455770E+02 -0.16617726748E+02  0.25179803984E+02  0.00000000000E+00 0.  1.
</event>
<event>
 7    1  0.4836188E-013  0.5052893E+02  0.7816164E-02  0.1300439E+00
        -11   -1    0    0    0    0  0.00000000000E+00  0.00000000000E+00  0.45593999997E+02  0.45594000000E+02  0.51100000000E-03 0.  1.
         11   -1    0    0    0    0 -0.00000000000E+00 -0.00000000000E+00 -0.45593999997E+02  0.45594000000E+02  0.51100000000E-03 0. -1.
    9900012    2    1    2    0    0  0.24265488061E+02 -0.32106649046E+02  0.57887368998E+01  0.50528925998E+02  0.30000201062E+02 0.  0.
         12    1    1    2    0    0 -0.24265488061E+02  0.32106649046E+02 -0.57887368998E+01  0.40659074002E+02  0.00000000000E+00 0. -1.
         11    1    3    3    0    0  0.18477560195E+02 -0.11529789279E+02 -0.33696177401E+00  0.21782328045E+02  0.51100000000E-03 0.  1.
        -11    1    3    3    0    0  0.10495597135E+02 -0.19658616299E+02  0.78834589810E+01  0.23638267275E+02  0.51100000000E-03 0. -1.
         12    1    3    3    0    0 -0.47076692688E+01 -0.91824346851E+00 -0.17577603072E+01  0.51083306774E+01  0.00000000000E+00 0. -1.
</event>
<event>
 7    1  0.4836188E-013  0.5052896E+02  0.7816164E-02  0.1300438E+00
        -11   -1    0    0    0    0  0.00000000000E+00  0.00000000000E+00  0.45593999997E+02  0.45594000000E+02  0.51100000000E-03 0. -1.
         11   -1    0    0    0    0 -0.00000000000E+00 -0.00000000000E+00 -0.45593999997E+02  0.45594000000E+02  0.51100000000E-03 0.  1.
    9900012    2    1    2    0    0  0.27617854462E+02 -0.26383398177E+02 -0.13940161848E+02  0.50528957995E+02  0.30000298319E+02 0.  0.
         12    1    1    2    0    0 -0.27617854462E+02  0.26383398177E+02  0.13940161848E+02  0.40659042005E+02  0.00000000000E+00 0. -1.
         11    1    3    3    0    0  0.16692979248E+02 -0.96267651766E+01  0.17861902691E+01  0.19352535748E+02  0.51100000000E-03 0. -1.
        -11    1    3    3    0    0  0.90178374747E+00  0.35448756201E+01 -0.48055149712E+01  0.60392326904E+01  0.51100000000E-03 0.  1.
        -12    1    3    3    0    0  0.10023091466E+02 -0.20301508620E+02 -0.10920837146E+02  0.25137189556E+02  0.00000000000E+00 0.  1.
</event>
<event>
 7    1  0.4836188E-013  0.5052885E+02  0.7816164E-02  0.1300439E+00
        -11   -1    0    0    0    0  0.00000000000E+00  0.00000000000E+00  0.45593999997E+02  0.45594000000E+02  0.51100000000E-03 0.  1.
         11   -1    0    0    0    0 -0.00000000000E+00 -0.00000000000E+00 -0.45593999997E+02  0.45594000000E+02  0.51100000000E-03 0. -1.
    9900012    2    1    2    0    0  0.25473060313E+02  0.53068948108E+01  0.31243021040E+02  0.50528852223E+02  0.29999976816E+02 0.  0.
         12    1    1    2    0    0 -0.25473060313E+02 -0.53068948108E+01 -0.31243021040E+02  0.40659147777E+02  0.00000000000E+00 0. -1.
         11    1    3    3    0    0  0.57788546423E+01  0.99467056465E+00  0.17699447862E+01  0.61251314530E+01  0.51100000000E-03 0. -1.
        -11    1    3    3    0    0  0.72719182247E+01  0.48962850830E+00 -0.41282302787E+01  0.83763247452E+01  0.51100000000E-03 0.  1.
        -12    1    3    3    0    0  0.12422287446E+02  0.38225957379E+01  0.33601306533E+02  0.36027396024E+02  0.00000000000E+00 0.  1.
</event>
<event>
 7    1  0.4836188E-013  0.5052886E+02  0.7816164E-02  0.1300439E+00
        -11   -1    0    0    0    0  0.00000000000E+00  0.00000000000E+00  0.45593999997E+02  0.45594000000E+02  0.51100000000E-03 0. -1.
         11   -1    0    0    0    0 -0.00000000000E+00 -0.00000000000E+00 -0.45593999997E+02  0.45594000000E+02  0.51100000000E-03 0.  1.
    9900012    2    1    2    0    0 -0.12656589492E+02 -0.98010953609E+01 -0.37375325550E+02  0.50528859726E+02  0.29999999624E+02 0.  0.
         12    1    1    2    0    0  0.12656589492E+02  0.98010953609E+01  0.37375325550E+02  0.40659140274E+02  0.00000000000E+00 0. -1.
         11    1    3    3    0    0  0.26327911522E+01  0.31989439672E+01  0.19149231919E+01  0.45641826046E+01  0.51100000000E-03 0. -1.
        -11    1    3    3    0    0 -0.91775999401E+01 -0.27704001753E+01 -0.80135347532E+01  0.12494806813E+02  0.51100000000E-03 0.  1.
        -12    1    3    3    0    0 -0.61117807039E+01 -0.10229639153E+02 -0.31276713988E+02  0.33469870309E+02  0.00000000000E+00 0.  1.
</event>
<event>
 7    1  0.4836188E-013  0.5052886E+02  0.7816164E-02  0.1300439E+00
        -11   -1    0    0    0    0  0.00000000000E+00  0.00000000000E+00  0.45593999997E+02  0.45594000000E+02  0.51100000000E-03 0. -1.
         11   -1    0    0    0    0 -0.00000000000E+00 -0.00000000000E+00 -0.45593999997E+02  0.45594000000E+02  0.51100000000E-03 0.  1.
    9900012    2    1    2    0    0 -0.20862927903E+02  0.34383499794E+02 -0.59731872328E+01  0.50528858537E+02  0.29999996009E+02 0.  0.
         12    1    1    2    0    0  0.20862927903E+02 -0.34383499794E+02  0.59731872328E+01  0.40659141463E+02  0.00000000000E+00 0. -1.
         11    1    3    3    0    0 -0.37606898529E+01  0.13434751893E+02  0.34197275896E+01  0.14364187538E+02  0.51100000000E-03 0. -1.
        -11    1    3    3    0    0 -0.51545448608E+01 -0.11244811679E+01  0.49685520254E+01  0.72470890784E+01  0.51100000000E-03 0.  1.
        -12    1    3    3    0    0 -0.11947693189E+02  0.22073229070E+02 -0.14361466848E+02  0.28917581920E+02  0.00000000000E+00 0.  1.
</event>
<event>
 7    1  0.7658491E-013  0.5052886E+02  0.7816164E-02  0.1300439E+00
        -11   -1    0    0    0    0  0.00000000000E+00  0.00000000000E+00  0.45593999997E+02  0.45594000000E+02  0.51100000000E-03 0.  1.
         11   -1    0    0    0    0 -0.00000000000E+00 -0.00000000000E+00 -0.45593999997E+02  0.45594000000E+02  0.51100000000E-03 0. -1.
    9900012    2    1    2    0    0  0.26998828247E+02  0.20610262025E+02  0.22348285186E+02  0.50528862304E+02  0.30000007459E+02 0.  0.
         12    1    1    2    0    0 -0.26998828247E+02 -0.20610262025E+02 -0.22348285186E+02  0.40659137696E+02  0.00000000000E+00 0. -1.
         11    1    3    3    0    0 -0.73843024012E+00  0.84079447801E+01  0.13677231707E+01  0.85504082697E+01  0.51100000000E-03 0. -1.
        -11    1    3    3    0    0  0.68012426594E+01  0.12695989239E+00 -0.34377225465E+01  0.76217423922E+01  0.51100000000E-03 0.  1.
        -12    1    3    3    0    0  0.20936015828E+02  0.12075357352E+02  0.24418284561E+02  0.34356711642E+02  0.00000000000E+00 0.  1.
</event>
<event>
 7    1  0.4836188E-013  0.5052887E+02  0.7816164E-02  0.1300439E+00
        -11   -1    0    0    0    0  0.00000000000E+00  0.00000000000E+00  0.45593999997E+02  0.45594000000E+02  0.51100000000E-03 0. -1.
         11   -1    0    0    0    0 -0.00000000000E+00 -0.00000000000E+00 -0.45593999997E+02  0.45594000000E+02  0.51100000000E-03 0.  1.
    9900012    2    1    2    0    0 -0.14536626838E+02 -0.35248385670E+02 -0.14120999160E+02  0.50528870282E+02  0.30000031708E+02 0.  0.
         12    1    1    2    0    0  0.14536626838E+02  0.35248385670E+02  0.14120999160E+02  0.40659129718E+02  0.00000000000E+00 0. -1.
         11    1    3    3    0    0 -0.82353904853E+01 -0.10459766208E+02 -0.15878508477E+02  0.20720892772E+02  0.51100000000E-03 0. -1.
        -11    1    3    3    0    0 -0.98922327209E+01 -0.24116982160E+02  0.10583520014E+01  0.26088411334E+02  0.51100000000E-03 0.  1.
         12    1    3    3    0    0  0.35909963679E+01 -0.67163730173E+00  0.69915731580E+00  0.37195661752E+01  0.00000000000E+00 0. -1.
</event>
<event>
 7    1  0.4836188E-013  0.5052887E+02  0.7816164E-02  0.1300439E+00
        -11   -1    0    0    0    0  0.00000000000E+00  0.00000000000E+00  0.45593999997E+02  0.45594000000E+02  0.51100000000E-03 0.  1.
         11   -1    0    0    0    0 -0.00000000000E+00 -0.00000000000E+00 -0.45593999997E+02  0.45594000000E+02  0.51100000000E-03 0. -1.
    9900012    2    1    2    0    0 -0.14019538565E+02  0.29335081590E+02  0.24414545940E+02  0.50528874002E+02  0.30000043017E+02 0.  0.
         12    1    1    2    0    0  0.14019538565E+02 -0.29335081590E+02 -0.24414545940E+02  0.40659125998E+02  0.00000000000E+00 0. -1.
         11    1    3    3    0    0 -0.85708413529E+01  0.52200167802E+01  0.69882431962E+01  0.12228795522E+02  0.51100000000E-03 0. -1.
        -11    1    3    3    0    0 -0.11222109626E+02  0.25084223396E+02  0.10980617462E+02  0.29592701262E+02  0.51100000000E-03 0.  1.
         12    1    3    3    0    0  0.57734124144E+01 -0.96915858699E+00  0.64456852820E+01  0.87073772187E+01  0.00000000000E+00 0. -1.
</event>
<event>
 7    1  0.4836188E-013  0.5052884E+02  0.7816164E-02  0.1300439E+00
        -11   -1    0    0    0    0  0.00000000000E+00  0.00000000000E+00  0.45593999997E+02  0.45594000000E+02  0.51100000000E-03 0.  1.
         11   -1    0    0    0    0 -0.00000000000E+00 -0.00000000000E+00 -0.45593999997E+02  0.45594000000E+02  0.51100000000E-03 0. -1.
    9900012    2    1    2    0    0 -0.24982076278E+01  0.17876525646E+02  0.36432895649E+02  0.50528842411E+02  0.29999946993E+02 0.  0.
         12    1    1    2    0    0  0.24982076278E+01 -0.17876525646E+02 -0.36432895649E+02  0.40659157589E+02  0.00000000000E+00 0. -1.
         11    1    3    3    0    0  0.57598197128E+01 -0.35065215105E+01  0.19850532752E+02  0.20964609871E+02  0.51100000000E-03 0. -1.
        -11    1    3    3    0    0 -0.40622406516E+01  0.19809476994E+01  0.41904115553E+01  0.61632379609E+01  0.51100000000E-03 0.  1.
        -12    1    3    3    0    0 -0.41957866890E+01  0.19402099457E+02  0.12391951341E+02  0.23400994579E+02  0.00000000000E+00 0.  1.
</event>
<event>
 7    1  0.4836188E-013  0.5052887E+02  0.7816164E-02  0.1300439E+00
        -11   -1    0    0    0    0  0.00000000000E+00  0.00000000000E+00  0.45593999997E+02  0.45594000000E+02  0.51100000000E-03 0.  1.
         11   -1    0    0    0    0 -0.00000000000E+00 -0.00000000000E+00 -0.45593999997E+02  0.45594000000E+02  0.51100000000E-03 0. -1.
    9900012    2    1    2    0    0  0.11942199523E+02  0.19453293032E+02  0.33646957468E+02  0.50528874504E+02  0.30000044541E+02 0.  0.
         12    1    1    2    0    0 -0.11942199523E+02 -0.19453293032E+02 -0.33646957468E+02  0.40659125496E+02  0.00000000000E+00 0. -1.
         11    1    3    3    0    0  0.43704763092E+01  0.24928301550E+02  0.28877252180E+02  0.38398137651E+02  0.51100000000E-03 0.  1.
        -11    1    3    3    0    0  0.25935280958E+01 -0.24707011548E+01 -0.12189666267E+01  0.37837325591E+01  0.51100000000E-03 0. -1.
        -12    1    3    3    0    0  0.49781951180E+01 -0.30043073632E+01  0.59886719152E+01  0.83470042933E+01  0.00000000000E+00 0.  1.
</event>
<event>
 7    1  0.4836188E-013  0.5052895E+02  0.7816164E-02  0.1300438E+00
        -11   -1    0    0    0    0  0.00000000000E+00  0.00000000000E+00  0.45593999997E+02  0.45594000000E+02  0.51100000000E-03 0.  1.
         11   -1    0    0    0    0 -0.00000000000E+00 -0.00000000000E+00 -0.45593999997E+02  0.45594000000E+02  0.51100000000E-03 0. -1.
    9900012    2    1    2    0    0 -0.66157091287E+00  0.32303297082E+02  0.24682333701E+02  0.50528950879E+02  0.30000276692E+02 0.  0.
         12    1    1    2    0    0  0.66157091287E+00 -0.32303297082E+02 -0.24682333701E+02  0.40659049121E+02  0.00000000000E+00 0. -1.
         11    1    3    3    0    0  0.59227550385E+01  0.24617991675E+02  0.23499523384E+02  0.34544929308E+02  0.51100000000E-03 0. -1.
        -11    1    3    3    0    0 -0.48959103652E-01  0.90666365882E+01  0.19069363546E+01  0.92651337031E+01  0.51100000000E-03 0.  1.
         12    1    3    3    0    0 -0.65353668477E+01 -0.13813311814E+01 -0.72412603729E+00  0.67188878681E+01  0.00000000000E+00 0. -1.
</event>
<event>
 7    1  0.4836188E-013  0.5052886E+02  0.7816164E-02  0.1300439E+00
        -11   -1    0    0    0    0  0.00000000000E+00  0.00000000000E+00  0.45593999997E+02  0.45594000000E+02  0.51100000000E-03 0. -1.
         11   -1    0    0    0    0 -0.00000000000E+00 -0.00000000000E+00 -0.45593999997E+02  0.45594000000E+02  0.51100000000E-03 0.  1.
    9900012    2    1    2    0    0 -0.28670360455E+02 -0.10725100652E+02 -0.26760952379E+02  0.50528856811E+02  0.29999990764E+02 0.  0.
         12    1    1    2    0    0  0.28670360455E+02  0.10725100652E+02  0.26760952379E+02  0.40659143189E+02  0.00000000000E+00 0. -1.
         11    1    3    3    0    0 -0.23496921969E+01  0.41740883053E+00  0.73964547464E-01  0.23876252987E+01  0.51100000000E-03 0. -1.
        -11    1    3    3    0    0 -0.97080728884E+01 -0.12300538506E+02 -0.27304713275E+02  0.31481697763E+02  0.51100000000E-03 0.  1.
        -12    1    3    3    0    0 -0.16612595369E+02  0.11580290243E+01  0.46979634855E+00  0.16659533749E+02  0.00000000000E+00 0.  1.
</event>
<event>
 7    1  0.4836188E-013  0.5052886E+02  0.7816164E-02  0.1300439E+00
        -11   -1    0    0    0    0  0.00000000000E+00  0.00000000000E+00  0.45593999997E+02  0.45594000000E+02  0.51100000000E-03 0.  1.
         11   -1    0    0    0    0 -0.00000000000E+00 -0.00000000000E+00 -0.45593999997E+02  0.45594000000E+02  0.51100000000E-03 0. -1.
    9900012    2    1    2    0    0 -0.46537327146E+01 -0.11651862361E+02  0.38674828493E+02  0.50528862238E+02  0.30000007258E+02 0.  0.
         12    1    1    2    0    0  0.46537327146E+01  0.11651862361E+02 -0.38674828493E+02  0.40659137762E+02  0.00000000000E+00 0. -1.
         11    1    3    3    0    0 -0.10967830329E+00 -0.71392170727E+01  0.12625437263E+01  0.72508252401E+01  0.51100000000E-03 0. -1.
        -11    1    3    3    0    0  0.42351390282E+01 -0.82838963880E+01  0.77306489131E+01  0.12096374450E+02  0.51100000000E-03 0.  1.
        -12    1    3    3    0    0 -0.87791934396E+01  0.37712510999E+01  0.29681635853E+02  0.31181662548E+02  0.00000000000E+00 0.  1.
</event>
<event>
 7    1  0.4836188E-013  0.5052886E+02  0.7816164E-02  0.1300439E+00
        -11   -1    0    0    0    0  0.00000000000E+00  0.00000000000E+00  0.45593999997E+02  0.45594000000E+02  0.51100000000E-03 0.  1.
         11   -1    0    0    0    0 -0.00000000000E+00 -0.00000000000E+00 -0.45593999997E+02  0.45594000000E+02  0.51100000000E-03 0. -1.
    9900012    2    1    2    0    0  0.23909365755E+02  0.35923920880E+01  0.32689487226E+02  0.50528860476E+02  0.30000001904E+02 0.  0.
         12    1    1    2    0    0 -0.23909365755E+02 -0.35923920880E+01 -0.32689487226E+02  0.40659139524E+02  0.00000000000E+00 0. -1.
         11    1    3    3    0    0  0.36715972194E+01  0.68151014304E+01  0.18094655952E+01  0.79498679014E+01  0.51100000000E-03 0. -1.
        -11    1    3    3    0    0  0.19860013514E+02  0.50670995915E+01  0.18117462931E+02  0.27355769015E+02  0.51100000000E-03 0.  1.
         12    1    3    3    0    0  0.37775502129E+00 -0.82898089339E+01  0.12762558699E+02  0.15223223560E+02  0.00000000000E+00 0. -1.
</event>
<event>
 7    1  0.4836188E-013  0.5052883E+02  0.7816164E-02  0.1300439E+00
        -11   -1    0    0    0    0  0.00000000000E+00  0.00000000000E+00  0.45593999997E+02  0.45594000000E+02  0.51100000000E-03 0. -1.
         11   -1    0    0    0    0 -0.00000000000E+00 -0.00000000000E+00 -0.45593999997E+02  0.45594000000E+02  0.51100000000E-03 0.  1.
    9900012    2    1    2    0    0  0.12877061760E+02 -0.30960111620E+02 -0.22996100931E+02  0.50528832656E+02  0.29999917341E+02 0.  0.
         12    1    1    2    0    0 -0.12877061760E+02  0.30960111620E+02  0.22996100931E+02  0.40659167344E+02  0.00000000000E+00 0. -1.
         11    1    3    3    0    0  0.54774346498E+01 -0.32377643120E+02 -0.16582764430E+02  0.36787255140E+02  0.51100000000E-03 0. -1.
        -11    1    3    3    0    0 -0.50749288860E+00 -0.30281593074E+01 -0.18858136203E+01  0.36032750512E+01  0.51100000000E-03 0.  1.
         12    1    3    3    0    0  0.79071199987E+01  0.44456908075E+01 -0.45275228802E+01  0.10138302464E+02  0.00000000000E+00 0. -1.
</event>
<event>
 7    1  0.4836188E-013  0.5052876E+02  0.7816164E-02  0.1300439E+00
        -11   -1    0    0    0    0  0.00000000000E+00  0.00000000000E+00  0.45593999997E+02  0.45594000000E+02  0.51100000000E-03 0.  1.
         11   -1    0    0    0    0 -0.00000000000E+00 -0.00000000000E+00 -0.45593999997E+02  0.45594000000E+02  0.51100000000E-03 0. -1.
    9900012    2    1    2    0    0 -0.16039182310E+02  0.17870757494E+02  0.32810883412E+02  0.50528764729E+02  0.29999710868E+02 0.  0.
         12    1    1    2    0    0  0.16039182310E+02 -0.17870757494E+02 -0.32810883412E+02  0.40659235271E+02  0.00000000000E+00 0. -1.
         11    1    3    3    0    0 -0.17357401606E+01  0.83483726372E+01  0.11440006320E+02  0.14268211677E+02  0.51100000000E-03 0. -1.
        -11    1    3    3    0    0 -0.13714192242E+02  0.34494766495E+01  0.25313802826E+02  0.28995975096E+02  0.51100000000E-03 0.  1.
        -12    1    3    3    0    0 -0.58924990802E+00  0.60729082068E+01 -0.39429257334E+01  0.72645779562E+01  0.00000000000E+00 0.  1.
</event>
<event>
 7    1  0.4836188E-013  0.5052887E+02  0.7816164E-02  0.1300439E+00
        -11   -1    0    0    0    0  0.00000000000E+00  0.00000000000E+00  0.45593999997E+02  0.45594000000E+02  0.51100000000E-03 0. -1.
         11   -1    0    0    0    0 -0.00000000000E+00 -0.00000000000E+00 -0.45593999997E+02  0.45594000000E+02  0.51100000000E-03 0.  1.
    9900012    2    1    2    0    0  0.26937073273E+02  0.29971203837E+02 -0.54116717802E+01  0.50528866126E+02  0.30000019077E+02 0.  0.
         12    1    1    2    0    0 -0.26937073273E+02 -0.29971203837E+02  0.54116717802E+01  0.40659133874E+02  0.00000000000E+00 0. -1.
         11    1    3    3    0    0  0.97249883136E+01  0.17751555135E+02 -0.70060390036E+01  0.21419096391E+02  0.51100000000E-03 0. -1.
        -11    1    3    3    0    0  0.10717070617E+02 -0.41058416331E+01  0.11496104742E+01  0.11534086120E+02  0.51100000000E-03 0.  1.
         12    1    3    3    0    0  0.64950143425E+01  0.16325490335E+02  0.44475674918E+00  0.17575683616E+02  0.00000000000E+00 0. -1.
</event>
<event>
 7    1  0.4836188E-013  0.5052886E+02  0.7816164E-02  0.1300439E+00
        -11   -1    0    0    0    0  0.00000000000E+00  0.00000000000E+00  0.45593999997E+02  0.45594000000E+02  0.51100000000E-03 0.  1.
         11   -1    0    0    0    0 -0.00000000000E+00 -0.00000000000E+00 -0.45593999997E+02  0.45594000000E+02  0.51100000000E-03 0. -1.
    9900012    2    1    2    0    0  0.63940203412E+01  0.26175082565E+02  0.30449096076E+02  0.50528857175E+02  0.29999991871E+02 0.  0.
         12    1    1    2    0    0 -0.63940203412E+01 -0.26175082565E+02 -0.30449096076E+02  0.40659142825E+02  0.00000000000E+00 0. -1.
         11    1    3    3    0    0 -0.10292460169E+01  0.50400161819E+01  0.11230956294E+02  0.12352954708E+02  0.51100000000E-03 0. -1.
        -11    1    3    3    0    0 -0.56388815186E+01  0.88313193847E+01  0.17170486802E+02  0.20115039253E+02  0.51100000000E-03 0.  1.
        -12    1    3    3    0    0  0.13062147877E+02  0.12303746998E+02  0.20476529797E+01  0.18060863215E+02  0.00000000000E+00 0.  1.
</event>
<event>
 7    1  0.4836188E-013  0.5052886E+02  0.7816164E-02  0.1300439E+00
        -11   -1    0    0    0    0  0.00000000000E+00  0.00000000000E+00  0.45593999997E+02  0.45594000000E+02  0.51100000000E-03 0. -1.
         11   -1    0    0    0    0 -0.00000000000E+00 -0.00000000000E+00 -0.45593999997E+02  0.45594000000E+02  0.51100000000E-03 0.  1.
    9900012    2    1    2    0    0 -0.39171363625E+02  0.95720714865E+01  0.52100869448E+01  0.50528864658E+02  0.30000014616E+02 0.  0.
         12    1    1    2    0    0  0.39171363625E+02 -0.95720714865E+01 -0.52100869448E+01  0.40659135342E+02  0.00000000000E+00 0. -1.
         11    1    3    3    0    0 -0.14567936560E+02  0.58976617633E+01 -0.34016749781E+00  0.15720143259E+02  0.51100000000E-03 0.  1.
        -11    1    3    3    0    0 -0.13940517197E+02 -0.91424718606E+01  0.69838592282E+01  0.18074764215E+02  0.51100000000E-03 0. -1.
         12    1    3    3    0    0 -0.10662909868E+02  0.12816881584E+02 -0.14336047856E+01  0.16733957185E+02  0.00000000000E+00 0. -1.
</event>
<event>
 7    1  0.4836188E-013  0.5052886E+02  0.7816164E-02  0.1300439E+00
        -11   -1    0    0    0    0  0.00000000000E+00  0.00000000000E+00  0.45593999997E+02  0.45594000000E+02  0.51100000000E-03 0.  1.
         11   -1    0    0    0    0 -0.00000000000E+00 -0.00000000000E+00 -0.45593999997E+02  0.45594000000E+02  0.51100000000E-03 0. -1.
    9900012    2    1    2    0    0  0.17952277259E+02 -0.93134398065E+01  0.35272388267E+02  0.50528858422E+02  0.29999995659E+02 0.  0.
         12    1    1    2    0    0 -0.17952277259E+02  0.93134398065E+01 -0.35272388267E+02  0.40659141578E+02  0.00000000000E+00 0. -1.
         11    1    3    3    0    0  0.12722850621E+02 -0.11185211726E+02  0.17961736439E+02  0.24690157258E+02  0.51100000000E-03 0. -1.
        -11    1    3    3    0    0 -0.23203329745E+01 -0.57302914627E+01  0.91036351044E+00  0.62489156933E+01  0.51100000000E-03 0.  1.
         12    1    3    3    0    0  0.75497596126E+01  0.76020633820E+01  0.16400288317E+02  0.19589785470E+02  0.00000000000E+00 0. -1.
</event>
<event>
 7    1  0.4836188E-013  0.5052893E+02  0.7816164E-02  0.1300439E+00
        -11   -1    0    0    0    0  0.00000000000E+00  0.00000000000E+00  0.45593999997E+02  0.45594000000E+02  0.51100000000E-03 0.  1.
         11   -1    0    0    0    0 -0.00000000000E+00 -0.00000000000E+00 -0.45593999997E+02  0.45594000000E+02  0.51100000000E-03 0. -1.
    9900012    2    1    2    0    0  0.14326365289E+02  0.37478829909E+02  0.65766714315E+01  0.50528929169E+02  0.30000210700E+02 0.  0.
         12    1    1    2    0    0 -0.14326365289E+02 -0.37478829909E+02 -0.65766714315E+01  0.40659070831E+02  0.00000000000E+00 0. -1.
         11    1    3    3    0    0 -0.27938826546E+01  0.10698895116E+02  0.17732718039E+01  0.11198956654E+02  0.51100000000E-03 0. -1.
        -11    1    3    3    0    0  0.11466045214E+02  0.17796594445E+02  0.13920743685E+02  0.25337246727E+02  0.51100000000E-03 0.  1.
         12    1    3    3    0    0  0.56542027294E+01  0.89833403481E+01 -0.91173440570E+01  0.13992725788E+02  0.00000000000E+00 0. -1.
</event>
<event>
 7    1  0.4836188E-013  0.5052874E+02  0.7816164E-02  0.1300439E+00
        -11   -1    0    0    0    0  0.00000000000E+00  0.00000000000E+00  0.45593999997E+02  0.45594000000E+02  0.51100000000E-03 0. -1.
         11   -1    0    0    0    0 -0.00000000000E+00 -0.00000000000E+00 -0.45593999997E+02  0.45594000000E+02  0.51100000000E-03 0.  1.
    9900012    2    1    2    0    0 -0.25222447145E+02  0.17691077171E+02 -0.26533555300E+02  0.50528737730E+02  0.29999628802E+02 0.  0.
         12    1    1    2    0    0  0.25222447145E+02 -0.17691077171E+02  0.26533555300E+02  0.40659262270E+02  0.00000000000E+00 0. -1.
         11    1    3    3    0    0  0.13193720252E+01 -0.11838346267E+01  0.35848537137E+01  0.39991728362E+01  0.51100000000E-03 0. -1.
        -11    1    3    3    0    0 -0.52900405552E+01  0.99190141431E+01 -0.46330718255E+01  0.12158812666E+02  0.51100000000E-03 0.  1.
        -12    1    3    3    0    0 -0.21251778615E+02  0.89558976546E+01 -0.25485337188E+02  0.34370752228E+02  0.00000000000E+00 0.  1.
</event>
<event>
 7    1  0.4836188E-013  0.5052886E+02  0.7816164E-02  0.1300439E+00
        -11   -1    0    0    0    0  0.00000000000E+00  0.00000000000E+00  0.45593999997E+02  0.45594000000E+02  0.51100000000E-03 0.  1.
         11   -1    0    0    0    0 -0.00000000000E+00 -0.00000000000E+00 -0.45593999997E+02  0.45594000000E+02  0.51100000000E-03 0. -1.
    9900012    2    1    2    0    0  0.17625821090E+02 -0.31920152834E+02  0.17988878635E+02  0.50528862275E+02  0.30000007371E+02 0.  0.
         12    1    1    2    0    0 -0.17625821090E+02  0.31920152834E+02 -0.17988878635E+02  0.40659137725E+02  0.00000000000E+00 0. -1.
         11    1    3    3    0    0  0.13231347314E+02 -0.10174564279E+02  0.75869978572E+01  0.18334471543E+02  0.51100000000E-03 0. -1.
        -11    1    3    3    0    0  0.12049250240E+02 -0.15676231449E+02  0.10578260711E+02  0.22423832495E+02  0.51100000000E-03 0.  1.
        -12    1    3    3    0    0 -0.76547764646E+01 -0.60693571048E+01 -0.17637993376E+00  0.97705582373E+01  0.00000000000E+00 0.  1.
</event>
<event>
 7    1  0.4836188E-013  0.5052886E+02  0.7816164E-02  0.1300439E+00
        -11   -1    0    0    0    0  0.00000000000E+00  0.00000000000E+00  0.45593999997E+02  0.45594000000E+02  0.51100000000E-03 0.  1.
         11   -1    0    0    0    0 -0.00000000000E+00 -0.00000000000E+00 -0.45593999997E+02  0.45594000000E+02  0.51100000000E-03 0. -1.
    9900012    2    1    2    0    0  0.17915374717E+01 -0.24527576087E+02  0.32378299673E+02  0.50528857302E+02  0.29999992256E+02 0.  0.
         12    1    1    2    0    0 -0.17915374717E+01  0.24527576087E+02 -0.32378299673E+02  0.40659142698E+02  0.00000000000E+00 0. -1.
         11    1    3    3    0    0 -0.57434785114E+01  0.19122456748E+00  0.29212364174E+01  0.64465288888E+01  0.51100000000E-03 0. -1.
        -11    1    3    3    0    0 -0.69940642455E+01 -0.84885895299E+01  0.92964689837E+01  0.14401299341E+02  0.51100000000E-03 0.  1.
        -12    1    3    3    0    0  0.14529080229E+02 -0.16230211124E+02  0.20160594272E+02  0.29681029073E+02  0.00000000000E+00 0.  1.
</event>
<event>
 7    1  0.4836188E-013  0.5052886E+02  0.7816164E-02  0.1300439E+00
        -11   -1    0    0    0    0  0.00000000000E+00  0.00000000000E+00  0.45593999997E+02  0.45594000000E+02  0.51100000000E-03 0.  1.
         11   -1    0    0    0    0 -0.00000000000E+00 -0.00000000000E+00 -0.45593999997E+02  0.45594000000E+02  0.51100000000E-03 0. -1.
    9900012    2    1    2    0    0  0.15841588791E+02  0.17650617680E+01  0.37404464070E+02  0.50528864362E+02  0.30000013715E+02 0.  0.
         12    1    1    2    0    0 -0.15841588791E+02 -0.17650617680E+01 -0.37404464070E+02  0.40659135638E+02  0.00000000000E+00 0. -1.
         11    1    3    3    0    0  0.44919347305E+01 -0.30794571024E+00  0.15507735663E+01  0.47620591238E+01  0.51100000000E-03 0. -1.
        -11    1    3    3    0    0  0.11038932704E+02 -0.38709746617E+01  0.37749194053E+02  0.39520173734E+02  0.51100000000E-03 0.  1.
         12    1    3    3    0    0  0.31072135643E+00  0.59439821399E+01 -0.18955035494E+01  0.62466315040E+01  0.00000000000E+00 0. -1.
</event>
<event>
 7    1  0.4836188E-013  0.5052886E+02  0.7816164E-02  0.1300439E+00
        -11   -1    0    0    0    0  0.00000000000E+00  0.00000000000E+00  0.45593999997E+02  0.45594000000E+02  0.51100000000E-03 0.  1.
         11   -1    0    0    0    0 -0.00000000000E+00 -0.00000000000E+00 -0.45593999997E+02  0.45594000000E+02  0.51100000000E-03 0. -1.
    9900012    2    1    2    0    0 -0.10905162024E+02  0.27197702346E+02  0.28187373344E+02  0.50528860957E+02  0.30000003366E+02 0.  0.
         12    1    1    2    0    0  0.10905162024E+02 -0.27197702346E+02 -0.28187373344E+02  0.40659139043E+02  0.00000000000E+00 0. -1.
         11    1    3    3    0    0  0.47205978352E-01 -0.55101116401E+01  0.14947009984E+01  0.57094386787E+01  0.51100000000E-03 0. -1.
        -11    1    3    3    0    0 -0.27833686031E+01  0.92547463234E+01  0.13771510389E+02  0.16824148387E+02  0.51100000000E-03 0.  1.
        -12    1    3    3    0    0 -0.81689993988E+01  0.23453067663E+02  0.12921161956E+02  0.27995273892E+02  0.00000000000E+00 0.  1.
</event>
<event>
 7    1  0.4836188E-013  0.5052887E+02  0.7816164E-02  0.1300439E+00
        -11   -1    0    0    0    0  0.00000000000E+00  0.00000000000E+00  0.45593999997E+02  0.45594000000E+02  0.51100000000E-03 0. -1.
         11   -1    0    0    0    0 -0.00000000000E+00 -0.00000000000E+00 -0.45593999997E+02  0.45594000000E+02  0.51100000000E-03 0.  1.
    9900012    2    1    2    0    0  0.36974292362E+01  0.32150445162E+02 -0.24613874658E+02  0.50528869011E+02  0.30000027847E+02 0.  0.
         12    1    1    2    0    0 -0.36974292362E+01 -0.32150445162E+02  0.24613874658E+02  0.40659130989E+02  0.00000000000E+00 0. -1.
         11    1    3    3    0    0  0.70440832550E+01  0.16328919156E+02 -0.11092404505E+02  0.20959345115E+02  0.51100000000E-03 0. -1.
        -11    1    3    3    0    0 -0.17890871459E+01 -0.24788345235E+01 -0.10525242743E+02  0.10960209326E+02  0.51100000000E-03 0.  1.
         12    1    3    3    0    0 -0.15575668728E+01  0.18300360530E+02 -0.29962274102E+01  0.18609314570E+02  0.00000000000E+00 0. -1.
</event>
<event>
 7    1  0.4836188E-013  0.5052886E+02  0.7816164E-02  0.1300439E+00
        -11   -1    0    0    0    0  0.00000000000E+00  0.00000000000E+00  0.45593999997E+02  0.45594000000E+02  0.51100000000E-03 0.  1.
         11   -1    0    0    0    0 -0.00000000000E+00 -0.00000000000E+00 -0.45593999997E+02  0.45594000000E+02  0.51100000000E-03 0. -1.
    9900012    2    1    2    0    0 -0.24711502080E+02  0.26088713266E+02  0.19023301365E+02  0.50528864622E+02  0.30000014504E+02 0.  0.
         12    1    1    2    0    0  0.24711502080E+02 -0.26088713266E+02 -0.19023301365E+02  0.40659135378E+02  0.00000000000E+00 0. -1.
         11    1    3    3    0    0 -0.77290078089E+01  0.17016694398E+02  0.11192575915E+02  0.21784838898E+02  0.51100000000E-03 0.  1.
        -11    1    3    3    0    0 -0.18243155468E+02  0.48547076856E+01  0.12251870354E+02  0.22505315718E+02  0.51100000000E-03 0. -1.
         12    1    3    3    0    0  0.12606611977E+01  0.42173111823E+01 -0.44211449041E+01  0.62387100050E+01  0.00000000000E+00 0. -1.
</event>
<event>
 7    1  0.4836188E-013  0.5052886E+02  0.7816164E-02  0.1300439E+00
        -11   -1    0    0    0    0  0.00000000000E+00  0.00000000000E+00  0.45593999997E+02  0.45594000000E+02  0.51100000000E-03 0. -1.
         11   -1    0    0    0    0 -0.00000000000E+00 -0.00000000000E+00 -0.45593999997E+02  0.45594000000E+02  0.51100000000E-03 0.  1.
    9900012    2    1    2    0    0 -0.14219747773E+02  0.34072039902E+02 -0.17031162237E+02  0.50528860597E+02  0.30000002271E+02 0.  0.
         12    1    1    2    0    0  0.14219747773E+02 -0.34072039902E+02  0.17031162237E+02  0.40659139403E+02  0.00000000000E+00 0. -1.
         11    1    3    3    0    0 -0.81569387955E+01  0.16281463721E+02  0.12924101104E+01  0.18256287562E+02  0.51100000000E-03 0.  1.
        -11    1    3    3    0    0  0.13651691374E+01  0.17396447846E+02 -0.71686888369E+01  0.18865051930E+02  0.51100000000E-03 0. -1.
        -12    1    3    3    0    0 -0.74279781151E+01  0.39412833558E+00 -0.11154883511E+02  0.13407521104E+02  0.00000000000E+00 0.  1.
</event>
<event>
 7    1  0.4836188E-013  0.5052886E+02  0.7816164E-02  0.1300439E+00
        -11   -1    0    0    0    0  0.00000000000E+00  0.00000000000E+00  0.45593999997E+02  0.45594000000E+02  0.51100000000E-03 0.  1.
         11   -1    0    0    0    0 -0.00000000000E+00 -0.00000000000E+00 -0.45593999997E+02  0.45594000000E+02  0.51100000000E-03 0. -1.
    9900012    2    1    2    0    0 -0.31665609371E+02  0.23674525575E+02  0.94853425412E+01  0.50528859562E+02  0.29999999123E+02 0.  0.
         12    1    1    2    0    0  0.31665609371E+02 -0.23674525575E+02 -0.94853425412E+01  0.40659140438E+02  0.00000000000E+00 0. -1.
         11    1    3    3    0    0  0.12798628400E+01  0.16083724759E+01  0.54755654190E+01  0.58486517959E+01  0.51100000000E-03 0. -1.
        -11    1    3    3    0    0 -0.14146227340E+02  0.37243276432E+01  0.10027184436E+02  0.17735015994E+02  0.51100000000E-03 0.  1.
        -12    1    3    3    0    0 -0.18799244872E+02  0.18341825456E+02 -0.60174073143E+01  0.26945191771E+02  0.00000000000E+00 0.  1.
</event>
<event>
 7    1  0.4836188E-013  0.5052886E+02  0.7816164E-02  0.1300439E+00
        -11   -1    0    0    0    0  0.00000000000E+00  0.00000000000E+00  0.45593999997E+02  0.45594000000E+02  0.51100000000E-03 0.  1.
         11   -1    0    0    0    0 -0.00000000000E+00 -0.00000000000E+00 -0.45593999997E+02  0.45594000000E+02  0.51100000000E-03 0. -1.
    9900012    2    1    2    0    0  0.32450812164E+02 -0.24306172062E+02  0.30529536145E+01  0.50528859132E+02  0.29999997817E+02 0.  0.
         12    1    1    2    0    0 -0.32450812164E+02  0.24306172062E+02 -0.30529536145E+01  0.40659140868E+02  0.00000000000E+00 0. -1.
         11    1    3    3    0    0  0.52096101145E+01 -0.17366905563E+01  0.69967674352E+01  0.88944300794E+01  0.51100000000E-03 0. -1.
        -11    1    3    3    0    0  0.10711878686E+02 -0.19639174451E+02  0.45381411510E+01  0.22826218335E+02  0.51100000000E-03 0.  1.
        -12    1    3    3    0    0  0.16529323363E+02 -0.29303070547E+01 -0.84819549717E+01  0.18808210718E+02  0.00000000000E+00 0.  1.
</event>
<event>
 7    1  0.4836188E-013  0.5052886E+02  0.7816164E-02  0.1300439E+00
        -11   -1    0    0    0    0  0.00000000000E+00  0.00000000000E+00  0.45593999997E+02  0.45594000000E+02  0.51100000000E-03 0.  1.
         11   -1    0    0    0    0 -0.00000000000E+00 -0.00000000000E+00 -0.45593999997E+02  0.45594000000E+02  0.51100000000E-03 0. -1.
    9900012    2    1    2    0    0 -0.18323301492E+02 -0.34538525650E+02 -0.11158501083E+02  0.50528864765E+02  0.30000014939E+02 0.  0.
         12    1    1    2    0    0  0.18323301492E+02  0.34538525650E+02  0.11158501083E+02  0.40659135235E+02  0.00000000000E+00 0. -1.
         11    1    3    3    0    0 -0.13740368807E+02 -0.12148851497E+02 -0.83913354482E+01  0.20169453104E+02  0.51100000000E-03 0. -1.
        -11    1    3    3    0    0 -0.70445658111E+01 -0.26421225805E+01  0.49598973236E+01  0.90115093585E+01  0.51100000000E-03 0.  1.
         12    1    3    3    0    0  0.24616331252E+01 -0.19747551573E+02 -0.77270629581E+01  0.21347902302E+02  0.00000000000E+00 0. -1.
</event>
<event>
 7    1  0.4836188E-013  0.5052886E+02  0.7816164E-02  0.1300439E+00
        -11   -1    0    0    0    0  0.00000000000E+00  0.00000000000E+00  0.45593999997E+02  0.45594000000E+02  0.51100000000E-03 0.  1.
         11   -1    0    0    0    0 -0.00000000000E+00 -0.00000000000E+00 -0.45593999997E+02  0.45594000000E+02  0.51100000000E-03 0. -1.
    9900012    2    1    2    0    0 -0.17228513429E+02  0.10233489288E+02  0.35378237978E+02  0.50528859572E+02  0.29999999154E+02 0.  0.
         12    1    1    2    0    0  0.17228513429E+02 -0.10233489288E+02 -0.35378237978E+02  0.40659140428E+02  0.00000000000E+00 0. -1.
         11    1    3    3    0    0 -0.21227011292E+01 -0.71653589110E+00 -0.98449947693E+00  0.24471459393E+01  0.51100000000E-03 0. -1.
        -11    1    3    3    0    0 -0.84320182626E+01  0.16588498141E+02  0.11856779889E+02  0.22064914052E+02  0.51100000000E-03 0.  1.
         12    1    3    3    0    0 -0.66737940369E+01 -0.56384729614E+01  0.24505957566E+02  0.26016799580E+02  0.00000000000E+00 0. -1.
</event>
<event>
 7    1  0.5242728E-013  0.5052886E+02  0.7816164E-02  0.1300439E+00
        -11   -1    0    0    0    0  0.00000000000E+00  0.00000000000E+00  0.45593999997E+02  0.45594000000E+02  0.51100000000E-03 0.  1.
         11   -1    0    0    0    0 -0.00000000000E+00 -0.00000000000E+00 -0.45593999997E+02  0.45594000000E+02  0.51100000000E-03 0. -1.
    9900012    2    1    2    0    0 -0.14179748607E+02  0.28418111821E+02  0.25387229565E+02  0.50528858654E+02  0.29999996364E+02 0.  0.
         12    1    1    2    0    0  0.14179748607E+02 -0.28418111821E+02 -0.25387229565E+02  0.40659141346E+02  0.00000000000E+00 0. -1.
         11    1    3    3    0    0 -0.57108481802E+01 -0.34798638333E+01  0.31214314805E+01  0.73801472875E+01  0.51100000000E-03 0. -1.
        -11    1    3    3    0    0 -0.13179298663E+02  0.18174489021E+02  0.13404466769E+02  0.26147384077E+02  0.51100000000E-03 0.  1.
        -12    1    3    3    0    0  0.47103982367E+01  0.13723486633E+02  0.88613313152E+01  0.17001327289E+02  0.00000000000E+00 0.  1.
</event>
<event>
 7    1  0.4836188E-013  0.5052886E+02  0.7816164E-02  0.1300439E+00
        -11   -1    0    0    0    0  0.00000000000E+00  0.00000000000E+00  0.45593999997E+02  0.45594000000E+02  0.51100000000E-03 0.  1.
         11   -1    0    0    0    0 -0.00000000000E+00 -0.00000000000E+00 -0.45593999997E+02  0.45594000000E+02  0.51100000000E-03 0. -1.
    9900012    2    1    2    0    0  0.18250766152E+02 -0.35722646611E+02 -0.66308150690E+01  0.50528860135E+02  0.30000000867E+02 0.  0.
         12    1    1    2    0    0 -0.18250766152E+02  0.35722646611E+02  0.66308150690E+01  0.40659139865E+02  0.00000000000E+00 0. -1.
         11    1    3    3    0    0  0.90577359084E+01 -0.31871460313E+02 -0.32548484171E+01  0.33293041327E+02  0.51100000000E-03 0. -1.
        -11    1    3    3    0    0  0.86238964471E+01 -0.78122951498E+01  0.52383362325E+00  0.11648087713E+02  0.51100000000E-03 0.  1.
         12    1    3    3    0    0  0.56913379660E+00  0.39611088519E+01 -0.38998002751E+01  0.55877310960E+01  0.00000000000E+00 0. -1.
</event>
<event>
 7    1  0.4836188E-013  0.5052888E+02  0.7816164E-02  0.1300439E+00
        -11   -1    0    0    0    0  0.00000000000E+00  0.00000000000E+00  0.45593999997E+02  0.45594000000E+02  0.51100000000E-03 0.  1.
         11   -1    0    0    0    0 -0.00000000000E+00 -0.00000000000E+00 -0.45593999997E+02  0.45594000000E+02  0.51100000000E-03 0. -1.
    9900012    2    1    2    0    0  0.22677599075E+02  0.26402792150E+02  0.21018644645E+02  0.50528876106E+02  0.30000049411E+02 0.  0.
         12    1    1    2    0    0 -0.22677599075E+02 -0.26402792150E+02 -0.21018644645E+02  0.40659123894E+02  0.00000000000E+00 0. -1.
         11    1    3    3    0    0  0.18942166273E+01  0.36596991464E+01  0.14099797496E+02  0.14689647517E+02  0.51100000000E-03 0. -1.
        -11    1    3    3    0    0  0.74626786682E+01 -0.12282704333E+01  0.30019527772E+01  0.81370720717E+01  0.51100000000E-03 0.  1.
        -12    1    3    3    0    0  0.13320703780E+02  0.23971363436E+02  0.39168943720E+01  0.27702156517E+02  0.00000000000E+00 0.  1.
</event>
<event>
 7    1  0.4836188E-013  0.5052886E+02  0.7816164E-02  0.1300439E+00
        -11   -1    0    0    0    0  0.00000000000E+00  0.00000000000E+00  0.45593999997E+02  0.45594000000E+02  0.51100000000E-03 0. -1.
         11   -1    0    0    0    0 -0.00000000000E+00 -0.00000000000E+00 -0.45593999997E+02  0.45594000000E+02  0.51100000000E-03 0.  1.
    9900012    2    1    2    0    0  0.55387454541E+01 -0.37381035448E+02 -0.15004857565E+02  0.50528864952E+02  0.30000015507E+02 0.  0.
         12    1    1    2    0    0 -0.55387454541E+01  0.37381035448E+02  0.15004857565E+02  0.40659135048E+02  0.00000000000E+00 0. -1.
         11    1    3    3    0    0 -0.10747991685E+02 -0.74602654341E+01 -0.34942195291E+01  0.13541951706E+02  0.51100000000E-03 0. -1.
        -11    1    3    3    0    0  0.46684899880E+01 -0.24114937176E+01 -0.11528493438E+01  0.53795132297E+01  0.51100000000E-03 0.  1.
        -12    1    3    3    0    0  0.11618247151E+02 -0.27509276296E+02 -0.10357788692E+02  0.31607400016E+02  0.00000000000E+00 0.  1.
</event>
<event>
 7    1  0.4836188E-013  0.5052886E+02  0.7816164E-02  0.1300439E+00
        -11   -1    0    0    0    0  0.00000000000E+00  0.00000000000E+00  0.45593999997E+02  0.45594000000E+02  0.51100000000E-03 0.  1.
         11   -1    0    0    0    0 -0.00000000000E+00 -0.00000000000E+00 -0.45593999997E+02  0.45594000000E+02  0.51100000000E-03 0. -1.
    9900012    2    1    2    0    0  0.15887142645E+02  0.49070707143E+01  0.37103706278E+02  0.50528860020E+02  0.30000000516E+02 0.  0.
         12    1    1    2    0    0 -0.15887142645E+02 -0.49070707143E+01 -0.37103706278E+02  0.40659139980E+02  0.00000000000E+00 0. -1.
         11    1    3    3    0    0  0.96278946281E+01  0.10804837365E+02  0.92310447491E+01  0.17165461044E+02  0.51100000000E-03 0. -1.
        -11    1    3    3    0    0  0.16029431224E+01  0.34135007042E+01  0.19890592135E+02  0.20244927006E+02  0.51100000000E-03 0.  1.
        -12    1    3    3    0    0  0.46563048942E+01 -0.93112673547E+01  0.79820693932E+01  0.13118471970E+02  0.00000000000E+00 0.  1.
</event>
<event>
 7    1  0.4836188E-013  0.5052886E+02  0.7816164E-02  0.1300439E+00
        -11   -1    0    0    0    0  0.00000000000E+00  0.00000000000E+00  0.45593999997E+02  0.45594000000E+02  0.51100000000E-03 0. -1.
         11   -1    0    0    0    0 -0.00000000000E+00 -0.00000000000E+00 -0.45593999997E+02  0.45594000000E+02  0.51100000000E-03 0.  1.
    9900012    2    1    2    0    0  0.10966160136E-01 -0.28154750783E+02 -0.29333859705E+02  0.50528862810E+02  0.30000008996E+02 0.  0.
         12    1    1    2    0    0 -0.10966160136E-01  0.28154750783E+02  0.29333859705E+02  0.40659137190E+02  0.00000000000E+00 0. -1.
         11    1    3    3    0    0 -0.66380812423E+01 -0.25895852937E+01 -0.56779508561E+00  0.71478994182E+01  0.51100000000E-03 0. -1.
        -11    1    3    3    0    0 -0.49186178118E+01 -0.13919311810E+02 -0.19736120151E+02  0.24646591677E+02  0.51100000000E-03 0.  1.
         12    1    3    3    0    0  0.11567665214E+02 -0.11645853679E+02 -0.90299444688E+01  0.18734371714E+02  0.00000000000E+00 0. -1.
</event>
<event>
 7    1  0.4836188E-013  0.5052887E+02  0.7816164E-02  0.1300439E+00
        -11   -1    0    0    0    0  0.00000000000E+00  0.00000000000E+00  0.45593999997E+02  0.45594000000E+02  0.51100000000E-03 0.  1.
         11   -1    0    0    0    0 -0.00000000000E+00 -0.00000000000E+00 -0.45593999997E+02  0.45594000000E+02  0.51100000000E-03 0. -1.
    9900012    2    1    2    0    0 -0.17191436969E+02  0.77779159893E+01  0.36015604309E+02  0.50528865282E+02  0.30000016512E+02 0.  0.
         12    1    1    2    0    0  0.17191436969E+02 -0.77779159893E+01 -0.36015604309E+02  0.40659134718E+02  0.00000000000E+00 0. -1.
         11    1    3    3    0    0 -0.78023585335E+01  0.47733953581E+00  0.11079610163E+02  0.13559587506E+02  0.51100000000E-03 0. -1.
        -11    1    3    3    0    0 -0.13641141454E+02 -0.43588542839E+01  0.95996225080E+01  0.17240449629E+02  0.51100000000E-03 0.  1.
         12    1    3    3    0    0  0.42520630185E+01  0.11659430737E+02  0.15336371638E+02  0.19728828147E+02  0.00000000000E+00 0. -1.
</event>
<event>
 7    1  0.4836188E-013  0.5052887E+02  0.7816164E-02  0.1300439E+00
        -11   -1    0    0    0    0  0.00000000000E+00  0.00000000000E+00  0.45593999997E+02  0.45594000000E+02  0.51100000000E-03 0. -1.
         11   -1    0    0    0    0 -0.00000000000E+00 -0.00000000000E+00 -0.45593999997E+02  0.45594000000E+02  0.51100000000E-03 0.  1.
    9900012    2    1    2    0    0  0.22971824899E+02  0.74641188024E+01 -0.32706982234E+02  0.50528874388E+02  0.30000044191E+02 0.  0.
         12    1    1    2    0    0 -0.22971824899E+02 -0.74641188024E+01  0.32706982234E+02  0.40659125612E+02  0.00000000000E+00 0. -1.
         11    1    3    3    0    0  0.12161207416E+02  0.57981959111E+01 -0.22168607970E+02  0.25941496126E+02  0.51100000000E-03 0. -1.
        -11    1    3    3    0    0  0.87210126414E+01  0.30422237526E+01 -0.16059260783E+02  0.18525955954E+02  0.51100000000E-03 0.  1.
         12    1    3    3    0    0  0.20896048413E+01 -0.13763008613E+01  0.55208865190E+01  0.60614223091E+01  0.00000000000E+00 0. -1.
</event>
<event>
 7    1  0.4836188E-013  0.5052885E+02  0.7816164E-02  0.1300439E+00
        -11   -1    0    0    0    0  0.00000000000E+00  0.00000000000E+00  0.45593999997E+02  0.45594000000E+02  0.51100000000E-03 0. -1.
         11   -1    0    0    0    0 -0.00000000000E+00 -0.00000000000E+00 -0.45593999997E+02  0.45594000000E+02  0.51100000000E-03 0.  1.
    9900012    2    1    2    0    0  0.33871421965E+02 -0.10795321654E+02 -0.19732066943E+02  0.50528847754E+02  0.29999963232E+02 0.  0.
         12    1    1    2    0    0 -0.33871421965E+02  0.10795321654E+02  0.19732066943E+02  0.40659152246E+02  0.00000000000E+00 0. -1.
         11    1    3    3    0    0  0.47345501407E+01 -0.77436247287E+01 -0.97801220471E+01  0.13342806170E+02  0.51100000000E-03 0. -1.
        -11    1    3    3    0    0  0.31108334964E+02 -0.57518335676E+01 -0.11283118203E+02  0.33587510332E+02  0.51100000000E-03 0.  1.
         12    1    3    3    0    0 -0.19714631397E+01  0.27001366420E+01  0.13311733079E+01  0.35985312521E+01  0.00000000000E+00 0. -1.
</event>
<event>
 7    1  0.4836188E-013  0.5052886E+02  0.7816164E-02  0.1300439E+00
        -11   -1    0    0    0    0  0.00000000000E+00  0.00000000000E+00  0.45593999997E+02  0.45594000000E+02  0.51100000000E-03 0.  1.
         11   -1    0    0    0    0 -0.00000000000E+00 -0.00000000000E+00 -0.45593999997E+02  0.45594000000E+02  0.51100000000E-03 0. -1.
    9900012    2    1    2    0    0 -0.25618295298E+02  0.34103243810E+01  0.31388505527E+02  0.50528860245E+02  0.30000001202E+02 0.  0.
         12    1    1    2    0    0  0.25618295298E+02 -0.34103243810E+01 -0.31388505527E+02  0.40659139755E+02  0.00000000000E+00 0. -1.
         11    1    3    3    0    0 -0.12125837961E+02  0.35879447729E+01  0.15806330930E+02  0.20242267454E+02  0.51100000000E-03 0. -1.
        -11    1    3    3    0    0 -0.15474520173E+02  0.35688117210E+01  0.19371251888E+01  0.15998426358E+02  0.51100000000E-03 0.  1.
         12    1    3    3    0    0  0.19820628360E+01 -0.37464321129E+01  0.13645049408E+02  0.14288166433E+02  0.00000000000E+00 0. -1.
</event>
<event>
 7    1  0.4836188E-013  0.5052886E+02  0.7816164E-02  0.1300439E+00
        -11   -1    0    0    0    0  0.00000000000E+00  0.00000000000E+00  0.45593999997E+02  0.45594000000E+02  0.51100000000E-03 0.  1.
         11   -1    0    0    0    0 -0.00000000000E+00 -0.00000000000E+00 -0.45593999997E+02  0.45594000000E+02  0.51100000000E-03 0. -1.
    9900012    2    1    2    0    0  0.20653946060E+02  0.33861516850E+02  0.89430368189E+01  0.50528859346E+02  0.29999998467E+02 0.  0.
         12    1    1    2    0    0 -0.20653946060E+02 -0.33861516850E+02 -0.89430368189E+01  0.40659140654E+02  0.00000000000E+00 0. -1.
         11    1    3    3    0    0 -0.27860549501E+01  0.18937179227E+01 -0.26387509335E+01  0.42791677352E+01  0.51100000000E-03 0. -1.
        -11    1    3    3    0    0  0.33358394279E+01  0.20877844366E+02  0.15673710250E+01  0.21200680702E+02  0.51100000000E-03 0.  1.
        -12    1    3    3    0    0  0.20104161582E+02  0.11089954562E+02  0.10014416727E+02  0.25049010908E+02  0.00000000000E+00 0.  1.
</event>
<event>
 7    1  0.4836188E-013  0.5052887E+02  0.7816164E-02  0.1300439E+00
        -11   -1    0    0    0    0  0.00000000000E+00  0.00000000000E+00  0.45593999997E+02  0.45594000000E+02  0.51100000000E-03 0. -1.
         11   -1    0    0    0    0 -0.00000000000E+00 -0.00000000000E+00 -0.45593999997E+02  0.45594000000E+02  0.51100000000E-03 0.  1.
    9900012    2    1    2    0    0 -0.38430203397E+01  0.10310302336E+02 -0.39141965867E+02  0.50528872715E+02  0.30000039106E+02 0.  0.
         12    1    1    2    0    0  0.38430203397E+01 -0.10310302336E+02  0.39141965867E+02  0.40659127285E+02  0.00000000000E+00 0. -1.
         11    1    3    3    0    0  0.90432143688E+00  0.23351437755E+01 -0.18679760572E+02  0.18846860455E+02  0.51100000000E-03 0. -1.
        -11    1    3    3    0    0  0.88401498174E+01  0.44664610143E+01 -0.10741695608E+02  0.14611007754E+02  0.51100000000E-03 0.  1.
         12    1    3    3    0    0 -0.13587491594E+02  0.35086975459E+01 -0.97205096867E+01  0.17071004506E+02  0.00000000000E+00 0. -1.
</event>
<event>
 7    1  0.4836188E-013  0.5052887E+02  0.7816164E-02  0.1300439E+00
        -11   -1    0    0    0    0  0.00000000000E+00  0.00000000000E+00  0.45593999997E+02  0.45594000000E+02  0.51100000000E-03 0. -1.
         11   -1    0    0    0    0 -0.00000000000E+00 -0.00000000000E+00 -0.45593999997E+02  0.45594000000E+02  0.51100000000E-03 0.  1.
    9900012    2    1    2    0    0 -0.25904211523E+00 -0.11755263340E+02 -0.38921867582E+02  0.50528867015E+02  0.30000021779E+02 0.  0.
         12    1    1    2    0    0  0.25904211523E+00  0.11755263340E+02  0.38921867582E+02  0.40659132985E+02  0.00000000000E+00 0. -1.
         11    1    3    3    0    0  0.17210571040E+01  0.59037278068E+00 -0.21774223827E+00  0.18324817922E+01  0.51100000000E-03 0. -1.
        -11    1    3    3    0    0 -0.55178279213E+01  0.52572385602E+00 -0.34142954623E+02  0.34589943064E+02  0.51100000000E-03 0.  1.
        -12    1    3    3    0    0  0.35377287020E+01 -0.12871359977E+02 -0.45611707209E+01  0.14106442159E+02  0.00000000000E+00 0.  1.
</event>
<event>
 7    1  0.4836188E-013  0.5052885E+02  0.7816164E-02  0.1300439E+00
        -11   -1    0    0    0    0  0.00000000000E+00  0.00000000000E+00  0.45593999997E+02  0.45594000000E+02  0.51100000000E-03 0.  1.
         11   -1    0    0    0    0 -0.00000000000E+00 -0.00000000000E+00 -0.45593999997E+02  0.45594000000E+02  0.51100000000E-03 0. -1.
    9900012    2    1    2    0    0  0.23778808412E+02 -0.32697406623E+02  0.43144145383E+01  0.50528852171E+02  0.29999976659E+02 0.  0.
         12    1    1    2    0    0 -0.23778808412E+02  0.32697406623E+02 -0.43144145383E+01  0.40659147829E+02  0.00000000000E+00 0. -1.
         11    1    3    3    0    0  0.16822225141E+02 -0.18515697317E+02  0.97280815560E+01  0.26841271894E+02  0.51100000000E-03 0. -1.
        -11    1    3    3    0    0  0.63420809694E+01 -0.12437346372E+02  0.36555968133E+01  0.14431665328E+02  0.51100000000E-03 0.  1.
         12    1    3    3    0    0  0.61450230148E+00 -0.17443629335E+01 -0.90692638309E+01  0.92559149498E+01  0.00000000000E+00 0. -1.
</event>
<event>
 7    1  0.4836188E-013  0.5052882E+02  0.7816164E-02  0.1300439E+00
        -11   -1    0    0    0    0  0.00000000000E+00  0.00000000000E+00  0.45593999997E+02  0.45594000000E+02  0.51100000000E-03 0.  1.
         11   -1    0    0    0    0 -0.00000000000E+00 -0.00000000000E+00 -0.45593999997E+02  0.45594000000E+02  0.51100000000E-03 0. -1.
    9900012    2    1    2    0    0 -0.11840212624E+02 -0.10970344332E+02  0.37317957131E+02  0.50528818821E+02  0.29999875288E+02 0.  0.
         12    1    1    2    0    0  0.11840212624E+02  0.10970344332E+02 -0.37317957131E+02  0.40659181179E+02  0.00000000000E+00 0. -1.
         11    1    3    3    0    0 -0.10894401211E+01  0.73196259169E+01  0.51037081420E+01  0.89895294872E+01  0.51100000000E-03 0. -1.
        -11    1    3    3    0    0 -0.66186317148E+01  0.19079458307E+00  0.12843342910E+02  0.14449710921E+02  0.51100000000E-03 0.  1.
        -12    1    3    3    0    0 -0.41321407879E+01 -0.18480764832E+02  0.19370906079E+02  0.27089578413E+02  0.00000000000E+00 0.  1.
</event>
<event>
 7    1  0.4836188E-013  0.5052886E+02  0.7816164E-02  0.1300439E+00
        -11   -1    0    0    0    0  0.00000000000E+00  0.00000000000E+00  0.45593999997E+02  0.45594000000E+02  0.51100000000E-03 0. -1.
         11   -1    0    0    0    0 -0.00000000000E+00 -0.00000000000E+00 -0.45593999997E+02  0.45594000000E+02  0.51100000000E-03 0.  1.
    9900012    2    1    2    0    0 -0.25780651578E+02  0.21727757336E+02  0.22725061087E+02  0.50528857904E+02  0.29999994085E+02 0.  0.
         12    1    1    2    0    0  0.25780651578E+02 -0.21727757336E+02 -0.22725061087E+02  0.40659142096E+02  0.00000000000E+00 0. -1.
         11    1    3    3    0    0 -0.12587358046E+02  0.19991222933E+02  0.10533075858E+02  0.25865735332E+02  0.51100000000E-03 0. -1.
        -11    1    3    3    0    0 -0.32211657873E+01  0.78269541109E+01  0.10698569070E+01  0.85312199447E+01  0.51100000000E-03 0.  1.
         12    1    3    3    0    0 -0.99721277443E+01 -0.60904197088E+01  0.11122128322E+02  0.16131902628E+02  0.00000000000E+00 0. -1.
</event>
<event>
 7    1  0.4836188E-013  0.5052889E+02  0.7816164E-02  0.1300439E+00
        -11   -1    0    0    0    0  0.00000000000E+00  0.00000000000E+00  0.45593999997E+02  0.45594000000E+02  0.51100000000E-03 0. -1.
         11   -1    0    0    0    0 -0.00000000000E+00 -0.00000000000E+00 -0.45593999997E+02  0.45594000000E+02  0.51100000000E-03 0.  1.
    9900012    2    1    2    0    0  0.58630779220E+01  0.26968528613E+02 -0.29857762155E+02  0.50528890576E+02  0.30000093395E+02 0.  0.
         12    1    1    2    0    0 -0.58630779220E+01 -0.26968528613E+02  0.29857762155E+02  0.40659109424E+02  0.00000000000E+00 0. -1.
         11    1    3    3    0    0  0.35679675542E+01  0.25232196648E+01  0.33047520994E+01  0.54789065190E+01  0.51100000000E-03 0. -1.
        -11    1    3    3    0    0 -0.30248651869E+01  0.19452932940E+01  0.10601045269E+01  0.37493729166E+01  0.51100000000E-03 0.  1.
        -12    1    3    3    0    0  0.53199755548E+01  0.22500015654E+02 -0.34222618781E+02  0.41300611140E+02  0.00000000000E+00 0.  1.
</event>
<event>
 7    1  0.4836188E-013  0.5052886E+02  0.7816164E-02  0.1300439E+00
        -11   -1    0    0    0    0  0.00000000000E+00  0.00000000000E+00  0.45593999997E+02  0.45594000000E+02  0.51100000000E-03 0.  1.
         11   -1    0    0    0    0 -0.00000000000E+00 -0.00000000000E+00 -0.45593999997E+02  0.45594000000E+02  0.51100000000E-03 0. -1.
    9900012    2    1    2    0    0  0.34525935595E+02  0.10680252528E+02  0.18629488081E+02  0.50528857745E+02  0.29999993602E+02 0.  0.
         12    1    1    2    0    0 -0.34525935595E+02 -0.10680252528E+02 -0.18629488081E+02  0.40659142255E+02  0.00000000000E+00 0. -1.
         11    1    3    3    0    0  0.18844259904E+02 -0.66771778019E+01  0.27500772576E+01  0.20180529227E+02  0.51100000000E-03 0. -1.
        -11    1    3    3    0    0  0.11095811142E+02  0.91418898341E+01  0.15189320670E+02  0.20914268749E+02  0.51100000000E-03 0.  1.
        -12    1    3    3    0    0  0.45858645495E+01  0.82155404955E+01  0.69009015319E+00  0.94340597687E+01  0.00000000000E+00 0.  1.
</event>
<event>
 7    1  0.4836188E-013  0.5052886E+02  0.7816164E-02  0.1300439E+00
        -11   -1    0    0    0    0  0.00000000000E+00  0.00000000000E+00  0.45593999997E+02  0.45594000000E+02  0.51100000000E-03 0.  1.
         11   -1    0    0    0    0 -0.00000000000E+00 -0.00000000000E+00 -0.45593999997E+02  0.45594000000E+02  0.51100000000E-03 0. -1.
    9900012    2    1    2    0    0 -0.12484994361E+01 -0.15788469614E+02  0.37447714111E+02  0.50528858153E+02  0.29999994841E+02 0.  0.
         12    1    1    2    0    0  0.12484994361E+01  0.15788469614E+02 -0.37447714111E+02  0.40659141847E+02  0.00000000000E+00 0. -1.
         11    1    3    3    0    0  0.37666998736E+01 -0.92155160241E+01  0.15643165955E+02  0.18542448729E+02  0.51100000000E-03 0. -1.
        -11    1    3    3    0    0 -0.75631019930E+01 -0.13567263529E+02  0.17452307177E+02  0.23363522369E+02  0.51100000000E-03 0.  1.
         12    1    3    3    0    0  0.25479026833E+01  0.69943099393E+01  0.43522409794E+01  0.86228870544E+01  0.00000000000E+00 0. -1.
</event>
<event>
 7    1  0.4836188E-013  0.5052890E+02  0.7816164E-02  0.1300439E+00
        -11   -1    0    0    0    0  0.00000000000E+00  0.00000000000E+00  0.45593999997E+02  0.45594000000E+02  0.51100000000E-03 0.  1.
         11   -1    0    0    0    0 -0.00000000000E+00 -0.00000000000E+00 -0.45593999997E+02  0.45594000000E+02  0.51100000000E-03 0. -1.
    9900012    2    1    2    0    0 -0.20396965501E+02 -0.12596509753E+02  0.32839829593E+02  0.50528896871E+02  0.30000112528E+02 0.  0.
         12    1    1    2    0    0  0.20396965501E+02  0.12596509753E+02 -0.32839829593E+02  0.40659103129E+02  0.00000000000E+00 0. -1.
         11    1    3    3    0    0 -0.26047635527E+00  0.29481090169E+00 -0.26426880349E+01  0.26718086964E+01  0.51100000000E-03 0. -1.
        -11    1    3    3    0    0 -0.43825408887E+01  0.58983176537E+01  0.10821750311E+02  0.13080791102E+02  0.51100000000E-03 0.  1.
        -12    1    3    3    0    0 -0.15753948257E+02 -0.18789638309E+02  0.24660767316E+02  0.34776297072E+02  0.00000000000E+00 0.  1.
</event>
<event>
 7    1  0.4836188E-013  0.5052885E+02  0.7816164E-02  0.1300439E+00
        -11   -1    0    0    0    0  0.00000000000E+00  0.00000000000E+00  0.45593999997E+02  0.45594000000E+02  0.51100000000E-03 0.  1.
         11   -1    0    0    0    0 -0.00000000000E+00 -0.00000000000E+00 -0.45593999997E+02  0.45594000000E+02  0.51100000000E-03 0. -1.
    9900012    2    1    2    0    0 -0.15700945166E+02  0.28263068268E+02  0.24654523614E+02  0.50528852915E+02  0.29999978921E+02 0.  0.
         12    1    1    2    0    0  0.15700945166E+02 -0.28263068268E+02 -0.24654523614E+02  0.40659147085E+02  0.00000000000E+00 0. -1.
         11    1    3    3    0    0 -0.33079626641E+01  0.14992028715E+01 -0.53433120420E+01  0.64607437711E+01  0.51100000000E-03 0. -1.
        -11    1    3    3    0    0  0.49368924034E+00  0.66494965343E+01  0.13437808257E+02  0.15001140765E+02  0.51100000000E-03 0.  1.
        -12    1    3    3    0    0 -0.12886671742E+02  0.20114368862E+02  0.16560027399E+02  0.29066968379E+02  0.00000000000E+00 0.  1.
</event>
<event>
 7    1  0.4836188E-013  0.5052887E+02  0.7816164E-02  0.1300439E+00
        -11   -1    0    0    0    0  0.00000000000E+00  0.00000000000E+00  0.45593999997E+02  0.45594000000E+02  0.51100000000E-03 0.  1.
         11   -1    0    0    0    0 -0.00000000000E+00 -0.00000000000E+00 -0.45593999997E+02  0.45594000000E+02  0.51100000000E-03 0. -1.
    9900012    2    1    2    0    0  0.16095128163E+01 -0.38946223530E+02 -0.11565734644E+02  0.50528867242E+02  0.30000022468E+02 0.  0.
         12    1    1    2    0    0 -0.16095128163E+01  0.38946223530E+02  0.11565734644E+02  0.40659132758E+02  0.00000000000E+00 0. -1.
         11    1    3    3    0    0  0.18936704810E+01 -0.31777570209E+02 -0.30216257613E+01  0.31977025796E+02  0.51100000000E-03 0. -1.
        -11    1    3    3    0    0 -0.31347453674E+01 -0.34544547552E+01  0.33674038413E+01  0.57531986812E+01  0.51100000000E-03 0.  1.
         12    1    3    3    0    0  0.28505877028E+01 -0.37141985663E+01 -0.11911512724E+02  0.12798642764E+02  0.00000000000E+00 0. -1.
</event>
<event>
 7    1  0.4836188E-013  0.5052886E+02  0.7816164E-02  0.1300439E+00
        -11   -1    0    0    0    0  0.00000000000E+00  0.00000000000E+00  0.45593999997E+02  0.45594000000E+02  0.51100000000E-03 0. -1.
         11   -1    0    0    0    0 -0.00000000000E+00 -0.00000000000E+00 -0.45593999997E+02  0.45594000000E+02  0.51100000000E-03 0.  1.
    9900012    2    1    2    0    0 -0.80258624552E+01  0.39120754288E+02  0.76366255612E+01  0.50528856696E+02  0.29999990415E+02 0.  0.
         12    1    1    2    0    0  0.80258624552E+01 -0.39120754288E+02 -0.76366255612E+01  0.40659143304E+02  0.00000000000E+00 0. -1.
         11    1    3    3    0    0 -0.41513119111E+01  0.26350036791E+01 -0.60990538046E+00  0.49546563763E+01  0.51100000000E-03 0. -1.
        -11    1    3    3    0    0 -0.18185284714E+01  0.33116024433E+02 -0.33400211322E+01  0.33333674587E+02  0.51100000000E-03 0.  1.
         12    1    3    3    0    0 -0.20560220726E+01  0.33697261758E+01  0.11586552074E+02  0.12240525733E+02  0.00000000000E+00 0. -1.
</event>
<event>
 7    1  0.6719941E-013  0.5052885E+02  0.7816164E-02  0.1300439E+00
        -11   -1    0    0    0    0  0.00000000000E+00  0.00000000000E+00  0.45593999997E+02  0.45594000000E+02  0.51100000000E-03 0. -1.
         11   -1    0    0    0    0 -0.00000000000E+00 -0.00000000000E+00 -0.45593999997E+02  0.45594000000E+02  0.51100000000E-03 0.  1.
    9900012    2    1    2    0    0  0.39477615970E+02  0.97305900258E+01 -0.18271214205E-01  0.50528845081E+02  0.29999955108E+02 0.  0.
         12    1    1    2    0    0 -0.39477615970E+02 -0.97305900258E+01  0.18271214205E-01  0.40659154919E+02  0.00000000000E+00 0. -1.
         11    1    3    3    0    0  0.14026696048E+02  0.10721188072E+02 -0.21238070632E+01  0.17782087403E+02  0.51100000000E-03 0. -1.
        -11    1    3    3    0    0  0.25257006824E+02  0.52172062641E+01  0.43268151188E+01  0.26150658964E+02  0.51100000000E-03 0.  1.
         12    1    3    3    0    0  0.19391309769E+00 -0.62078043106E+01 -0.22212792699E+01  0.65960987139E+01  0.00000000000E+00 0. -1.
</event>
<event>
 7    1  0.4836188E-013  0.5052886E+02  0.7816164E-02  0.1300439E+00
        -11   -1    0    0    0    0  0.00000000000E+00  0.00000000000E+00  0.45593999997E+02  0.45594000000E+02  0.51100000000E-03 0.  1.
         11   -1    0    0    0    0 -0.00000000000E+00 -0.00000000000E+00 -0.45593999997E+02  0.45594000000E+02  0.51100000000E-03 0. -1.
    9900012    2    1    2    0    0  0.29930473121E+02 -0.97928401535E+01  0.25718336257E+02  0.50528858846E+02  0.29999996949E+02 0.  0.
         12    1    1    2    0    0 -0.29930473121E+02  0.97928401535E+01 -0.25718336257E+02  0.40659141154E+02  0.00000000000E+00 0. -1.
         11    1    3    3    0    0 -0.10247469854E+01 -0.40902702687E+01  0.44492755397E+01  0.61299649546E+01  0.51100000000E-03 0. -1.
        -11    1    3    3    0    0  0.22303208113E+02 -0.13818608601E+02  0.10126182214E+02  0.28123417329E+02  0.51100000000E-03 0.  1.
         12    1    3    3    0    0  0.86520119939E+01  0.81160387165E+01  0.11142878504E+02  0.16275476562E+02  0.00000000000E+00 0. -1.
</event>
<event>
 7    1  0.4836188E-013  0.5052887E+02  0.7816164E-02  0.1300439E+00
        -11   -1    0    0    0    0  0.00000000000E+00  0.00000000000E+00  0.45593999997E+02  0.45594000000E+02  0.51100000000E-03 0.  1.
         11   -1    0    0    0    0 -0.00000000000E+00 -0.00000000000E+00 -0.45593999997E+02  0.45594000000E+02  0.51100000000E-03 0. -1.
    9900012    2    1    2    0    0  0.13974700929E+02  0.73217965801E+01  0.37473508128E+02  0.50528870858E+02  0.30000033459E+02 0.  0.
         12    1    1    2    0    0 -0.13974700929E+02 -0.73217965801E+01 -0.37473508128E+02  0.40659129142E+02  0.00000000000E+00 0. -1.
         11    1    3    3    0    0  0.67413641067E+00 -0.71156965706E+00 -0.27250624483E+01  0.28959897937E+01  0.51100000000E-03 0. -1.
        -11    1    3    3    0    0  0.13963422146E+02 -0.25765836278E+01  0.17254955800E+02  0.22346128102E+02  0.51100000000E-03 0.  1.
         12    1    3    3    0    0 -0.66285762775E+00  0.10609949865E+02  0.22943614776E+02  0.25286752962E+02  0.00000000000E+00 0. -1.
</event>
<event>
 7    1  0.4836188E-013  0.5052886E+02  0.7816164E-02  0.1300439E+00
        -11   -1    0    0    0    0  0.00000000000E+00  0.00000000000E+00  0.45593999997E+02  0.45594000000E+02  0.51100000000E-03 0.  1.
         11   -1    0    0    0    0 -0.00000000000E+00 -0.00000000000E+00 -0.45593999997E+02  0.45594000000E+02  0.51100000000E-03 0. -1.
    9900012    2    1    2    0    0  0.27974389679E+02 -0.29024969508E+02 -0.53056537607E+01  0.50528864561E+02  0.30000014320E+02 0.  0.
         12    1    1    2    0    0 -0.27974389679E+02  0.29024969508E+02  0.53056537607E+01  0.40659135439E+02  0.00000000000E+00 0. -1.
         11    1    3    3    0    0  0.10155840554E+02 -0.43627213079E+01 -0.10285925237E+02  0.15098830842E+02  0.51100000000E-03 0. -1.
        -11    1    3    3    0    0  0.89008029943E+01 -0.19711148412E+02 -0.38152139361E+01  0.21961546469E+02  0.51100000000E-03 0.  1.
        -12    1    3    3    0    0  0.89177461307E+01 -0.49510997875E+01  0.87954854122E+01  0.13468487250E+02  0.00000000000E+00 0.  1.
</event>
<event>
 7    1  0.4836188E-013  0.5052886E+02  0.7816164E-02  0.1300439E+00
        -11   -1    0    0    0    0  0.00000000000E+00  0.00000000000E+00  0.45593999997E+02  0.45594000000E+02  0.51100000000E-03 0.  1.
         11   -1    0    0    0    0 -0.00000000000E+00 -0.00000000000E+00 -0.45593999997E+02  0.45594000000E+02  0.51100000000E-03 0. -1.
    9900012    2    1    2    0    0 -0.29646927040E+02 -0.22669647829E+02  0.16134196774E+02  0.50528861775E+02  0.30000005853E+02 0.  0.
         12    1    1    2    0    0  0.29646927040E+02  0.22669647829E+02 -0.16134196774E+02  0.40659138225E+02  0.00000000000E+00 0. -1.
         11    1    3    3    0    0 -0.66529352100E+01 -0.34909984131E+01  0.12504087853E+02  0.14587694476E+02  0.51100000000E-03 0. -1.
        -11    1    3    3    0    0 -0.19821877119E+02 -0.96413173047E+01  0.98267108755E+01  0.24133504901E+02  0.51100000000E-03 0.  1.
         12    1    3    3    0    0 -0.31721147106E+01 -0.95373321115E+01 -0.61966019544E+01  0.11807662399E+02  0.00000000000E+00 0. -1.
</event>
<event>
 7    1  0.4836188E-013  0.5052891E+02  0.7816164E-02  0.1300439E+00
        -11   -1    0    0    0    0  0.00000000000E+00  0.00000000000E+00  0.45593999997E+02  0.45594000000E+02  0.51100000000E-03 0. -1.
         11   -1    0    0    0    0 -0.00000000000E+00 -0.00000000000E+00 -0.45593999997E+02  0.45594000000E+02  0.51100000000E-03 0.  1.
    9900012    2    1    2    0    0  0.23085091978E+02  0.27010370904E+02 -0.19765635536E+02  0.50528905616E+02  0.30000139111E+02 0.  0.
         12    1    1    2    0    0 -0.23085091978E+02 -0.27010370904E+02  0.19765635536E+02  0.40659094384E+02  0.00000000000E+00 0. -1.
         11    1    3    3    0    0  0.18537660322E+02  0.21544279936E+02 -0.13298762824E+02  0.31379259728E+02  0.51100000000E-03 0. -1.
        -11    1    3    3    0    0  0.22503723063E+01  0.38038201575E+01 -0.12078858087E+02  0.12862038573E+02  0.51100000000E-03 0.  1.
         12    1    3    3    0    0  0.22970593497E+01  0.16622708095E+01  0.56119853749E+01  0.62876073151E+01  0.00000000000E+00 0. -1.
</event>
<event>
 7    1  0.4836188E-013  0.5052886E+02  0.7816164E-02  0.1300439E+00
        -11   -1    0    0    0    0  0.00000000000E+00  0.00000000000E+00  0.45593999997E+02  0.45594000000E+02  0.51100000000E-03 0.  1.
         11   -1    0    0    0    0 -0.00000000000E+00 -0.00000000000E+00 -0.45593999997E+02  0.45594000000E+02  0.51100000000E-03 0. -1.
    9900012    2    1    2    0    0 -0.21363632119E+02 -0.14495945553E+02  0.31410648001E+02  0.50528855609E+02  0.29999987109E+02 0.  0.
         12    1    1    2    0    0  0.21363632119E+02  0.14495945553E+02 -0.31410648001E+02  0.40659144391E+02  0.00000000000E+00 0. -1.
         11    1    3    3    0    0 -0.52428771772E+01  0.29848876283E+01 -0.41742640465E+00  0.60474424605E+01  0.51100000000E-03 0. -1.
        -11    1    3    3    0    0 -0.20648867137E+02 -0.12369634298E+02  0.22735103479E+02  0.33109945593E+02  0.51100000000E-03 0.  1.
        -12    1    3    3    0    0  0.45281121959E+01 -0.51111988835E+01  0.90929709273E+01  0.11371467556E+02  0.00000000000E+00 0.  1.
</event>
<event>
 7    1  0.4836188E-013  0.5052886E+02  0.7816164E-02  0.1300439E+00
        -11   -1    0    0    0    0  0.00000000000E+00  0.00000000000E+00  0.45593999997E+02  0.45594000000E+02  0.51100000000E-03 0. -1.
         11   -1    0    0    0    0 -0.00000000000E+00 -0.00000000000E+00 -0.45593999997E+02  0.45594000000E+02  0.51100000000E-03 0.  1.
    9900012    2    1    2    0    0  0.24025875104E+02 -0.14031269363E+01 -0.32771238458E+02  0.50528861915E+02  0.30000006278E+02 0.  0.
         12    1    1    2    0    0 -0.24025875104E+02  0.14031269363E+01  0.32771238458E+02  0.40659138085E+02  0.00000000000E+00 0. -1.
         11    1    3    3    0    0 -0.16984752917E+01 -0.19150320208E+01 -0.12461415930E+02  0.12721597902E+02  0.51100000000E-03 0. -1.
        -11    1    3    3    0    0  0.13797675117E+02  0.94198628528E+01 -0.13295379801E+02  0.21351271136E+02  0.51100000000E-03 0.  1.
         12    1    3    3    0    0  0.11926675278E+02 -0.89079577683E+01 -0.70144427280E+01  0.16455992877E+02  0.00000000000E+00 0. -1.
</event>
<event>
 7    1  0.4836188E-013  0.5052886E+02  0.7816164E-02  0.1300439E+00
        -11   -1    0    0    0    0  0.00000000000E+00  0.00000000000E+00  0.45593999997E+02  0.45594000000E+02  0.51100000000E-03 0. -1.
         11   -1    0    0    0    0 -0.00000000000E+00 -0.00000000000E+00 -0.45593999997E+02  0.45594000000E+02  0.51100000000E-03 0.  1.
    9900012    2    1    2    0    0 -0.10082065406E+02 -0.15362237994E+02 -0.36270083367E+02  0.50528863924E+02  0.30000012382E+02 0.  0.
         12    1    1    2    0    0  0.10082065406E+02  0.15362237994E+02  0.36270083367E+02  0.40659136076E+02  0.00000000000E+00 0. -1.
         11    1    3    3    0    0  0.34112528804E+01  0.27846352434E+01 -0.44967564789E+00  0.44264035178E+01  0.51100000000E-03 0. -1.
        -11    1    3    3    0    0 -0.54266203627E+01 -0.40878562255E+01 -0.26601347748E+02  0.27455245025E+02  0.51100000000E-03 0.  1.
         12    1    3    3    0    0 -0.80666979232E+01 -0.14059017012E+02 -0.92190599711E+01  0.18647215381E+02  0.00000000000E+00 0. -1.
</event>
<event>
 7    1  0.4836188E-013  0.5052886E+02  0.7816164E-02  0.1300439E+00
        -11   -1    0    0    0    0  0.00000000000E+00  0.00000000000E+00  0.45593999997E+02  0.45594000000E+02  0.51100000000E-03 0.  1.
         11   -1    0    0    0    0 -0.00000000000E+00 -0.00000000000E+00 -0.45593999997E+02  0.45594000000E+02  0.51100000000E-03 0. -1.
    9900012    2    1    2    0    0 -0.22983546019E+02 -0.17008380492E+02  0.28907388393E+02  0.50528862057E+02  0.30000006708E+02 0.  0.
         12    1    1    2    0    0  0.22983546019E+02  0.17008380492E+02 -0.28907388393E+02  0.40659137943E+02  0.00000000000E+00 0. -1.
         11    1    3    3    0    0 -0.19054350313E+02 -0.21018069420E+01  0.71558314700E+01  0.20461959402E+02  0.51100000000E-03 0. -1.
        -11    1    3    3    0    0 -0.44671693310E+01 -0.77157417993E+01  0.21360034829E+01  0.91679214921E+01  0.51100000000E-03 0.  1.
         12    1    3    3    0    0  0.53797362495E+00 -0.71908317502E+01  0.19615553440E+02  0.20898981163E+02  0.00000000000E+00 0. -1.
</event>
<event>
 7    1  0.4836188E-013  0.5052887E+02  0.7816164E-02  0.1300439E+00
        -11   -1    0    0    0    0  0.00000000000E+00  0.00000000000E+00  0.45593999997E+02  0.45594000000E+02  0.51100000000E-03 0.  1.
         11   -1    0    0    0    0 -0.00000000000E+00 -0.00000000000E+00 -0.45593999997E+02  0.45594000000E+02  0.51100000000E-03 0. -1.
    9900012    2    1    2    0    0  0.15704991643E+02  0.31815833570E+00  0.37502226075E+02  0.50528868826E+02  0.30000027283E+02 0.  0.
         12    1    1    2    0    0 -0.15704991643E+02 -0.31815833570E+00 -0.37502226075E+02  0.40659131174E+02  0.00000000000E+00 0. -1.
         11    1    3    3    0    0 -0.13426291120E+01 -0.69350626338E+01  0.14025179475E+02  0.15703611248E+02  0.51100000000E-03 0. -1.
        -11    1    3    3    0    0 -0.13146466930E+01  0.43171572271E+01  0.12364515414E+02  0.13162347212E+02  0.51100000000E-03 0.  1.
         12    1    3    3    0    0  0.18362267448E+02  0.29360637423E+01  0.11112531186E+02  0.21662910366E+02  0.00000000000E+00 0. -1.
</event>
<event>
 7    1  0.4836188E-013  0.5052886E+02  0.7816164E-02  0.1300439E+00
        -11   -1    0    0    0    0  0.00000000000E+00  0.00000000000E+00  0.45593999997E+02  0.45594000000E+02  0.51100000000E-03 0.  1.
         11   -1    0    0    0    0 -0.00000000000E+00 -0.00000000000E+00 -0.45593999997E+02  0.45594000000E+02  0.51100000000E-03 0. -1.
    9900012    2    1    2    0    0 -0.17424041507E+02  0.31700035641E+02  0.18565456290E+02  0.50528860200E+02  0.30000001063E+02 0.  0.
         12    1    1    2    0    0  0.17424041507E+02 -0.31700035641E+02 -0.18565456290E+02  0.40659139800E+02  0.00000000000E+00 0. -1.
         11    1    3    3    0    0 -0.14251052951E+02  0.15364164688E+02  0.15684106190E+01  0.21014518288E+02  0.51100000000E-03 0. -1.
        -11    1    3    3    0    0 -0.90720109664E+01  0.30803235235E+01  0.75882862018E+01  0.12221778255E+02  0.51100000000E-03 0.  1.
         12    1    3    3    0    0  0.58990224101E+01  0.13255547429E+02  0.94087594689E+01  0.17292563656E+02  0.00000000000E+00 0. -1.
</event>
<event>
 7    1  0.4836188E-013  0.5052886E+02  0.7816164E-02  0.1300439E+00
        -11   -1    0    0    0    0  0.00000000000E+00  0.00000000000E+00  0.45593999997E+02  0.45594000000E+02  0.51100000000E-03 0. -1.
         11   -1    0    0    0    0 -0.00000000000E+00 -0.00000000000E+00 -0.45593999997E+02  0.45594000000E+02  0.51100000000E-03 0.  1.
    9900012    2    1    2    0    0  0.33936230128E+02 -0.13077324093E+02 -0.18179152804E+02  0.50528859362E+02  0.29999998517E+02 0.  0.
         12    1    1    2    0    0 -0.33936230128E+02  0.13077324093E+02  0.18179152804E+02  0.40659140638E+02  0.00000000000E+00 0. -1.
         11    1    3    3    0    0  0.35927003240E+01  0.50849818893E+01 -0.57161432058E+01  0.84521494215E+01  0.51100000000E-03 0.  1.
        -11    1    3    3    0    0  0.12203460750E+02 -0.86173735854E+01  0.43562636254E+01  0.15561510685E+02  0.51100000000E-03 0. -1.
        -12    1    3    3    0    0  0.18140069055E+02 -0.95449323970E+01 -0.16819273223E+02  0.26515199255E+02  0.00000000000E+00 0.  1.
</event>
<event>
 7    1  0.4836188E-013  0.5052886E+02  0.7816164E-02  0.1300439E+00
        -11   -1    0    0    0    0  0.00000000000E+00  0.00000000000E+00  0.45593999997E+02  0.45594000000E+02  0.51100000000E-03 0.  1.
         11   -1    0    0    0    0 -0.00000000000E+00 -0.00000000000E+00 -0.45593999997E+02  0.45594000000E+02  0.51100000000E-03 0. -1.
    9900012    2    1    2    0    0  0.26937943744E+02  0.30343027059E+02  0.26102463212E+01  0.50528862157E+02  0.30000007014E+02 0.  0.
         12    1    1    2    0    0 -0.26937943744E+02 -0.30343027059E+02 -0.26102463212E+01  0.40659137843E+02  0.00000000000E+00 0. -1.
         11    1    3    3    0    0  0.21216758876E+02  0.21109225816E+02  0.76550730133E+01  0.30892562452E+02  0.51100000000E-03 0. -1.
        -11    1    3    3    0    0  0.23113918433E+01  0.11975784517E+02  0.92823285879E+00  0.12232071107E+02  0.51100000000E-03 0.  1.
         12    1    3    3    0    0  0.34097930239E+01 -0.27419832741E+01 -0.59730595509E+01  0.74042285986E+01  0.00000000000E+00 0. -1.
</event>
<event>
 7    1  0.4836188E-013  0.5052887E+02  0.7816164E-02  0.1300439E+00
        -11   -1    0    0    0    0  0.00000000000E+00  0.00000000000E+00  0.45593999997E+02  0.45594000000E+02  0.51100000000E-03 0.  1.
         11   -1    0    0    0    0 -0.00000000000E+00 -0.00000000000E+00 -0.45593999997E+02  0.45594000000E+02  0.51100000000E-03 0. -1.
    9900012    2    1    2    0    0  0.60349109560E+01 -0.39005671628E+02  0.97623027942E+01  0.50528866644E+02  0.30000020651E+02 0.  0.
         12    1    1    2    0    0 -0.60349109560E+01  0.39005671628E+02 -0.97623027942E+01  0.40659133356E+02  0.00000000000E+00 0. -1.
         11    1    3    3    0    0 -0.34756628687E+01 -0.12256777576E+02 -0.45860051263E+00  0.12748299636E+02  0.51100000000E-03 0. -1.
        -11    1    3    3    0    0  0.11075866905E+02 -0.19184058004E+02  0.16665081528E+02  0.27720531232E+02  0.51100000000E-03 0.  1.
         12    1    3    3    0    0 -0.15652930804E+01 -0.75648360489E+01 -0.64441782210E+01  0.10060035776E+02  0.00000000000E+00 0. -1.
</event>
<event>
 7    1  0.4836188E-013  0.5052886E+02  0.7816164E-02  0.1300439E+00
        -11   -1    0    0    0    0  0.00000000000E+00  0.00000000000E+00  0.45593999997E+02  0.45594000000E+02  0.51100000000E-03 0.  1.
         11   -1    0    0    0    0 -0.00000000000E+00 -0.00000000000E+00 -0.45593999997E+02  0.45594000000E+02  0.51100000000E-03 0. -1.
    9900012    2    1    2    0    0  0.20257823044E+02 -0.23284855855E+02  0.26468881527E+02  0.50528860855E+02  0.30000003055E+02 0.  0.
         12    1    1    2    0    0 -0.20257823044E+02  0.23284855855E+02 -0.26468881527E+02  0.40659139145E+02  0.00000000000E+00 0. -1.
         11    1    3    3    0    0  0.86940587596E+00 -0.77428770948E+01  0.12748839084E+02  0.14941248627E+02  0.51100000000E-03 0. -1.
        -11    1    3    3    0    0  0.10876795003E+02 -0.18482701859E+02  0.31081100133E+01  0.21669685869E+02  0.51100000000E-03 0.  1.
         12    1    3    3    0    0  0.85116221654E+01  0.29407230987E+01  0.10611932430E+02  0.13917926358E+02  0.00000000000E+00 0. -1.
</event>
<event>
 7    1  0.4836188E-013  0.5052885E+02  0.7816164E-02  0.1300439E+00
        -11   -1    0    0    0    0  0.00000000000E+00  0.00000000000E+00  0.45593999997E+02  0.45594000000E+02  0.51100000000E-03 0. -1.
         11   -1    0    0    0    0 -0.00000000000E+00 -0.00000000000E+00 -0.45593999997E+02  0.45594000000E+02  0.51100000000E-03 0.  1.
    9900012    2    1    2    0    0 -0.39007709283E+02  0.11445447796E+02 -0.75294180687E+00  0.50528848753E+02  0.29999966271E+02 0.  0.
         12    1    1    2    0    0  0.39007709283E+02 -0.11445447796E+02  0.75294180687E+00  0.40659151247E+02  0.00000000000E+00 0. -1.
         11    1    3    3    0    0 -0.18556461349E+02 -0.38618239971E+01 -0.50291955652E+01  0.19609914601E+02  0.51100000000E-03 0. -1.
        -11    1    3    3    0    0 -0.17740865278E+02  0.45966577495E+01  0.68670512189E+01  0.19570997828E+02  0.51100000000E-03 0.  1.
         12    1    3    3    0    0 -0.27103826557E+01  0.10710614043E+02 -0.25907974605E+01  0.11347936324E+02  0.00000000000E+00 0. -1.
</event>
<event>
 7    1  0.4836188E-013  0.5052886E+02  0.7816164E-02  0.1300439E+00
        -11   -1    0    0    0    0  0.00000000000E+00  0.00000000000E+00  0.45593999997E+02  0.45594000000E+02  0.51100000000E-03 0.  1.
         11   -1    0    0    0    0 -0.00000000000E+00 -0.00000000000E+00 -0.45593999997E+02  0.45594000000E+02  0.51100000000E-03 0. -1.
    9900012    2    1    2    0    0  0.14756903657E+02  0.61824727142E+01  0.37378824730E+02  0.50528859422E+02  0.29999998698E+02 0.  0.
         12    1    1    2    0    0 -0.14756903657E+02 -0.61824727142E+01 -0.37378824730E+02  0.40659140578E+02  0.00000000000E+00 0. -1.
         11    1    3    3    0    0  0.62796472112E+01 -0.81810592951E+01  0.23526343216E+01  0.10578212930E+02  0.51100000000E-03 0. -1.
        -11    1    3    3    0    0  0.18351620213E+01  0.15933835197E+00  0.11698768143E+02  0.11842904402E+02  0.51100000000E-03 0.  1.
        -12    1    3    3    0    0  0.66420944242E+01  0.14204193657E+02  0.23327422265E+02  0.28107742089E+02  0.00000000000E+00 0.  1.
</event>
<event>
 7    1  0.4836188E-013  0.5052886E+02  0.7816164E-02  0.1300439E+00
        -11   -1    0    0    0    0  0.00000000000E+00  0.00000000000E+00  0.45593999997E+02  0.45594000000E+02  0.51100000000E-03 0.  1.
         11   -1    0    0    0    0 -0.00000000000E+00 -0.00000000000E+00 -0.45593999997E+02  0.45594000000E+02  0.51100000000E-03 0. -1.
    9900012    2    1    2    0    0 -0.40657584282E+02 -0.24470548896E+00  0.25771580308E+00  0.50528862554E+02  0.30000008219E+02 0.  0.
         12    1    1    2    0    0  0.40657584282E+02  0.24470548896E+00 -0.25771580308E+00  0.40659137446E+02  0.00000000000E+00 0. -1.
         11    1    3    3    0    0 -0.34395512614E+01 -0.48898848004E+01 -0.19961423668E+01  0.63028621157E+01  0.51100000000E-03 0. -1.
        -11    1    3    3    0    0 -0.36078370737E+02  0.39319790097E+00 -0.42948801980E+01  0.36335236835E+02  0.51100000000E-03 0.  1.
        -12    1    3    3    0    0 -0.11396622834E+01  0.42519814104E+01  0.65487383679E+01  0.78907636035E+01  0.00000000000E+00 0.  1.
</event>
<event>
 7    1  0.4836188E-013  0.5052885E+02  0.7816164E-02  0.1300439E+00
        -11   -1    0    0    0    0  0.00000000000E+00  0.00000000000E+00  0.45593999997E+02  0.45594000000E+02  0.51100000000E-03 0.  1.
         11   -1    0    0    0    0 -0.00000000000E+00 -0.00000000000E+00 -0.45593999997E+02  0.45594000000E+02  0.51100000000E-03 0. -1.
    9900012    2    1    2    0    0  0.29471483156E+02  0.20959869122E+02  0.18581761704E+02  0.50528852185E+02  0.29999976702E+02 0.  0.
         12    1    1    2    0    0 -0.29471483156E+02 -0.20959869122E+02 -0.18581761704E+02  0.40659147815E+02  0.00000000000E+00 0. -1.
         11    1    3    3    0    0  0.33728356024E+01 -0.71341987743E+00 -0.52277740906E+01  0.62621569867E+01  0.51100000000E-03 0. -1.
        -11    1    3    3    0    0  0.99728201408E+01  0.13640227140E+02  0.37570188110E+01  0.17309769744E+02  0.51100000000E-03 0.  1.
        -12    1    3    3    0    0  0.16125827412E+02  0.80330618596E+01  0.20052516984E+02  0.26956925455E+02  0.00000000000E+00 0.  1.
</event>
<event>
 7    1  0.4836188E-013  0.5052884E+02  0.7816164E-02  0.1300439E+00
        -11   -1    0    0    0    0  0.00000000000E+00  0.00000000000E+00  0.45593999997E+02  0.45594000000E+02  0.51100000000E-03 0.  1.
         11   -1    0    0    0    0 -0.00000000000E+00 -0.00000000000E+00 -0.45593999997E+02  0.45594000000E+02  0.51100000000E-03 0. -1.
    9900012    2    1    2    0    0  0.24449350795E+02 -0.11862504827E+02  0.30243634348E+02  0.50528841208E+02  0.29999943336E+02 0.  0.
         12    1    1    2    0    0 -0.24449350795E+02  0.11862504827E+02 -0.30243634348E+02  0.40659158792E+02  0.00000000000E+00 0. -1.
         11    1    3    3    0    0  0.14122566044E+02 -0.21846526012E+01  0.51474632502E+01  0.15189336945E+02  0.51100000000E-03 0. -1.
        -11    1    3    3    0    0  0.12284843390E+02 -0.79287657394E+00  0.50136941986E+01  0.13292221791E+02  0.51100000000E-03 0.  1.
        -12    1    3    3    0    0 -0.19580586389E+01 -0.88849756524E+01  0.20082476899E+02  0.22047282471E+02  0.00000000000E+00 0.  1.
</event>
<event>
 7    1  0.4836188E-013  0.5052887E+02  0.7816164E-02  0.1300439E+00
        -11   -1    0    0    0    0  0.00000000000E+00  0.00000000000E+00  0.45593999997E+02  0.45594000000E+02  0.51100000000E-03 0. -1.
         11   -1    0    0    0    0 -0.00000000000E+00 -0.00000000000E+00 -0.45593999997E+02  0.45594000000E+02  0.51100000000E-03 0.  1.
    9900012    2    1    2    0    0  0.54847171193E+01  0.16800158577E+02 -0.36617446593E+02  0.50528870090E+02  0.30000031125E+02 0.  0.
         12    1    1    2    0    0 -0.54847171193E+01 -0.16800158577E+02  0.36617446593E+02  0.40659129910E+02  0.00000000000E+00 0. -1.
         11    1    3    3    0    0 -0.41445437728E+01  0.34536696358E+00 -0.50864772236E+01  0.65702946837E+01  0.51100000000E-03 0. -1.
        -11    1    3    3    0    0  0.14511946633E+02  0.16782265421E+02 -0.32111483710E+02  0.39030608682E+02  0.51100000000E-03 0.  1.
         12    1    3    3    0    0 -0.48826857409E+01 -0.32747380813E+00  0.58051434073E+00  0.49279667246E+01  0.00000000000E+00 0. -1.
</event>
<event>
 7    1  0.4836188E-013  0.5052886E+02  0.7816164E-02  0.1300439E+00
        -11   -1    0    0    0    0  0.00000000000E+00  0.00000000000E+00  0.45593999997E+02  0.45594000000E+02  0.51100000000E-03 0.  1.
         11   -1    0    0    0    0 -0.00000000000E+00 -0.00000000000E+00 -0.45593999997E+02  0.45594000000E+02  0.51100000000E-03 0. -1.
    9900012    2    1    2    0    0  0.14976533764E+02  0.17613952904E+02  0.33445746585E+02  0.50528857546E+02  0.29999992998E+02 0.  0.
         12    1    1    2    0    0 -0.14976533764E+02 -0.17613952904E+02 -0.33445746585E+02  0.40659142454E+02  0.00000000000E+00 0. -1.
         11    1    3    3    0    0  0.15221015505E+02  0.93897596310E+01  0.69182287940E+01  0.19175734375E+02  0.51100000000E-03 0. -1.
        -11    1    3    3    0    0  0.17468754897E+01  0.11806409231E+02  0.23137303771E+02  0.26034164073E+02  0.51100000000E-03 0.  1.
        -12    1    3    3    0    0 -0.19913572306E+01 -0.35822159586E+01  0.33902140194E+01  0.53189590985E+01  0.00000000000E+00 0.  1.
</event>
<event>
 7    1  0.4836188E-013  0.5052886E+02  0.7816164E-02  0.1300439E+00
        -11   -1    0    0    0    0  0.00000000000E+00  0.00000000000E+00  0.45593999997E+02  0.45594000000E+02  0.51100000000E-03 0. -1.
         11   -1    0    0    0    0 -0.00000000000E+00 -0.00000000000E+00 -0.45593999997E+02  0.45594000000E+02  0.51100000000E-03 0.  1.
    9900012    2    1    2    0    0 -0.25270766351E+01 -0.15613420411E+02 -0.37456649071E+02  0.50528861140E+02  0.30000003920E+02 0.  0.
         12    1    1    2    0    0  0.25270766351E+01  0.15613420411E+02  0.37456649071E+02  0.40659138860E+02  0.00000000000E+00 0. -1.
         11    1    3    3    0    0 -0.83030625836E+01 -0.50107193016E+00 -0.22883498690E+02  0.24348438018E+02  0.51100000000E-03 0. -1.
        -11    1    3    3    0    0  0.18545025655E+01 -0.10451007680E+02 -0.16649243462E+02  0.19744874003E+02  0.51100000000E-03 0.  1.
         12    1    3    3    0    0  0.39214833830E+01 -0.46613408006E+01  0.20760930806E+01  0.64355491189E+01  0.00000000000E+00 0. -1.
</event>
<event>
 7    1  0.4836188E-013  0.5052885E+02  0.7816164E-02  0.1300439E+00
        -11   -1    0    0    0    0  0.00000000000E+00  0.00000000000E+00  0.45593999997E+02  0.45594000000E+02  0.51100000000E-03 0.  1.
         11   -1    0    0    0    0 -0.00000000000E+00 -0.00000000000E+00 -0.45593999997E+02  0.45594000000E+02  0.51100000000E-03 0. -1.
    9900012    2    1    2    0    0 -0.29471820483E+02  0.11574124872E+02  0.25507212697E+02  0.50528850124E+02  0.29999970436E+02 0.  0.
         12    1    1    2    0    0  0.29471820483E+02 -0.11574124872E+02 -0.25507212697E+02  0.40659149876E+02  0.00000000000E+00 0. -1.
         11    1    3    3    0    0 -0.18907175844E+02  0.68199507193E+01  0.41175367753E+01  0.20516996260E+02  0.51100000000E-03 0. -1.
        -11    1    3    3    0    0 -0.14756365698E+02  0.14936647477E+01  0.19214846976E+02  0.24273271464E+02  0.51100000000E-03 0.  1.
         12    1    3    3    0    0  0.41917210587E+01  0.32605094047E+01  0.21748289456E+01  0.57385823994E+01  0.00000000000E+00 0. -1.
</event>
<event>
 7    1  0.4836188E-013  0.5052887E+02  0.7816164E-02  0.1300439E+00
        -11   -1    0    0    0    0  0.00000000000E+00  0.00000000000E+00  0.45593999997E+02  0.45594000000E+02  0.51100000000E-03 0.  1.
         11   -1    0    0    0    0 -0.00000000000E+00 -0.00000000000E+00 -0.45593999997E+02  0.45594000000E+02  0.51100000000E-03 0. -1.
    9900012    2    1    2    0    0  0.22465340453E+01  0.30134117484E+02  0.27203916092E+02  0.50528868154E+02  0.30000025240E+02 0.  0.
         12    1    1    2    0    0 -0.22465340453E+01 -0.30134117484E+02 -0.27203916092E+02  0.40659131846E+02  0.00000000000E+00 0. -1.
         11    1    3    3    0    0 -0.98528651332E+00  0.11287071155E+02  0.93174522022E+01  0.14669140417E+02  0.51100000000E-03 0.  1.
        -11    1    3    3    0    0 -0.23779372017E+00  0.66877808076E+01 -0.58998425999E+01  0.89213844749E+01  0.51100000000E-03 0. -1.
         12    1    3    3    0    0  0.34696142788E+01  0.12159265522E+02  0.23786306490E+02  0.26938343262E+02  0.00000000000E+00 0. -1.
</event>
<event>
 7    1  0.4836188E-013  0.5052885E+02  0.7816164E-02  0.1300439E+00
        -11   -1    0    0    0    0  0.00000000000E+00  0.00000000000E+00  0.45593999997E+02  0.45594000000E+02  0.51100000000E-03 0.  1.
         11   -1    0    0    0    0 -0.00000000000E+00 -0.00000000000E+00 -0.45593999997E+02  0.45594000000E+02  0.51100000000E-03 0. -1.
    9900012    2    1    2    0    0 -0.18196653707E+02 -0.36356006369E+02 -0.53735540162E+00  0.50528853968E+02  0.29999982120E+02 0.  0.
         12    1    1    2    0    0  0.18196653707E+02  0.36356006369E+02  0.53735540162E+00  0.40659146032E+02  0.00000000000E+00 0. -1.
         11    1    3    3    0    0 -0.28548687209E+01 -0.12053599799E+02 -0.17715658386E+01  0.12513112695E+02  0.51100000000E-03 0. -1.
        -11    1    3    3    0    0 -0.17492659172E+02 -0.27966543657E+02 -0.14004370251E+01  0.33016388554E+02  0.51100000000E-03 0.  1.
         12    1    3    3    0    0  0.21508741860E+01  0.36641370870E+01  0.26346474621E+01  0.49993527187E+01  0.00000000000E+00 0. -1.
</event>
<event>
 7    1  0.4836188E-013  0.5052886E+02  0.7816164E-02  0.1300439E+00
        -11   -1    0    0    0    0  0.00000000000E+00  0.00000000000E+00  0.45593999997E+02  0.45594000000E+02  0.51100000000E-03 0.  1.
         11   -1    0    0    0    0 -0.00000000000E+00 -0.00000000000E+00 -0.45593999997E+02  0.45594000000E+02  0.51100000000E-03 0. -1.
    9900012    2    1    2    0    0  0.36715424726E+02  0.31279343896E+01 -0.17186020882E+02  0.50528859575E+02  0.29999999163E+02 0.  0.
         12    1    1    2    0    0 -0.36715424726E+02 -0.31279343896E+01  0.17186020882E+02  0.40659140425E+02  0.00000000000E+00 0. -1.
         11    1    3    3    0    0  0.38299073085E+01 -0.19674941995E+01  0.25938827061E+01  0.50266739670E+01  0.51100000000E-03 0.  1.
        -11    1    3    3    0    0  0.16568645784E+02  0.12571818960E+02 -0.31528057536E+01  0.21035941611E+02  0.51100000000E-03 0. -1.
        -12    1    3    3    0    0  0.16316871634E+02 -0.74763903711E+01 -0.16627097835E+02  0.24466243997E+02  0.00000000000E+00 0.  1.
</event>
<event>
 7    1  0.4836188E-013  0.5052886E+02  0.7816164E-02  0.1300439E+00
        -11   -1    0    0    0    0  0.00000000000E+00  0.00000000000E+00  0.45593999997E+02  0.45594000000E+02  0.51100000000E-03 0. -1.
         11   -1    0    0    0    0 -0.00000000000E+00 -0.00000000000E+00 -0.45593999997E+02  0.45594000000E+02  0.51100000000E-03 0.  1.
    9900012    2    1    2    0    0  0.33988085336E+02  0.20098090994E+02 -0.96975330523E+01  0.50528863834E+02  0.30000012111E+02 0.  0.
         12    1    1    2    0    0 -0.33988085336E+02 -0.20098090994E+02  0.96975330523E+01  0.40659136166E+02  0.00000000000E+00 0. -1.
         11    1    3    3    0    0  0.25539540300E+01 -0.30399342820E+01 -0.45112338518E+01  0.60095850733E+01  0.51100000000E-03 0. -1.
        -11    1    3    3    0    0  0.19062783380E+02  0.84254983950E+01 -0.12090005610E+02  0.24094542314E+02  0.51100000000E-03 0.  1.
         12    1    3    3    0    0  0.12371347926E+02  0.14712526881E+02  0.69037064098E+01  0.20424736447E+02  0.00000000000E+00 0. -1.
</event>
<event>
 7    1  0.4836188E-013  0.5052886E+02  0.7816164E-02  0.1300439E+00
        -11   -1    0    0    0    0  0.00000000000E+00  0.00000000000E+00  0.45593999997E+02  0.45594000000E+02  0.51100000000E-03 0.  1.
         11   -1    0    0    0    0 -0.00000000000E+00 -0.00000000000E+00 -0.45593999997E+02  0.45594000000E+02  0.51100000000E-03 0. -1.
    9900012    2    1    2    0    0 -0.18518038622E+01  0.22764238679E+02  0.33638156253E+02  0.50528864541E+02  0.30000014260E+02 0.  0.
         12    1    1    2    0    0  0.18518038622E+01 -0.22764238679E+02 -0.33638156253E+02  0.40659135459E+02  0.00000000000E+00 0. -1.
         11    1    3    3    0    0 -0.57735670208E+01 -0.55657595519E+00  0.64126285317E-01  0.58006866299E+01  0.51100000000E-03 0. -1.
        -11    1    3    3    0    0 -0.66294493929E+01  0.13824202618E+02  0.16492987205E+02  0.22518365937E+02  0.51100000000E-03 0.  1.
        -12    1    3    3    0    0  0.10551212551E+02  0.94966120156E+01  0.17081042762E+02  0.22209811974E+02  0.00000000000E+00 0.  1.
</event>
<event>
 7    1  0.4836188E-013  0.5052885E+02  0.7816164E-02  0.1300439E+00
        -11   -1    0    0    0    0  0.00000000000E+00  0.00000000000E+00  0.45593999997E+02  0.45594000000E+02  0.51100000000E-03 0. -1.
         11   -1    0    0    0    0 -0.00000000000E+00 -0.00000000000E+00 -0.45593999997E+02  0.45594000000E+02  0.51100000000E-03 0.  1.
    9900012    2    1    2    0    0 -0.30318245621E+02  0.35095941984E+00 -0.27089609773E+02  0.50528854070E+02  0.29999982432E+02 0.  0.
         12    1    1    2    0    0  0.30318245621E+02 -0.35095941984E+00  0.27089609773E+02  0.40659145930E+02  0.00000000000E+00 0. -1.
         11    1    3    3    0    0 -0.98151930163E+01 -0.12077124168E+01 -0.89824666716E+01  0.13359689031E+02  0.51100000000E-03 0. -1.
        -11    1    3    3    0    0 -0.68002526450E+01  0.11427977869E+02 -0.14916171623E+02  0.19983350328E+02  0.51100000000E-03 0.  1.
         12    1    3    3    0    0 -0.13702799960E+02 -0.98693060324E+01 -0.31909714792E+01  0.17185814711E+02  0.00000000000E+00 0. -1.
</event>
<event>
 7    1  0.4836188E-013  0.5052886E+02  0.7816164E-02  0.1300439E+00
        -11   -1    0    0    0    0  0.00000000000E+00  0.00000000000E+00  0.45593999997E+02  0.45594000000E+02  0.51100000000E-03 0. -1.
         11   -1    0    0    0    0 -0.00000000000E+00 -0.00000000000E+00 -0.45593999997E+02  0.45594000000E+02  0.51100000000E-03 0.  1.
    9900012    2    1    2    0    0 -0.38691983963E+02 -0.11935462838E+02  0.36933368897E+01  0.50528860394E+02  0.30000001652E+02 0.  0.
         12    1    1    2    0    0  0.38691983963E+02  0.11935462838E+02 -0.36933368897E+01  0.40659139606E+02  0.00000000000E+00 0. -1.
         11    1    3    3    0    0 -0.82853935867E+01 -0.12676905236E+02 -0.46433475669E+00  0.15151477825E+02  0.51100000000E-03 0. -1.
        -11    1    3    3    0    0 -0.36838035929E+01  0.65965461525E+01 -0.71834916037E+00  0.75895227670E+01  0.51100000000E-03 0.  1.
        -12    1    3    3    0    0 -0.26722786784E+02 -0.58551037543E+01  0.48760208067E+01  0.27787859802E+02  0.00000000000E+00 0.  1.
</event>
<event>
 7    1  0.4836188E-013  0.5052886E+02  0.7816164E-02  0.1300439E+00
        -11   -1    0    0    0    0  0.00000000000E+00  0.00000000000E+00  0.45593999997E+02  0.45594000000E+02  0.51100000000E-03 0.  1.
         11   -1    0    0    0    0 -0.00000000000E+00 -0.00000000000E+00 -0.45593999997E+02  0.45594000000E+02  0.51100000000E-03 0. -1.
    9900012    2    1    2    0    0 -0.37130210617E+02  0.17718216488E+01 -0.16473425369E+02  0.50528860366E+02  0.30000001568E+02 0.  0.
         12    1    1    2    0    0  0.37130210617E+02 -0.17718216488E+01  0.16473425369E+02  0.40659139634E+02  0.00000000000E+00 0. -1.
         11    1    3    3    0    0 -0.74832957255E+01  0.81457733932E+01 -0.62430478941E+01  0.12701534803E+02  0.51100000000E-03 0. -1.
        -11    1    3    3    0    0 -0.26682240295E+02 -0.12167551425E+02 -0.10897977213E+02  0.31285094893E+02  0.51100000000E-03 0.  1.
         12    1    3    3    0    0 -0.29646745966E+01  0.57935996811E+01  0.66759973865E+00  0.65422306700E+01  0.00000000000E+00 0. -1.
</event>
<event>
 7    1  0.4836188E-013  0.5052886E+02  0.7816164E-02  0.1300439E+00
        -11   -1    0    0    0    0  0.00000000000E+00  0.00000000000E+00  0.45593999997E+02  0.45594000000E+02  0.51100000000E-03 0.  1.
         11   -1    0    0    0    0 -0.00000000000E+00 -0.00000000000E+00 -0.45593999997E+02  0.45594000000E+02  0.51100000000E-03 0. -1.
    9900012    2    1    2    0    0 -0.80405034034E-01  0.36587961243E+02  0.17733597885E+02  0.50528857525E+02  0.29999992933E+02 0.  0.
         12    1    1    2    0    0  0.80405034034E-01 -0.36587961243E+02 -0.17733597885E+02  0.40659142475E+02  0.00000000000E+00 0. -1.
         11    1    3    3    0    0 -0.13206403774E+01  0.31813642439E+01  0.71132868687E+01  0.79034182349E+01  0.51100000000E-03 0. -1.
        -11    1    3    3    0    0  0.12021279989E+01  0.20166776644E+01  0.10985290796E+02  0.11233375034E+02  0.51100000000E-03 0.  1.
        -12    1    3    3    0    0  0.38107344481E-01  0.31389919334E+02 -0.36497977996E+00  0.31392064256E+02  0.00000000000E+00 0.  1.
</event>
<event>
 7    1  0.4836188E-013  0.5052886E+02  0.7816164E-02  0.1300439E+00
        -11   -1    0    0    0    0  0.00000000000E+00  0.00000000000E+00  0.45593999997E+02  0.45594000000E+02  0.51100000000E-03 0.  1.
         11   -1    0    0    0    0 -0.00000000000E+00 -0.00000000000E+00 -0.45593999997E+02  0.45594000000E+02  0.51100000000E-03 0. -1.
    9900012    2    1    2    0    0 -0.35400414007E+02 -0.66496740781E+01  0.18861557075E+02  0.50528858192E+02  0.29999994962E+02 0.  0.
         12    1    1    2    0    0  0.35400414007E+02  0.66496740781E+01 -0.18861557075E+02  0.40659141808E+02  0.00000000000E+00 0. -1.
         11    1    3    3    0    0 -0.10065890793E+02 -0.13244589748E+01  0.10633808216E+02  0.14702184411E+02  0.51100000000E-03 0. -1.
        -11    1    3    3    0    0 -0.18171066358E+01 -0.10223272879E+02  0.52053979888E+01  0.11615220763E+02  0.51100000000E-03 0.  1.
         12    1    3    3    0    0 -0.23517416578E+02  0.48980577755E+01  0.30223508709E+01  0.24211453018E+02  0.00000000000E+00 0. -1.
</event>
<event>
 7    1  0.4836188E-013  0.5052886E+02  0.7816164E-02  0.1300439E+00
        -11   -1    0    0    0    0  0.00000000000E+00  0.00000000000E+00  0.45593999997E+02  0.45594000000E+02  0.51100000000E-03 0.  1.
         11   -1    0    0    0    0 -0.00000000000E+00 -0.00000000000E+00 -0.45593999997E+02  0.45594000000E+02  0.51100000000E-03 0. -1.
    9900012    2    1    2    0    0  0.26377348082E+02 -0.17264881871E+02  0.25677323296E+02  0.50528861181E+02  0.30000004045E+02 0.  0.
         12    1    1    2    0    0 -0.26377348082E+02  0.17264881871E+02 -0.25677323296E+02  0.40659138819E+02  0.00000000000E+00 0. -1.
         11    1    3    3    0    0  0.18556855719E+02 -0.94987172274E+01  0.71001733622E+01  0.22022601689E+02  0.51100000000E-03 0.  1.
        -11    1    3    3    0    0  0.40764874802E+01 -0.13867136984E+02  0.12820975914E+02  0.19320783161E+02  0.51100000000E-03 0. -1.
         12    1    3    3    0    0  0.37440048831E+01  0.61009723405E+01  0.57561740205E+01  0.91854763305E+01  0.00000000000E+00 0. -1.
</event>
<event>
 7    1  0.4836188E-013  0.5052886E+02  0.7816164E-02  0.1300439E+00
        -11   -1    0    0    0    0  0.00000000000E+00  0.00000000000E+00  0.45593999997E+02  0.45594000000E+02  0.51100000000E-03 0. -1.
         11   -1    0    0    0    0 -0.00000000000E+00 -0.00000000000E+00 -0.45593999997E+02  0.45594000000E+02  0.51100000000E-03 0.  1.
    9900012    2    1    2    0    0  0.26270353877E+02 -0.27373528628E+02 -0.14619313559E+02  0.50528857223E+02  0.29999992017E+02 0.  0.
         12    1    1    2    0    0 -0.26270353877E+02  0.27373528628E+02  0.14619313559E+02  0.40659142777E+02  0.00000000000E+00 0. -1.
         11    1    3    3    0    0  0.23372347613E+02 -0.27050380900E+02 -0.54710970978E+01  0.36165213168E+02  0.51100000000E-03 0. -1.
        -11    1    3    3    0    0  0.66924893576E+01 -0.19113710667E+01 -0.57702406602E+01  0.90409308532E+01  0.51100000000E-03 0.  1.
         12    1    3    3    0    0 -0.37944830932E+01  0.15882233388E+01 -0.33779758013E+01  0.53227132022E+01  0.00000000000E+00 0. -1.
</event>
<event>
 7    1  0.4836188E-013  0.5052878E+02  0.7816164E-02  0.1300439E+00
        -11   -1    0    0    0    0  0.00000000000E+00  0.00000000000E+00  0.45593999997E+02  0.45594000000E+02  0.51100000000E-03 0.  1.
         11   -1    0    0    0    0 -0.00000000000E+00 -0.00000000000E+00 -0.45593999997E+02  0.45594000000E+02  0.51100000000E-03 0. -1.
    9900012    2    1    2    0    0  0.21836359905E+02  0.26329970709E+02  0.21979037588E+02  0.50528781307E+02  0.29999761260E+02 0.  0.
         12    1    1    2    0    0 -0.21836359905E+02 -0.26329970709E+02 -0.21979037588E+02  0.40659218693E+02  0.00000000000E+00 0. -1.
         11    1    3    3    0    0  0.79682760790E+00  0.71299275006E+00  0.93994509796E+01  0.94600725091E+01  0.51100000000E-03 0. -1.
        -11    1    3    3    0    0  0.75032412371E+01 -0.59471505295E-01  0.91615083440E+01  0.11842102910E+02  0.51100000000E-03 0.  1.
        -12    1    3    3    0    0  0.13536291060E+02  0.25676449464E+02  0.34180782642E+01  0.29226605888E+02  0.00000000000E+00 0.  1.
</event>
<event>
 7    1  0.4836188E-013  0.5052886E+02  0.7816164E-02  0.1300439E+00
        -11   -1    0    0    0    0  0.00000000000E+00  0.00000000000E+00  0.45593999997E+02  0.45594000000E+02  0.51100000000E-03 0.  1.
         11   -1    0    0    0    0 -0.00000000000E+00 -0.00000000000E+00 -0.45593999997E+02  0.45594000000E+02  0.51100000000E-03 0. -1.
    9900012    2    1    2    0    0  0.17500720388E+02 -0.13261979470E+02  0.34220024532E+02  0.50528863358E+02  0.30000010662E+02 0.  0.
         12    1    1    2    0    0 -0.17500720388E+02  0.13261979470E+02 -0.34220024532E+02  0.40659136642E+02  0.00000000000E+00 0. -1.
         11    1    3    3    0    0  0.76202227599E+01 -0.10160943362E+02  0.28046042539E+02  0.30787872081E+02  0.51100000000E-03 0. -1.
        -11    1    3    3    0    0 -0.33242378891E+01 -0.43676918850E+00  0.52619144355E+01  0.62393163612E+01  0.51100000000E-03 0.  1.
         12    1    3    3    0    0  0.13204735517E+02 -0.26642669200E+01  0.91206755690E+00  0.13501674915E+02  0.00000000000E+00 0. -1.
</event>
<event>
 7    1  0.4836188E-013  0.5052886E+02  0.7816164E-02  0.1300439E+00
        -11   -1    0    0    0    0  0.00000000000E+00  0.00000000000E+00  0.45593999997E+02  0.45594000000E+02  0.51100000000E-03 0.  1.
         11   -1    0    0    0    0 -0.00000000000E+00 -0.00000000000E+00 -0.45593999997E+02  0.45594000000E+02  0.51100000000E-03 0. -1.
    9900012    2    1    2    0    0 -0.34650648614E+02  0.10901698312E+02  0.18266117632E+02  0.50528861681E+02  0.30000005566E+02 0.  0.
         12    1    1    2    0    0  0.34650648614E+02 -0.10901698312E+02 -0.18266117632E+02  0.40659138319E+02  0.00000000000E+00 0. -1.
         11    1    3    3    0    0 -0.14886753540E+00 -0.18046936096E+01  0.25457290802E+01  0.31240706423E+01  0.51100000000E-03 0. -1.
        -11    1    3    3    0    0 -0.16361440401E+02 -0.43698174515E+01  0.14773976932E+02  0.22473594087E+02  0.51100000000E-03 0.  1.
        -12    1    3    3    0    0 -0.18140340678E+02  0.17076209373E+02  0.94641161960E+00  0.24931196952E+02  0.00000000000E+00 0.  1.
</event>
<event>
 7    1  0.4836188E-013  0.5052886E+02  0.7816164E-02  0.1300439E+00
        -11   -1    0    0    0    0  0.00000000000E+00  0.00000000000E+00  0.45593999997E+02  0.45594000000E+02  0.51100000000E-03 0.  1.
         11   -1    0    0    0    0 -0.00000000000E+00 -0.00000000000E+00 -0.45593999997E+02  0.45594000000E+02  0.51100000000E-03 0. -1.
    9900012    2    1    2    0    0  0.47877304023E+00 -0.23039463119E+02  0.33498053624E+02  0.50528859809E+02  0.29999999876E+02 0.  0.
         12    1    1    2    0    0 -0.47877304023E+00  0.23039463119E+02 -0.33498053624E+02  0.40659140191E+02  0.00000000000E+00 0. -1.
         11    1    3    3    0    0  0.63046728290E+01 -0.15839078530E+01  0.32287958053E+01  0.72582908581E+01  0.51100000000E-03 0. -1.
        -11    1    3    3    0    0  0.62451894141E+01 -0.16573659630E+02  0.19776713708E+02  0.26548201252E+02  0.51100000000E-03 0.  1.
        -12    1    3    3    0    0 -0.12071089203E+02 -0.48818956362E+01  0.10492544111E+02  0.16722367699E+02  0.00000000000E+00 0.  1.
</event>
<event>
 7    1  0.4836188E-013  0.5052884E+02  0.7816164E-02  0.1300439E+00
        -11   -1    0    0    0    0  0.00000000000E+00  0.00000000000E+00  0.45593999997E+02  0.45594000000E+02  0.51100000000E-03 0. -1.
         11   -1    0    0    0    0 -0.00000000000E+00 -0.00000000000E+00 -0.45593999997E+02  0.45594000000E+02  0.51100000000E-03 0.  1.
    9900012    2    1    2    0    0  0.98500905945E+01 -0.33649506711E+02 -0.20587697963E+02  0.50528844893E+02  0.29999954536E+02 0.  0.
         12    1    1    2    0    0 -0.98500905945E+01  0.33649506711E+02  0.20587697963E+02  0.40659155107E+02  0.00000000000E+00 0. -1.
         11    1    3    3    0    0  0.40827278620E+00  0.14829145878E+01  0.14709167493E+01  0.21282196050E+01  0.51100000000E-03 0. -1.
        -11    1    3    3    0    0  0.16210994955E+02 -0.16190468540E+02 -0.12967521224E+02  0.26326493043E+02  0.51100000000E-03 0.  1.
        -12    1    3    3    0    0 -0.67691771462E+01 -0.18941952759E+02 -0.90910934882E+01  0.22074132245E+02  0.00000000000E+00 0.  1.
</event>
<event>
 7    1  0.4836188E-013  0.5052886E+02  0.7816164E-02  0.1300439E+00
        -11   -1    0    0    0    0  0.00000000000E+00  0.00000000000E+00  0.45593999997E+02  0.45594000000E+02  0.51100000000E-03 0.  1.
         11   -1    0    0    0    0 -0.00000000000E+00 -0.00000000000E+00 -0.45593999997E+02  0.45594000000E+02  0.51100000000E-03 0. -1.
    9900012    2    1    2    0    0  0.35497103466E+02 -0.15280509180E+02  0.12634374602E+02  0.50528859123E+02  0.29999997790E+02 0.  0.
         12    1    1    2    0    0 -0.35497103466E+02  0.15280509180E+02 -0.12634374602E+02  0.40659140877E+02  0.00000000000E+00 0. -1.
         11    1    3    3    0    0  0.29045102874E+01 -0.92996901705E+01  0.60690721375E+01  0.11478416883E+02  0.51100000000E-03 0. -1.
        -11    1    3    3    0    0  0.17766976395E+02 -0.99914407950E+01  0.10868886954E+02  0.23100368899E+02  0.51100000000E-03 0.  1.
        -12    1    3    3    0    0  0.14825616783E+02  0.40106217850E+01 -0.43035844902E+01  0.15950073341E+02  0.00000000000E+00 0.  1.
</event>
<event>
 7    1  0.4836188E-013  0.5052886E+02  0.7816164E-02  0.1300439E+00
        -11   -1    0    0    0    0  0.00000000000E+00  0.00000000000E+00  0.45593999997E+02  0.45594000000E+02  0.51100000000E-03 0.  1.
         11   -1    0    0    0    0 -0.00000000000E+00 -0.00000000000E+00 -0.45593999997E+02  0.45594000000E+02  0.51100000000E-03 0. -1.
    9900012    2    1    2    0    0  0.40380108425E+02 -0.32815379511E+01  0.34414624257E+01  0.50528864356E+02  0.30000013695E+02 0.  0.
         12    1    1    2    0    0 -0.40380108425E+02  0.32815379511E+01 -0.34414624257E+01  0.40659135644E+02  0.00000000000E+00 0. -1.
         11    1    3    3    0    0  0.30620679681E+02  0.10140510631E-01 -0.71219587170E+01  0.31438009212E+02  0.51100000000E-03 0. -1.
        -11    1    3    3    0    0  0.11043310517E+02 -0.12546166298E+00  0.41010167203E+01  0.11780865257E+02  0.51100000000E-03 0.  1.
        -12    1    3    3    0    0 -0.12838817734E+01 -0.31662167987E+01  0.64624044224E+01  0.73099898867E+01  0.00000000000E+00 0.  1.
</event>
<event>
 7    1  0.4836188E-013  0.5052885E+02  0.7816164E-02  0.1300439E+00
        -11   -1    0    0    0    0  0.00000000000E+00  0.00000000000E+00  0.45593999997E+02  0.45594000000E+02  0.51100000000E-03 0. -1.
         11   -1    0    0    0    0 -0.00000000000E+00 -0.00000000000E+00 -0.45593999997E+02  0.45594000000E+02  0.51100000000E-03 0.  1.
    9900012    2    1    2    0    0  0.39215846370E+02  0.39418965644E+01 -0.99872514045E+01  0.50528851636E+02  0.29999975034E+02 0.  0.
         12    1    1    2    0    0 -0.39215846370E+02 -0.39418965644E+01  0.99872514045E+01  0.40659148364E+02  0.00000000000E+00 0. -1.
         11    1    3    3    0    0  0.21945748360E+02  0.85480515450E+01 -0.37915983449E+01  0.23855005231E+02  0.51100000000E-03 0. -1.
        -11    1    3    3    0    0  0.68495182553E+01  0.17167521534E+01 -0.11408544220E+02  0.13417079405E+02  0.51100000000E-03 0.  1.
        -12    1    3    3    0    0  0.10420579754E+02 -0.63229071341E+01  0.52128911605E+01  0.13256767000E+02  0.00000000000E+00 0.  1.
</event>
<event>
 7    1  0.4915574E-013  0.5052885E+02  0.7816164E-02  0.1300439E+00
        -11   -1    0    0    0    0  0.00000000000E+00  0.00000000000E+00  0.45593999997E+02  0.45594000000E+02  0.51100000000E-03 0.  1.
         11   -1    0    0    0    0 -0.00000000000E+00 -0.00000000000E+00 -0.45593999997E+02  0.45594000000E+02  0.51100000000E-03 0. -1.
    9900012    2    1    2    0    0 -0.33712198836E+02  0.61895726905E+01  0.21871056931E+02  0.50528852300E+02  0.29999977050E+02 0.  0.
         12    1    1    2    0    0  0.33712198836E+02 -0.61895726905E+01 -0.21871056931E+02  0.40659147700E+02  0.00000000000E+00 0. -1.
         11    1    3    3    0    0 -0.78630572420E+01  0.83090644640E+01 -0.47864261780E+00  0.11449773818E+02  0.51100000000E-03 0. -1.
        -11    1    3    3    0    0 -0.20257795904E+02  0.47217708870E+01  0.81201797207E+01  0.22329593238E+02  0.51100000000E-03 0.  1.
        -12    1    3    3    0    0 -0.55913456902E+01 -0.68412626605E+01  0.14229519828E+02  0.16749485244E+02  0.00000000000E+00 0.  1.
</event>
<event>
 7    1  0.4836188E-013  0.5052889E+02  0.7816164E-02  0.1300439E+00
        -11   -1    0    0    0    0  0.00000000000E+00  0.00000000000E+00  0.45593999997E+02  0.45594000000E+02  0.51100000000E-03 0. -1.
         11   -1    0    0    0    0 -0.00000000000E+00 -0.00000000000E+00 -0.45593999997E+02  0.45594000000E+02  0.51100000000E-03 0.  1.
    9900012    2    1    2    0    0 -0.23102520497E+01  0.39776635811E+02 -0.81021654988E+01  0.50528891467E+02  0.30000096103E+02 0.  0.
         12    1    1    2    0    0  0.23102520497E+01 -0.39776635811E+02  0.81021654988E+01  0.40659108533E+02  0.00000000000E+00 0. -1.
         11    1    3    3    0    0  0.10796442281E+01  0.24668828530E+01  0.13897612341E+01  0.30302770861E+01  0.51100000000E-03 0. -1.
        -11    1    3    3    0    0 -0.15192830785E-01  0.37987210265E+02 -0.63079908748E+00  0.37992450333E+02  0.51100000000E-03 0.  1.
         12    1    3    3    0    0 -0.33747034470E+01 -0.67745730756E+00 -0.88611276454E+01  0.95061640479E+01  0.00000000000E+00 0. -1.
</event>
<event>
 7    1  0.4836188E-013  0.5052886E+02  0.7816164E-02  0.1300439E+00
        -11   -1    0    0    0    0  0.00000000000E+00  0.00000000000E+00  0.45593999997E+02  0.45594000000E+02  0.51100000000E-03 0.  1.
         11   -1    0    0    0    0 -0.00000000000E+00 -0.00000000000E+00 -0.45593999997E+02  0.45594000000E+02  0.51100000000E-03 0. -1.
    9900012    2    1    2    0    0  0.21275056840E+02  0.17236679801E+02  0.30057189189E+02  0.50528858395E+02  0.29999995578E+02 0.  0.
         12    1    1    2    0    0 -0.21275056840E+02 -0.17236679801E+02 -0.30057189189E+02  0.40659141605E+02  0.00000000000E+00 0. -1.
         11    1    3    3    0    0  0.72677308059E+01  0.22776683368E+02  0.17793486570E+02  0.29802774718E+02  0.51100000000E-03 0.  1.
        -11    1    3    3    0    0  0.56406370372E+01 -0.54261930026E+01  0.84890833055E+01  0.11546639871E+02  0.51100000000E-03 0. -1.
        -12    1    3    3    0    0  0.83666889974E+01 -0.11381056498E+00  0.37746193133E+01  0.91794438058E+01  0.00000000000E+00 0.  1.
</event>
<event>
 7    1  0.4836188E-013  0.5052884E+02  0.7816164E-02  0.1300439E+00
        -11   -1    0    0    0    0  0.00000000000E+00  0.00000000000E+00  0.45593999997E+02  0.45594000000E+02  0.51100000000E-03 0.  1.
         11   -1    0    0    0    0 -0.00000000000E+00 -0.00000000000E+00 -0.45593999997E+02  0.45594000000E+02  0.51100000000E-03 0. -1.
    9900012    2    1    2    0    0 -0.16981760733E+02 -0.20045863333E+02  0.31031444311E+02  0.50528839035E+02  0.29999936729E+02 0.  0.
         12    1    1    2    0    0  0.16981760733E+02  0.20045863333E+02 -0.31031444311E+02  0.40659160965E+02  0.00000000000E+00 0. -1.
         11    1    3    3    0    0 -0.83490602831E+01 -0.10260417457E+02  0.28158503538E+02  0.31110838879E+02  0.51100000000E-03 0. -1.
        -11    1    3    3    0    0 -0.57056552225E+01  0.23571507341E+01  0.31372234128E+01  0.69247983439E+01  0.51100000000E-03 0.  1.
         12    1    3    3    0    0 -0.29270452278E+01 -0.12142596610E+02 -0.26428263915E+00  0.12493201812E+02  0.00000000000E+00 0. -1.
</event>
<event>
 7    1  0.4836188E-013  0.5052886E+02  0.7816164E-02  0.1300439E+00
        -11   -1    0    0    0    0  0.00000000000E+00  0.00000000000E+00  0.45593999997E+02  0.45594000000E+02  0.51100000000E-03 0.  1.
         11   -1    0    0    0    0 -0.00000000000E+00 -0.00000000000E+00 -0.45593999997E+02  0.45594000000E+02  0.51100000000E-03 0. -1.
    9900012    2    1    2    0    0 -0.44026508218E+01  0.30819762386E+02  0.26151956054E+02  0.50528857200E+02  0.29999991944E+02 0.  0.
         12    1    1    2    0    0  0.44026508218E+01 -0.30819762386E+02 -0.26151956054E+02  0.40659142800E+02  0.00000000000E+00 0. -1.
         11    1    3    3    0    0 -0.58704501773E+01  0.26544152698E+01  0.53665143036E+01  0.83849616421E+01  0.51100000000E-03 0. -1.
        -11    1    3    3    0    0  0.83477318020E+01  0.13255115199E+01  0.20526010361E+01  0.86979755289E+01  0.51100000000E-03 0.  1.
         12    1    3    3    0    0 -0.68799324465E+01  0.26839835597E+02  0.18732840714E+02  0.33445920029E+02  0.00000000000E+00 0. -1.
</event>
<event>
 7    1  0.4836188E-013  0.5052880E+02  0.7816164E-02  0.1300439E+00
        -11   -1    0    0    0    0  0.00000000000E+00  0.00000000000E+00  0.45593999997E+02  0.45594000000E+02  0.51100000000E-03 0.  1.
         11   -1    0    0    0    0 -0.00000000000E+00 -0.00000000000E+00 -0.45593999997E+02  0.45594000000E+02  0.51100000000E-03 0. -1.
    9900012    2    1    2    0    0 -0.56599090107E+01 -0.31141488986E+02  0.25521431466E+02  0.50528802143E+02  0.29999824594E+02 0.  0.
         12    1    1    2    0    0  0.56599090107E+01  0.31141488986E+02 -0.25521431466E+02  0.40659197857E+02  0.00000000000E+00 0. -1.
         11    1    3    3    0    0 -0.14913107609E+01  0.38749298885E+00 -0.30707677725E+01  0.34356620287E+01  0.51100000000E-03 0. -1.
        -11    1    3    3    0    0  0.65918852163E+01 -0.77622016388E+01  0.31688221386E+01  0.10665184433E+02  0.51100000000E-03 0.  1.
        -12    1    3    3    0    0 -0.10760483466E+02 -0.23766780336E+02  0.25423377100E+02  0.36427955681E+02  0.00000000000E+00 0.  1.
</event>
<event>
 7    1  0.4836188E-013  0.5052886E+02  0.7816164E-02  0.1300439E+00
        -11   -1    0    0    0    0  0.00000000000E+00  0.00000000000E+00  0.45593999997E+02  0.45594000000E+02  0.51100000000E-03 0. -1.
         11   -1    0    0    0    0 -0.00000000000E+00 -0.00000000000E+00 -0.45593999997E+02  0.45594000000E+02  0.51100000000E-03 0.  1.
    9900012    2    1    2    0    0  0.30418159049E+02 -0.14870105178E+02 -0.22511795877E+02  0.50528863493E+02  0.30000011072E+02 0.  0.
         12    1    1    2    0    0 -0.30418159049E+02  0.14870105178E+02  0.22511795877E+02  0.40659136507E+02  0.00000000000E+00 0. -1.
         11    1    3    3    0    0  0.32006041699E+01  0.35746995173E+01 -0.25915432477E+01  0.54532962836E+01  0.51100000000E-03 0. -1.
        -11    1    3    3    0    0  0.29286122396E+02 -0.98828816845E+01 -0.11766328926E+02  0.33072568876E+02  0.51100000000E-03 0.  1.
         12    1    3    3    0    0 -0.20685675176E+01 -0.85619230106E+01 -0.81539237036E+01  0.12002998333E+02  0.00000000000E+00 0. -1.
</event>
<event>
 7    1  0.4836188E-013  0.5052886E+02  0.7816164E-02  0.1300439E+00
        -11   -1    0    0    0    0  0.00000000000E+00  0.00000000000E+00  0.45593999997E+02  0.45594000000E+02  0.51100000000E-03 0.  1.
         11   -1    0    0    0    0 -0.00000000000E+00 -0.00000000000E+00 -0.45593999997E+02  0.45594000000E+02  0.51100000000E-03 0. -1.
    9900012    2    1    2    0    0 -0.22729755446E+02  0.15310462093E+02  0.30035204344E+02  0.50528861641E+02  0.30000005444E+02 0.  0.
         12    1    1    2    0    0  0.22729755446E+02 -0.15310462093E+02 -0.30035204344E+02  0.40659138359E+02  0.00000000000E+00 0. -1.
         11    1    3    3    0    0 -0.12789043758E+02  0.62273227267E+01  0.15283995334E+02  0.20879169098E+02  0.51100000000E-03 0. -1.
        -11    1    3    3    0    0 -0.87739505972E+00  0.10361101806E+02  0.17267972112E+02  0.20157011530E+02  0.51100000000E-03 0.  1.
         12    1    3    3    0    0 -0.90633166284E+01 -0.12779624398E+01 -0.25167631018E+01  0.94926810130E+01  0.00000000000E+00 0. -1.
</event>
<event>
 7    1  0.4836188E-013  0.5052887E+02  0.7816164E-02  0.1300439E+00
        -11   -1    0    0    0    0  0.00000000000E+00  0.00000000000E+00  0.45593999997E+02  0.45594000000E+02  0.51100000000E-03 0. -1.
         11   -1    0    0    0    0 -0.00000000000E+00 -0.00000000000E+00 -0.45593999997E+02  0.45594000000E+02  0.51100000000E-03 0.  1.
    9900012    2    1    2    0    0  0.35928244490E+02  0.53761388557E+01 -0.18259888465E+02  0.50528866366E+02  0.30000019805E+02 0.  0.
         12    1    1    2    0    0 -0.35928244490E+02 -0.53761388557E+01  0.18259888465E+02  0.40659133634E+02  0.00000000000E+00 0. -1.
         11    1    3    3    0    0  0.74686131723E-01 -0.25199141046E+01 -0.71144801995E+01  0.75479383863E+01  0.51100000000E-03 0. -1.
        -11    1    3    3    0    0  0.33216413418E+01  0.52257110426E+01  0.36011696080E+01  0.71630845249E+01  0.51100000000E-03 0.  1.
        -12    1    3    3    0    0  0.32531917017E+02  0.26703419177E+01 -0.14746577873E+02  0.35817843454E+02  0.00000000000E+00 0.  1.
</event>
<event>
 7    1  0.4836188E-013  0.5052886E+02  0.7816164E-02  0.1300439E+00
        -11   -1    0    0    0    0  0.00000000000E+00  0.00000000000E+00  0.45593999997E+02  0.45594000000E+02  0.51100000000E-03 0.  1.
         11   -1    0    0    0    0 -0.00000000000E+00 -0.00000000000E+00 -0.45593999997E+02  0.45594000000E+02  0.51100000000E-03 0. -1.
    9900012    2    1    2    0    0 -0.10605434530E+02 -0.25226151419E+02  0.30072105152E+02  0.50528862463E+02  0.30000007941E+02 0.  0.
         12    1    1    2    0    0  0.10605434530E+02  0.25226151419E+02 -0.30072105152E+02  0.40659137537E+02  0.00000000000E+00 0. -1.
         11    1    3    3    0    0 -0.86471406699E+01 -0.56115548557E+01  0.60890992847E+01  0.11972456725E+02  0.51100000000E-03 0. -1.
        -11    1    3    3    0    0 -0.21651807048E+01 -0.16879680675E+02  0.28606660305E+01  0.17256738903E+02  0.51100000000E-03 0.  1.
         12    1    3    3    0    0  0.20688684435E+00 -0.27349158887E+01  0.21122339837E+02  0.21299666835E+02  0.00000000000E+00 0. -1.
</event>
<event>
 7    1  0.4836188E-013  0.5052890E+02  0.7816164E-02  0.1300439E+00
        -11   -1    0    0    0    0  0.00000000000E+00  0.00000000000E+00  0.45593999997E+02  0.45594000000E+02  0.51100000000E-03 0. -1.
         11   -1    0    0    0    0 -0.00000000000E+00 -0.00000000000E+00 -0.45593999997E+02  0.45594000000E+02  0.51100000000E-03 0.  1.
    9900012    2    1    2    0    0  0.29826487536E+02  0.85614280490E+01 -0.26272511397E+02  0.50528901829E+02  0.30000127599E+02 0.  0.
         12    1    1    2    0    0 -0.29826487536E+02 -0.85614280490E+01  0.26272511397E+02  0.40659098171E+02  0.00000000000E+00 0. -1.
         11    1    3    3    0    0 -0.20693097086E+01 -0.19587536465E+01 -0.54425182571E+01  0.61432697936E+01  0.51100000000E-03 0. -1.
        -11    1    3    3    0    0  0.17837915914E+02 -0.18751447900E+01 -0.18036146791E+02  0.25436391322E+02  0.51100000000E-03 0.  1.
        -12    1    3    3    0    0  0.14057881330E+02  0.12395326486E+02 -0.27938463485E+01  0.18949240713E+02  0.00000000000E+00 0.  1.
</event>
<event>
 7    1  0.4836188E-013  0.5052887E+02  0.7816164E-02  0.1300439E+00
        -11   -1    0    0    0    0  0.00000000000E+00  0.00000000000E+00  0.45593999997E+02  0.45594000000E+02  0.51100000000E-03 0.  1.
         11   -1    0    0    0    0 -0.00000000000E+00 -0.00000000000E+00 -0.45593999997E+02  0.45594000000E+02  0.51100000000E-03 0. -1.
    9900012    2    1    2    0    0  0.24263213338E+02 -0.12104879962E+02  0.30297414797E+02  0.50528868384E+02  0.30000025941E+02 0.  0.
         12    1    1    2    0    0 -0.24263213338E+02  0.12104879962E+02 -0.30297414797E+02  0.40659131616E+02  0.00000000000E+00 0. -1.
         11    1    3    3    0    0  0.12413815379E+02 -0.11321970480E+02  0.44484317731E+01  0.17380401989E+02  0.51100000000E-03 0. -1.
        -11    1    3    3    0    0  0.58450015630E+01 -0.88932011289E+01  0.12558092172E+02  0.16460824671E+02  0.51100000000E-03 0.  1.
         12    1    3    3    0    0  0.60043963957E+01  0.81102916467E+01  0.13290890852E+02  0.16687641724E+02  0.00000000000E+00 0. -1.
</event>
<event>
 7    1  0.5913454E-013  0.5052896E+02  0.7816164E-02  0.1300438E+00
        -11   -1    0    0    0    0  0.00000000000E+00  0.00000000000E+00  0.45593999997E+02  0.45594000000E+02  0.51100000000E-03 0. -1.
         11   -1    0    0    0    0 -0.00000000000E+00 -0.00000000000E+00 -0.45593999997E+02  0.45594000000E+02  0.51100000000E-03 0.  1.
    9900012    2    1    2    0    0  0.21775468278E+02 -0.89109421694E+01 -0.33159935332E+02  0.50528963854E+02  0.30000316130E+02 0.  0.
         12    1    1    2    0    0 -0.21775468278E+02  0.89109421694E+01  0.33159935332E+02  0.40659036146E+02  0.00000000000E+00 0. -1.
         11    1    3    3    0    0 -0.31430297071E+01  0.37703993812E+00  0.16488232492E+01  0.35692314611E+01  0.51100000000E-03 0. -1.
        -11    1    3    3    0    0  0.20672503805E+00 -0.23045253923E+01 -0.13190944956E+02  0.13392333689E+02  0.51100000000E-03 0.  1.
         12    1    3    3    0    0  0.24711772947E+02 -0.69834567153E+01 -0.21617813625E+02  0.33567398705E+02  0.00000000000E+00 0. -1.
</event>
<event>
 7    1  0.4836188E-013  0.5052886E+02  0.7816164E-02  0.1300439E+00
        -11   -1    0    0    0    0  0.00000000000E+00  0.00000000000E+00  0.45593999997E+02  0.45594000000E+02  0.51100000000E-03 0. -1.
         11   -1    0    0    0    0 -0.00000000000E+00 -0.00000000000E+00 -0.45593999997E+02  0.45594000000E+02  0.51100000000E-03 0.  1.
    9900012    2    1    2    0    0  0.28704013274E+00 -0.22489389443E+02 -0.33871974579E+02  0.50528859682E+02  0.29999999489E+02 0.  0.
         12    1    1    2    0    0 -0.28704013274E+00  0.22489389443E+02  0.33871974579E+02  0.40659140318E+02  0.00000000000E+00 0. -1.
         11    1    3    3    0    0  0.40578768194E+01  0.34829890199E+01 -0.74356130613E+00  0.53991166381E+01  0.51100000000E-03 0. -1.
        -11    1    3    3    0    0  0.62099722889E+01 -0.10423428630E+02 -0.14219392450E+02  0.18692317731E+02  0.51100000000E-03 0.  1.
        -12    1    3    3    0    0 -0.99808089756E+01 -0.15548949832E+02 -0.18909020823E+02  0.26437425313E+02  0.00000000000E+00 0.  1.
</event>
<event>
 7    1  0.4836188E-013  0.5052886E+02  0.7816164E-02  0.1300439E+00
        -11   -1    0    0    0    0  0.00000000000E+00  0.00000000000E+00  0.45593999997E+02  0.45594000000E+02  0.51100000000E-03 0. -1.
         11   -1    0    0    0    0 -0.00000000000E+00 -0.00000000000E+00 -0.45593999997E+02  0.45594000000E+02  0.51100000000E-03 0.  1.
    9900012    2    1    2    0    0  0.32170916791E+02  0.22976819041E+02 -0.95006964528E+01  0.50528864083E+02  0.30000012868E+02 0.  0.
         12    1    1    2    0    0 -0.32170916791E+02 -0.22976819041E+02  0.95006964528E+01  0.40659135917E+02  0.00000000000E+00 0. -1.
         11    1    3    3    0    0  0.60850623575E+01  0.89680151860E+00  0.46120842984E+01  0.76878838893E+01  0.51100000000E-03 0. -1.
        -11    1    3    3    0    0  0.19437320590E+02  0.21454023637E+02 -0.20115998382E+01  0.29019495104E+02  0.51100000000E-03 0.  1.
        -12    1    3    3    0    0  0.66485338428E+01  0.62599388613E+00 -0.12101180913E+02  0.13821485090E+02  0.00000000000E+00 0.  1.
</event>
<event>
 7    1  0.4836188E-013  0.5052886E+02  0.7816164E-02  0.1300439E+00
        -11   -1    0    0    0    0  0.00000000000E+00  0.00000000000E+00  0.45593999997E+02  0.45594000000E+02  0.51100000000E-03 0.  1.
         11   -1    0    0    0    0 -0.00000000000E+00 -0.00000000000E+00 -0.45593999997E+02  0.45594000000E+02  0.51100000000E-03 0. -1.
    9900012    2    1    2    0    0  0.16011854320E+02 -0.37314672837E+02 -0.20979543027E+01  0.50528859577E+02  0.29999999171E+02 0.  0.
         12    1    1    2    0    0 -0.16011854320E+02  0.37314672837E+02  0.20979543027E+01  0.40659140423E+02  0.00000000000E+00 0. -1.
         11    1    3    3    0    0  0.24767434440E+01 -0.87502094155E+00  0.58079632529E+01  0.63743515077E+01  0.51100000000E-03 0. -1.
        -11    1    3    3    0    0  0.16210054088E+02 -0.16853852102E+02 -0.68142349876E+01  0.24356764624E+02  0.51100000000E-03 0.  1.
        -12    1    3    3    0    0 -0.26749432116E+01 -0.19585799793E+02 -0.10916825680E+01  0.19797743446E+02  0.00000000000E+00 0.  1.
</event>
<event>
 7    1  0.4836188E-013  0.5052886E+02  0.7816164E-02  0.1300439E+00
        -11   -1    0    0    0    0  0.00000000000E+00  0.00000000000E+00  0.45593999997E+02  0.45594000000E+02  0.51100000000E-03 0. -1.
         11   -1    0    0    0    0 -0.00000000000E+00 -0.00000000000E+00 -0.45593999997E+02  0.45594000000E+02  0.51100000000E-03 0.  1.
    9900012    2    1    2    0    0  0.32845071146E+02 -0.16372483075E+02 -0.17501668227E+02  0.50528864602E+02  0.30000014444E+02 0.  0.
         12    1    1    2    0    0 -0.32845071146E+02  0.16372483075E+02  0.17501668227E+02  0.40659135398E+02  0.00000000000E+00 0. -1.
         11    1    3    3    0    0  0.16839759810E+02 -0.13525157466E+02 -0.56805147188E+01  0.22333285532E+02  0.51100000000E-03 0. -1.
        -11    1    3    3    0    0  0.62521547996E+01 -0.11126975230E+02 -0.51053536409E+01  0.13746405110E+02  0.51100000000E-03 0.  1.
        -12    1    3    3    0    0  0.97531565361E+01  0.82796496207E+01 -0.67157998673E+01  0.14449173960E+02  0.00000000000E+00 0.  1.
</event>
<event>
 7    1  0.4836188E-013  0.5052885E+02  0.7816164E-02  0.1300439E+00
        -11   -1    0    0    0    0  0.00000000000E+00  0.00000000000E+00  0.45593999997E+02  0.45594000000E+02  0.51100000000E-03 0.  1.
         11   -1    0    0    0    0 -0.00000000000E+00 -0.00000000000E+00 -0.45593999997E+02  0.45594000000E+02  0.51100000000E-03 0. -1.
    9900012    2    1    2    0    0  0.42875244339E+00  0.37695201329E+02  0.15233333059E+02  0.50528850132E+02  0.29999970461E+02 0.  0.
         12    1    1    2    0    0 -0.42875244339E+00 -0.37695201329E+02 -0.15233333059E+02  0.40659149868E+02  0.00000000000E+00 0. -1.
         11    1    3    3    0    0  0.21879092887E+01  0.56771797637E+01  0.76722607149E+01  0.97918793836E+01  0.51100000000E-03 0. -1.
        -11    1    3    3    0    0  0.26673580815E+01  0.32944385318E+02  0.11235864334E+02  0.34909768987E+02  0.51100000000E-03 0.  1.
        -12    1    3    3    0    0 -0.44265149268E+01 -0.92636375283E+00 -0.36747919894E+01  0.58272017611E+01  0.00000000000E+00 0.  1.
</event>
<event>
 7    1  0.4836188E-013  0.5052888E+02  0.7816164E-02  0.1300439E+00
        -11   -1    0    0    0    0  0.00000000000E+00  0.00000000000E+00  0.45593999997E+02  0.45594000000E+02  0.51100000000E-03 0.  1.
         11   -1    0    0    0    0 -0.00000000000E+00 -0.00000000000E+00 -0.45593999997E+02  0.45594000000E+02  0.51100000000E-03 0. -1.
    9900012    2    1    2    0    0 -0.15302449654E+02 -0.23147150377E+02  0.29718822790E+02  0.50528880924E+02  0.30000064056E+02 0.  0.
         12    1    1    2    0    0  0.15302449654E+02  0.23147150377E+02 -0.29718822790E+02  0.40659119076E+02  0.00000000000E+00 0. -1.
         11    1    3    3    0    0 -0.59116749868E+01  0.56148571559E+01  0.11996198297E+02  0.14504595681E+02  0.51100000000E-03 0. -1.
        -11    1    3    3    0    0 -0.49540134575E+01 -0.10682257944E+02  0.26459027020E+01  0.12068706869E+02  0.51100000000E-03 0.  1.
        -12    1    3    3    0    0 -0.44367612094E+01 -0.18079749589E+02  0.15076721791E+02  0.23955578373E+02  0.00000000000E+00 0.  1.
</event>
<event>
 7    1  0.4836188E-013  0.5052886E+02  0.7816164E-02  0.1300439E+00
        -11   -1    0    0    0    0  0.00000000000E+00  0.00000000000E+00  0.45593999997E+02  0.45594000000E+02  0.51100000000E-03 0.  1.
         11   -1    0    0    0    0 -0.00000000000E+00 -0.00000000000E+00 -0.45593999997E+02  0.45594000000E+02  0.51100000000E-03 0. -1.
    9900012    2    1    2    0    0 -0.96560927774E+01 -0.12311234566E+01  0.39476695851E+02  0.50528864397E+02  0.30000013820E+02 0.  0.
         12    1    1    2    0    0  0.96560927774E+01  0.12311234566E+01 -0.39476695851E+02  0.40659135603E+02  0.00000000000E+00 0. -1.
         11    1    3    3    0    0  0.66306156337E+01 -0.51688063581E+01  0.36231344100E+01  0.91547105942E+01  0.51100000000E-03 0. -1.
        -11    1    3    3    0    0 -0.31977395811E+01 -0.29072494229E+01  0.16332683216E+02  0.16894797392E+02  0.51100000000E-03 0.  1.
        -12    1    3    3    0    0 -0.13088968830E+02  0.68449323244E+01  0.19520878225E+02  0.24479356410E+02  0.00000000000E+00 0.  1.
</event>
<event>
 7    1  0.4836188E-013  0.5052886E+02  0.7816164E-02  0.1300439E+00
        -11   -1    0    0    0    0  0.00000000000E+00  0.00000000000E+00  0.45593999997E+02  0.45594000000E+02  0.51100000000E-03 0.  1.
         11   -1    0    0    0    0 -0.00000000000E+00 -0.00000000000E+00 -0.45593999997E+02  0.45594000000E+02  0.51100000000E-03 0. -1.
    9900012    2    1    2    0    0  0.12514466576E+02  0.14684518269E+02  0.35789926996E+02  0.50528858041E+02  0.29999994502E+02 0.  0.
         12    1    1    2    0    0 -0.12514466576E+02 -0.14684518269E+02 -0.35789926996E+02  0.40659141959E+02  0.00000000000E+00 0. -1.
         11    1    3    3    0    0  0.57084459932E+01  0.11277463493E+02  0.25111328589E+01  0.12886944052E+02  0.51100000000E-03 0.  1.
        -11    1    3    3    0    0  0.11942095866E+02  0.23859972199E+01  0.20699077821E+02  0.24015796037E+02  0.51100000000E-03 0. -1.
        -12    1    3    3    0    0 -0.51360752840E+01  0.10210575564E+01  0.12579716316E+02  0.13626117952E+02  0.00000000000E+00 0.  1.
</event>
<event>
 7    1  0.4836188E-013  0.5052886E+02  0.7816164E-02  0.1300439E+00
        -11   -1    0    0    0    0  0.00000000000E+00  0.00000000000E+00  0.45593999997E+02  0.45594000000E+02  0.51100000000E-03 0.  1.
         11   -1    0    0    0    0 -0.00000000000E+00 -0.00000000000E+00 -0.45593999997E+02  0.45594000000E+02  0.51100000000E-03 0. -1.
    9900012    2    1    2    0    0 -0.14754066445E+02  0.15612184702E+02  0.34521626657E+02  0.50528862099E+02  0.30000006835E+02 0.  0.
         12    1    1    2    0    0  0.14754066445E+02 -0.15612184702E+02 -0.34521626657E+02  0.40659137901E+02  0.00000000000E+00 0. -1.
         11    1    3    3    0    0  0.27824875407E+01 -0.12230674709E+01  0.60538718707E+01  0.67740309890E+01  0.51100000000E-03 0. -1.
        -11    1    3    3    0    0 -0.96383920143E+01 -0.33018634106E+01  0.36230166692E+01  0.10813285932E+02  0.51100000000E-03 0.  1.
        -12    1    3    3    0    0 -0.78981619709E+01  0.20137115584E+02  0.24844738117E+02  0.32941545177E+02  0.00000000000E+00 0.  1.
</event>
<event>
 7    1  0.4836188E-013  0.5052886E+02  0.7816164E-02  0.1300439E+00
        -11   -1    0    0    0    0  0.00000000000E+00  0.00000000000E+00  0.45593999997E+02  0.45594000000E+02  0.51100000000E-03 0.  1.
         11   -1    0    0    0    0 -0.00000000000E+00 -0.00000000000E+00 -0.45593999997E+02  0.45594000000E+02  0.51100000000E-03 0. -1.
    9900012    2    1    2    0    0  0.10312924793E+02  0.19897402456E+02  0.33924957853E+02  0.50528858252E+02  0.29999995144E+02 0.  0.
         12    1    1    2    0    0 -0.10312924793E+02 -0.19897402456E+02 -0.33924957853E+02  0.40659141748E+02  0.00000000000E+00 0. -1.
         11    1    3    3    0    0  0.65731148872E+01  0.54871580569E+01  0.16165020857E+02  0.18292693690E+02  0.51100000000E-03 0.  1.
        -11    1    3    3    0    0  0.47755599353E+01 -0.25055086638E+01 -0.23968457718E+01  0.59015604950E+01  0.51100000000E-03 0. -1.
         12    1    3    3    0    0 -0.10357500297E+01  0.16915753063E+02  0.20156782768E+02  0.26334604067E+02  0.00000000000E+00 0. -1.
</event>
<event>
 7    1  0.4836188E-013  0.5052886E+02  0.7816164E-02  0.1300439E+00
        -11   -1    0    0    0    0  0.00000000000E+00  0.00000000000E+00  0.45593999997E+02  0.45594000000E+02  0.51100000000E-03 0. -1.
         11   -1    0    0    0    0 -0.00000000000E+00 -0.00000000000E+00 -0.45593999997E+02  0.45594000000E+02  0.51100000000E-03 0.  1.
    9900012    2    1    2    0    0  0.31815858894E+02  0.25021077454E+02  0.38551532948E+01  0.50528863252E+02  0.30000010342E+02 0.  0.
         12    1    1    2    0    0 -0.31815858894E+02 -0.25021077454E+02 -0.38551532948E+01  0.40659136748E+02  0.00000000000E+00 0. -1.
         11    1    3    3    0    0  0.73851100787E+01  0.10178333168E+01  0.49758883354E+01  0.89629961800E+01  0.51100000000E-03 0. -1.
        -11    1    3    3    0    0  0.18771984372E+02  0.33954338211E+01  0.42204850561E+01  0.19537882753E+02  0.51100000000E-03 0.  1.
         12    1    3    3    0    0  0.56587644433E+01  0.20607810316E+02 -0.53412200967E+01  0.22027984319E+02  0.00000000000E+00 0. -1.
</event>
<event>
 7    1  0.4836188E-013  0.5052888E+02  0.7816164E-02  0.1300439E+00
        -11   -1    0    0    0    0  0.00000000000E+00  0.00000000000E+00  0.45593999997E+02  0.45594000000E+02  0.51100000000E-03 0. -1.
         11   -1    0    0    0    0 -0.00000000000E+00 -0.00000000000E+00 -0.45593999997E+02  0.45594000000E+02  0.51100000000E-03 0.  1.
    9900012    2    1    2    0    0 -0.31453218533E+02 -0.22497612512E+02 -0.12558535996E+02  0.50528876163E+02  0.30000049585E+02 0.  0.
         12    1    1    2    0    0  0.31453218533E+02  0.22497612512E+02  0.12558535996E+02  0.40659123837E+02  0.00000000000E+00 0. -1.
         11    1    3    3    0    0 -0.34904538899E+01 -0.31436655625E+01 -0.10459955177E+02  0.11466323042E+02  0.51100000000E-03 0.  1.
        -11    1    3    3    0    0 -0.11536405540E+02 -0.18621834481E+02 -0.47301992062E+01  0.22410625985E+02  0.51100000000E-03 0. -1.
         12    1    3    3    0    0 -0.16426359102E+02 -0.73211246841E+00  0.26316183872E+01  0.16651927137E+02  0.00000000000E+00 0. -1.
</event>
<event>
 7    1  0.4836188E-013  0.5052886E+02  0.7816164E-02  0.1300439E+00
        -11   -1    0    0    0    0  0.00000000000E+00  0.00000000000E+00  0.45593999997E+02  0.45594000000E+02  0.51100000000E-03 0.  1.
         11   -1    0    0    0    0 -0.00000000000E+00 -0.00000000000E+00 -0.45593999997E+02  0.45594000000E+02  0.51100000000E-03 0. -1.
    9900012    2    1    2    0    0 -0.35229541496E+01  0.13767031616E+02  0.38094923407E+02  0.50528861361E+02  0.30000004594E+02 0.  0.
         12    1    1    2    0    0  0.35229541496E+01 -0.13767031616E+02 -0.38094923407E+02  0.40659138639E+02  0.00000000000E+00 0. -1.
         11    1    3    3    0    0 -0.45905026180E+01  0.35463705939E+01  0.30419254437E+01  0.65500205604E+01  0.51100000000E-03 0. -1.
        -11    1    3    3    0    0 -0.66739554634E+01 -0.45438426499E+01  0.19800121630E+02  0.21383007374E+02  0.51100000000E-03 0.  1.
         12    1    3    3    0    0  0.77415039318E+01  0.14764503672E+02  0.15252876334E+02  0.22595833427E+02  0.00000000000E+00 0. -1.
</event>
<event>
 7    1  0.4836188E-013  0.5052886E+02  0.7816164E-02  0.1300439E+00
        -11   -1    0    0    0    0  0.00000000000E+00  0.00000000000E+00  0.45593999997E+02  0.45594000000E+02  0.51100000000E-03 0.  1.
         11   -1    0    0    0    0 -0.00000000000E+00 -0.00000000000E+00 -0.45593999997E+02  0.45594000000E+02  0.51100000000E-03 0. -1.
    9900012    2    1    2    0    0  0.14719256876E+02  0.36842274285E+02  0.88969737928E+01  0.50528857852E+02  0.29999993928E+02 0.  0.
         12    1    1    2    0    0 -0.14719256876E+02 -0.36842274285E+02 -0.88969737928E+01  0.40659142148E+02  0.00000000000E+00 0. -1.
         11    1    3    3    0    0  0.10070495027E+02  0.46012968208E+01  0.55481243975E+01  0.12384203128E+02  0.51100000000E-03 0. -1.
        -11    1    3    3    0    0 -0.49241838911E+01  0.38593195132E+01  0.51995040141E+01  0.81349109615E+01  0.51100000000E-03 0.  1.
        -12    1    3    3    0    0  0.95729457405E+01  0.28381657951E+02 -0.18506546188E+01  0.30009743763E+02  0.00000000000E+00 0.  1.
</event>
<event>
 7    1  0.4836188E-013  0.5052886E+02  0.7816164E-02  0.1300439E+00
        -11   -1    0    0    0    0  0.00000000000E+00  0.00000000000E+00  0.45593999997E+02  0.45594000000E+02  0.51100000000E-03 0.  1.
         11   -1    0    0    0    0 -0.00000000000E+00 -0.00000000000E+00 -0.45593999997E+02  0.45594000000E+02  0.51100000000E-03 0. -1.
    9900012    2    1    2    0    0  0.17009271712E+02 -0.14714680260E+02  0.33872232803E+02  0.50528864564E+02  0.30000014329E+02 0.  0.
         12    1    1    2    0    0 -0.17009271712E+02  0.14714680260E+02 -0.33872232803E+02  0.40659135436E+02  0.00000000000E+00 0. -1.
         11    1    3    3    0    0  0.90321654585E+01 -0.24756164655E+01  0.22305688608E+02  0.24191991118E+02  0.51100000000E-03 0. -1.
        -11    1    3    3    0    0  0.68207750520E+01 -0.16141605964E+02  0.13212515101E+02  0.21946411346E+02  0.51100000000E-03 0.  1.
         12    1    3    3    0    0  0.11563312018E+01  0.39025421692E+01 -0.16459709052E+01  0.43904621000E+01  0.00000000000E+00 0. -1.
</event>
<event>
 7    1  0.4836188E-013  0.5052885E+02  0.7816164E-02  0.1300439E+00
        -11   -1    0    0    0    0  0.00000000000E+00  0.00000000000E+00  0.45593999997E+02  0.45594000000E+02  0.51100000000E-03 0. -1.
         11   -1    0    0    0    0 -0.00000000000E+00 -0.00000000000E+00 -0.45593999997E+02  0.45594000000E+02  0.51100000000E-03 0.  1.
    9900012    2    1    2    0    0 -0.24979885496E+02 -0.21710409393E+02  0.23618421081E+02  0.50528851340E+02  0.29999974134E+02 0.  0.
         12    1    1    2    0    0  0.24979885496E+02  0.21710409393E+02 -0.23618421081E+02  0.40659148660E+02  0.00000000000E+00 0. -1.
         11    1    3    3    0    0 -0.10985180911E+02 -0.44997919424E+01  0.13608057648E+02  0.18058282321E+02  0.51100000000E-03 0. -1.
        -11    1    3    3    0    0 -0.17749486834E+02 -0.11050014432E+02  0.10058343670E+01  0.20932243187E+02  0.51100000000E-03 0.  1.
         12    1    3    3    0    0  0.37547822498E+01 -0.61606030191E+01  0.90045290657E+01  0.11538325832E+02  0.00000000000E+00 0. -1.
</event>
<event>
 7    1  0.4836188E-013  0.5052886E+02  0.7816164E-02  0.1300439E+00
        -11   -1    0    0    0    0  0.00000000000E+00  0.00000000000E+00  0.45593999997E+02  0.45594000000E+02  0.51100000000E-03 0.  1.
         11   -1    0    0    0    0 -0.00000000000E+00 -0.00000000000E+00 -0.45593999997E+02  0.45594000000E+02  0.51100000000E-03 0. -1.
    9900012    2    1    2    0    0  0.18098612044E+02 -0.16992407487E+02  0.32200372165E+02  0.50528860342E+02  0.30000001496E+02 0.  0.
         12    1    1    2    0    0 -0.18098612044E+02  0.16992407487E+02 -0.32200372165E+02  0.40659139658E+02  0.00000000000E+00 0. -1.
         11    1    3    3    0    0  0.65770580416E+01 -0.18521786855E+00  0.30928313041E+01  0.72703235057E+01  0.51100000000E-03 0. -1.
        -11    1    3    3    0    0  0.10729352986E+02 -0.20391557564E+02  0.12428248228E+02  0.26180068558E+02  0.51100000000E-03 0.  1.
        -12    1    3    3    0    0  0.79220101643E+00  0.35843679455E+01  0.16679292633E+02  0.17078468279E+02  0.00000000000E+00 0.  1.
</event>
<event>
 7    1  0.4836188E-013  0.5052886E+02  0.7816164E-02  0.1300439E+00
        -11   -1    0    0    0    0  0.00000000000E+00  0.00000000000E+00  0.45593999997E+02  0.45594000000E+02  0.51100000000E-03 0.  1.
         11   -1    0    0    0    0 -0.00000000000E+00 -0.00000000000E+00 -0.45593999997E+02  0.45594000000E+02  0.51100000000E-03 0. -1.
    9900012    2    1    2    0    0  0.13356669221E+02  0.33207377421E+02  0.19288213950E+02  0.50528859266E+02  0.29999998224E+02 0.  0.
         12    1    1    2    0    0 -0.13356669221E+02 -0.33207377421E+02 -0.19288213950E+02  0.40659140734E+02  0.00000000000E+00 0. -1.
         11    1    3    3    0    0 -0.98005081427E+00 -0.13536933793E+01 -0.25892047992E+01  0.30817149636E+01  0.51100000000E-03 0. -1.
        -11    1    3    3    0    0  0.11546515719E+02  0.57440419501E+01  0.43860925544E+01  0.13621815273E+02  0.51100000000E-03 0.  1.
        -12    1    3    3    0    0  0.27902043167E+01  0.28817028850E+02  0.17491326195E+02  0.33825329029E+02  0.00000000000E+00 0.  1.
</event>
<event>
 7    1  0.4836188E-013  0.5052887E+02  0.7816164E-02  0.1300439E+00
        -11   -1    0    0    0    0  0.00000000000E+00  0.00000000000E+00  0.45593999997E+02  0.45594000000E+02  0.51100000000E-03 0. -1.
         11   -1    0    0    0    0 -0.00000000000E+00 -0.00000000000E+00 -0.45593999997E+02  0.45594000000E+02  0.51100000000E-03 0.  1.
    9900012    2    1    2    0    0 -0.21939630176E+02  0.30311625965E+02 -0.15906692091E+02  0.50528869486E+02  0.30000029290E+02 0.  0.
         12    1    1    2    0    0  0.21939630176E+02 -0.30311625965E+02  0.15906692091E+02  0.40659130514E+02  0.00000000000E+00 0. -1.
         11    1    3    3    0    0  0.62340920694E+01  0.51999258876E+01 -0.27871588240E+01  0.85832038155E+01  0.51100000000E-03 0. -1.
        -11    1    3    3    0    0 -0.87224434712E+01  0.82745292089E+01 -0.10719503094E+02  0.16107656583E+02  0.51100000000E-03 0.  1.
        -12    1    3    3    0    0 -0.19451278774E+02  0.16837170868E+02 -0.24000301722E+01  0.25838009088E+02  0.00000000000E+00 0.  1.
</event>
<event>
 7    1  0.4836188E-013  0.5052886E+02  0.7816164E-02  0.1300439E+00
        -11   -1    0    0    0    0  0.00000000000E+00  0.00000000000E+00  0.45593999997E+02  0.45594000000E+02  0.51100000000E-03 0.  1.
         11   -1    0    0    0    0 -0.00000000000E+00 -0.00000000000E+00 -0.45593999997E+02  0.45594000000E+02  0.51100000000E-03 0. -1.
    9900012    2    1    2    0    0  0.33564054893E+02  0.20548620022E+02 -0.10216372562E+02  0.50528857928E+02  0.29999994159E+02 0.  0.
         12    1    1    2    0    0 -0.33564054893E+02 -0.20548620022E+02  0.10216372562E+02  0.40659142072E+02  0.00000000000E+00 0. -1.
         11    1    3    3    0    0  0.45621625004E+01  0.11909254634E+02 -0.10962925924E+02  0.16817533044E+02  0.51100000000E-03 0. -1.
        -11    1    3    3    0    0  0.28354973548E+01 -0.33611347757E+01 -0.19256246580E+01  0.48005523447E+01  0.51100000000E-03 0.  1.
         12    1    3    3    0    0  0.26166395038E+02  0.12000500163E+02  0.26721780201E+01  0.28910772539E+02  0.00000000000E+00 0. -1.
</event>
<event>
 7    1  0.4836188E-013  0.5052886E+02  0.7816164E-02  0.1300439E+00
        -11   -1    0    0    0    0  0.00000000000E+00  0.00000000000E+00  0.45593999997E+02  0.45594000000E+02  0.51100000000E-03 0.  1.
         11   -1    0    0    0    0 -0.00000000000E+00 -0.00000000000E+00 -0.45593999997E+02  0.45594000000E+02  0.51100000000E-03 0. -1.
    9900012    2    1    2    0    0  0.16423911431E+02 -0.79385430049E+00  0.37185897061E+02  0.50528855745E+02  0.29999987521E+02 0.  0.
         12    1    1    2    0    0 -0.16423911431E+02  0.79385430049E+00 -0.37185897061E+02  0.40659144255E+02  0.00000000000E+00 0. -1.
         11    1    3    3    0    0 -0.55727097843E+01 -0.35435518818E+00  0.20860721857E+01  0.59609025629E+01  0.51100000000E-03 0. -1.
        -11    1    3    3    0    0  0.79990112283E+01  0.40558775663E+01  0.25445271355E+02  0.26979550738E+02  0.51100000000E-03 0.  1.
        -12    1    3    3    0    0  0.13997609987E+02 -0.44953766786E+01  0.96545535207E+01  0.17588402443E+02  0.00000000000E+00 0.  1.
</event>
<event>
 7    1  0.4836188E-013  0.5052886E+02  0.7816164E-02  0.1300439E+00
        -11   -1    0    0    0    0  0.00000000000E+00  0.00000000000E+00  0.45593999997E+02  0.45594000000E+02  0.51100000000E-03 0. -1.
         11   -1    0    0    0    0 -0.00000000000E+00 -0.00000000000E+00 -0.45593999997E+02  0.45594000000E+02  0.51100000000E-03 0.  1.
    9900012    2    1    2    0    0  0.15666923468E+02  0.63307757868E+01 -0.36981544689E+02  0.50528857601E+02  0.29999993164E+02 0.  0.
         12    1    1    2    0    0 -0.15666923468E+02 -0.63307757868E+01  0.36981544689E+02  0.40659142399E+02  0.00000000000E+00 0. -1.
         11    1    3    3    0    0  0.10503824202E+02  0.40785047202E+01 -0.21495910822E+02  0.24270119611E+02  0.51100000000E-03 0. -1.
        -11    1    3    3    0    0  0.41939452268E+00  0.94305683979E+01 -0.14894958046E+02  0.17634378002E+02  0.51100000000E-03 0.  1.
         12    1    3    3    0    0  0.47437047435E+01 -0.71782973313E+01 -0.59067582120E+00  0.86243599876E+01  0.00000000000E+00 0. -1.
</event>
<event>
 7    1  0.4836188E-013  0.5052886E+02  0.7816164E-02  0.1300439E+00
        -11   -1    0    0    0    0  0.00000000000E+00  0.00000000000E+00  0.45593999997E+02  0.45594000000E+02  0.51100000000E-03 0.  1.
         11   -1    0    0    0    0 -0.00000000000E+00 -0.00000000000E+00 -0.45593999997E+02  0.45594000000E+02  0.51100000000E-03 0. -1.
    9900012    2    1    2    0    0 -0.16502855650E+02 -0.12916723523E+02  0.34842208169E+02  0.50528862512E+02  0.30000008092E+02 0.  0.
         12    1    1    2    0    0  0.16502855650E+02  0.12916723523E+02 -0.34842208169E+02  0.40659137488E+02  0.00000000000E+00 0. -1.
         11    1    3    3    0    0 -0.37635961685E+01  0.18766722313E+01  0.71628842466E+01  0.83062305395E+01  0.51100000000E-03 0.  1.
        -11    1    3    3    0    0 -0.14411360292E+02 -0.63273198499E+01  0.29268974513E+01  0.16009029043E+02  0.51100000000E-03 0. -1.
         12    1    3    3    0    0  0.16721008111E+01 -0.84660759047E+01  0.24752426471E+02  0.26213602929E+02  0.00000000000E+00 0. -1.
</event>
<event>
 7    1  0.4836188E-013  0.5052886E+02  0.7816164E-02  0.1300439E+00
        -11   -1    0    0    0    0  0.00000000000E+00  0.00000000000E+00  0.45593999997E+02  0.45594000000E+02  0.51100000000E-03 0.  1.
         11   -1    0    0    0    0 -0.00000000000E+00 -0.00000000000E+00 -0.45593999997E+02  0.45594000000E+02  0.51100000000E-03 0. -1.
    9900012    2    1    2    0    0  0.34201781480E+02 -0.97190187101E+01  0.19721675562E+02  0.50528859969E+02  0.30000000361E+02 0.  0.
         12    1    1    2    0    0 -0.34201781480E+02  0.97190187101E+01 -0.19721675562E+02  0.40659140031E+02  0.00000000000E+00 0. -1.
         11    1    3    3    0    0  0.32826162024E+02 -0.65578160155E+01  0.97180882853E+01  0.34856894645E+02  0.51100000000E-03 0. -1.
        -11    1    3    3    0    0  0.52861874856E+01  0.79970576382E+00  0.15789027019E+01  0.55746068421E+01  0.51100000000E-03 0.  1.
         12    1    3    3    0    0 -0.39105680291E+01 -0.39609084584E+01  0.84246845745E+01  0.10097358482E+02  0.00000000000E+00 0. -1.
</event>
<event>
 7    1  0.4836188E-013  0.5052886E+02  0.7816164E-02  0.1300439E+00
        -11   -1    0    0    0    0  0.00000000000E+00  0.00000000000E+00  0.45593999997E+02  0.45594000000E+02  0.51100000000E-03 0. -1.
         11   -1    0    0    0    0 -0.00000000000E+00 -0.00000000000E+00 -0.45593999997E+02  0.45594000000E+02  0.51100000000E-03 0.  1.
    9900012    2    1    2    0    0  0.11157333371E+02 -0.35059325757E+02 -0.17306745628E+02  0.50528857674E+02  0.29999993385E+02 0.  0.
         12    1    1    2    0    0 -0.11157333371E+02  0.35059325757E+02  0.17306745628E+02  0.40659142326E+02  0.00000000000E+00 0. -1.
         11    1    3    3    0    0  0.36342038279E+01 -0.23125785419E+02 -0.26763463452E+01  0.23562092834E+02  0.51100000000E-03 0. -1.
        -11    1    3    3    0    0  0.12201257410E+00 -0.13935242289E+02 -0.13145016588E+02  0.19157174272E+02  0.51100000000E-03 0.  1.
         12    1    3    3    0    0  0.74011169686E+01  0.20017019509E+01 -0.14853826946E+01  0.78095905676E+01  0.00000000000E+00 0. -1.
</event>
<event>
 7    1  0.4836188E-013  0.5052884E+02  0.7816164E-02  0.1300439E+00
        -11   -1    0    0    0    0  0.00000000000E+00  0.00000000000E+00  0.45593999997E+02  0.45594000000E+02  0.51100000000E-03 0.  1.
         11   -1    0    0    0    0 -0.00000000000E+00 -0.00000000000E+00 -0.45593999997E+02  0.45594000000E+02  0.51100000000E-03 0. -1.
    9900012    2    1    2    0    0  0.28799040213E+01  0.29173450524E+02  0.28174151990E+02  0.50528844783E+02  0.29999954201E+02 0.  0.
         12    1    1    2    0    0 -0.28799040213E+01 -0.29173450524E+02 -0.28174151990E+02  0.40659155217E+02  0.00000000000E+00 0. -1.
         11    1    3    3    0    0  0.46292246971E+01  0.12018798316E+02  0.13817867584E+02  0.18889539409E+02  0.51100000000E-03 0. -1.
        -11    1    3    3    0    0  0.74035827783E+01  0.71365802706E+01  0.14847389623E+02  0.18060697517E+02  0.51100000000E-03 0.  1.
         12    1    3    3    0    0 -0.91529034540E+01  0.10018071938E+02 -0.49110521746E+00  0.13578607856E+02  0.00000000000E+00 0. -1.
</event>
<event>
 7    1  0.4836188E-013  0.5052886E+02  0.7816164E-02  0.1300439E+00
        -11   -1    0    0    0    0  0.00000000000E+00  0.00000000000E+00  0.45593999997E+02  0.45594000000E+02  0.51100000000E-03 0.  1.
         11   -1    0    0    0    0 -0.00000000000E+00 -0.00000000000E+00 -0.45593999997E+02  0.45594000000E+02  0.51100000000E-03 0. -1.
    9900012    2    1    2    0    0  0.37168323914E+02 -0.13373784155E+02 -0.96344785808E+01  0.50528861019E+02  0.30000003553E+02 0.  0.
         12    1    1    2    0    0 -0.37168323914E+02  0.13373784155E+02  0.96344785808E+01  0.40659138981E+02  0.00000000000E+00 0. -1.
         11    1    3    3    0    0  0.76435216719E+01 -0.94301271673E+01 -0.14811961444E+02  0.19150585474E+02  0.51100000000E-03 0. -1.
        -11    1    3    3    0    0  0.10856586412E+02 -0.55530111853E+01  0.15424971729E+01  0.12291488906E+02  0.51100000000E-03 0.  1.
        -12    1    3    3    0    0  0.18668215830E+02  0.16093541977E+01  0.36349856901E+01  0.19086786638E+02  0.00000000000E+00 0.  1.
</event>
<event>
 7    1  0.4836188E-013  0.5052886E+02  0.7816164E-02  0.1300439E+00
        -11   -1    0    0    0    0  0.00000000000E+00  0.00000000000E+00  0.45593999997E+02  0.45594000000E+02  0.51100000000E-03 0.  1.
         11   -1    0    0    0    0 -0.00000000000E+00 -0.00000000000E+00 -0.45593999997E+02  0.45594000000E+02  0.51100000000E-03 0. -1.
    9900012    2    1    2    0    0  0.17010943114E+02  0.12924489057E+02  0.34594086010E+02  0.50528863390E+02  0.30000010759E+02 0.  0.
         12    1    1    2    0    0 -0.17010943114E+02 -0.12924489057E+02 -0.34594086010E+02  0.40659136610E+02  0.00000000000E+00 0. -1.
         11    1    3    3    0    0 -0.31420175821E+01 -0.52766604013E+01  0.13294535790E+01  0.62835393336E+01  0.51100000000E-03 0. -1.
        -11    1    3    3    0    0  0.70620465216E+01  0.29316773578E+01  0.37171190542E+01  0.85020119694E+01  0.51100000000E-03 0.  1.
        -12    1    3    3    0    0  0.13090914174E+02  0.15269472101E+02  0.29547513377E+02  0.35743312087E+02  0.00000000000E+00 0.  1.
</event>
<event>
 7    1  0.4836188E-013  0.5052886E+02  0.7816164E-02  0.1300439E+00
        -11   -1    0    0    0    0  0.00000000000E+00  0.00000000000E+00  0.45593999997E+02  0.45594000000E+02  0.51100000000E-03 0.  1.
         11   -1    0    0    0    0 -0.00000000000E+00 -0.00000000000E+00 -0.45593999997E+02  0.45594000000E+02  0.51100000000E-03 0. -1.
    9900012    2    1    2    0    0 -0.40038142913E+02  0.19333825669E+01 -0.68098959323E+01  0.50528861560E+02  0.30000005199E+02 0.  0.
         12    1    1    2    0    0  0.40038142913E+02 -0.19333825669E+01  0.68098959323E+01  0.40659138440E+02  0.00000000000E+00 0. -1.
         11    1    3    3    0    0 -0.30668643410E+01  0.68082268507E+01 -0.44558458514E+00  0.74803847241E+01  0.51100000000E-03 0. -1.
        -11    1    3    3    0    0 -0.14999304867E+02 -0.39727129285E+01  0.73109975235E+01  0.17152617280E+02  0.51100000000E-03 0.  1.
         12    1    3    3    0    0 -0.21971973704E+02 -0.90213135521E+00 -0.13675308871E+02  0.25895859556E+02  0.00000000000E+00 0. -1.
</event>
<event>
 7    1  0.4836188E-013  0.5052886E+02  0.7816164E-02  0.1300439E+00
        -11   -1    0    0    0    0  0.00000000000E+00  0.00000000000E+00  0.45593999997E+02  0.45594000000E+02  0.51100000000E-03 0.  1.
         11   -1    0    0    0    0 -0.00000000000E+00 -0.00000000000E+00 -0.45593999997E+02  0.45594000000E+02  0.51100000000E-03 0. -1.
    9900012    2    1    2    0    0  0.27659347925E+02  0.10770547558E+02  0.27787071224E+02  0.50528861426E+02  0.30000004791E+02 0.  0.
         12    1    1    2    0    0 -0.27659347925E+02 -0.10770547558E+02 -0.27787071224E+02  0.40659138574E+02  0.00000000000E+00 0. -1.
         11    1    3    3    0    0  0.85038972683E+01  0.13758950024E+02  0.53844504236E+01  0.17047500730E+02  0.51100000000E-03 0. -1.
        -11    1    3    3    0    0 -0.91072241741E+00  0.23801416070E+01  0.74873120303E+01  0.79091296039E+01  0.51100000000E-03 0.  1.
        -12    1    3    3    0    0  0.20066173074E+02 -0.53685440735E+01  0.14915308771E+02  0.25572231092E+02  0.00000000000E+00 0.  1.
</event>
<event>
 7    1  0.4836188E-013  0.5052886E+02  0.7816164E-02  0.1300439E+00
        -11   -1    0    0    0    0  0.00000000000E+00  0.00000000000E+00  0.45593999997E+02  0.45594000000E+02  0.51100000000E-03 0. -1.
         11   -1    0    0    0    0 -0.00000000000E+00 -0.00000000000E+00 -0.45593999997E+02  0.45594000000E+02  0.51100000000E-03 0.  1.
    9900012    2    1    2    0    0  0.40197602502E+02  0.53019470839E+01 -0.30344350322E+01  0.50528859752E+02  0.29999999702E+02 0.  0.
         12    1    1    2    0    0 -0.40197602502E+02 -0.53019470839E+01  0.30344350322E+01  0.40659140248E+02  0.00000000000E+00 0. -1.
         11    1    3    3    0    0  0.20000272764E+01 -0.62724728221E+01  0.22449604135E+01  0.69558516322E+01  0.51100000000E-03 0. -1.
        -11    1    3    3    0    0  0.19154627070E+02 -0.26976587032E+01 -0.81890084184E+00  0.19360983950E+02  0.51100000000E-03 0.  1.
         12    1    3    3    0    0  0.19042948156E+02  0.14272078609E+02 -0.44604946039E+01  0.24212024170E+02  0.00000000000E+00 0. -1.
</event>
<event>
 7    1  0.4836188E-013  0.5052886E+02  0.7816164E-02  0.1300439E+00
        -11   -1    0    0    0    0  0.00000000000E+00  0.00000000000E+00  0.45593999997E+02  0.45594000000E+02  0.51100000000E-03 0.  1.
         11   -1    0    0    0    0 -0.00000000000E+00 -0.00000000000E+00 -0.45593999997E+02  0.45594000000E+02  0.51100000000E-03 0. -1.
    9900012    2    1    2    0    0 -0.30719026331E+02  0.24182763384E+02  0.11166953524E+02  0.50528862348E+02  0.30000007592E+02 0.  0.
         12    1    1    2    0    0  0.30719026331E+02 -0.24182763384E+02 -0.11166953524E+02  0.40659137652E+02  0.00000000000E+00 0. -1.
         11    1    3    3    0    0 -0.71832305365E+01  0.20726875205E+01 -0.65645404913E+01  0.99492726679E+01  0.51100000000E-03 0. -1.
        -11    1    3    3    0    0  0.15780847751E-01  0.88366724505E+01  0.12693664558E+01  0.89273915839E+01  0.51100000000E-03 0.  1.
         12    1    3    3    0    0 -0.23551576643E+02  0.13273403413E+02  0.16462127560E+02  0.31652198096E+02  0.00000000000E+00 0. -1.
</event>
<event>
 7    1  0.4836188E-013  0.5052886E+02  0.7816164E-02  0.1300439E+00
        -11   -1    0    0    0    0  0.00000000000E+00  0.00000000000E+00  0.45593999997E+02  0.45594000000E+02  0.51100000000E-03 0. -1.
         11   -1    0    0    0    0 -0.00000000000E+00 -0.00000000000E+00 -0.45593999997E+02  0.45594000000E+02  0.51100000000E-03 0.  1.
    9900012    2    1    2    0    0  0.34985252499E+02  0.19347904041E+02  0.74065224293E+01  0.50528857637E+02  0.29999993273E+02 0.  0.
         12    1    1    2    0    0 -0.34985252499E+02 -0.19347904041E+02 -0.74065224293E+01  0.40659142363E+02  0.00000000000E+00 0. -1.
         11    1    3    3    0    0  0.27505847142E+01  0.30323578135E+01  0.79150492535E+01  0.89111680001E+01  0.51100000000E-03 0. -1.
        -11    1    3    3    0    0  0.19313078383E+02  0.20130913505E+02  0.17703183646E+01  0.27953223473E+02  0.51100000000E-03 0.  1.
        -12    1    3    3    0    0  0.12921589402E+02 -0.38153672776E+01 -0.22788451889E+01  0.13664466163E+02  0.00000000000E+00 0.  1.
</event>
<event>
 7    1  0.4836188E-013  0.5052886E+02  0.7816164E-02  0.1300439E+00
        -11   -1    0    0    0    0  0.00000000000E+00  0.00000000000E+00  0.45593999997E+02  0.45594000000E+02  0.51100000000E-03 0.  1.
         11   -1    0    0    0    0 -0.00000000000E+00 -0.00000000000E+00 -0.45593999997E+02  0.45594000000E+02  0.51100000000E-03 0. -1.
    9900012    2    1    2    0    0 -0.22971458470E+02 -0.27806393033E+02 -0.18769184856E+02  0.50528859602E+02  0.29999999246E+02 0.  0.
         12    1    1    2    0    0  0.22971458470E+02  0.27806393033E+02  0.18769184856E+02  0.40659140398E+02  0.00000000000E+00 0. -1.
         11    1    3    3    0    0 -0.11416187396E+01 -0.95301996661E+01 -0.59824337097E+01  0.11310062439E+02  0.51100000000E-03 0. -1.
        -11    1    3    3    0    0 -0.28487931891E+01 -0.38776966798E+01  0.68319908338E+01  0.83563301269E+01  0.51100000000E-03 0.  1.
         12    1    3    3    0    0 -0.18981046541E+02 -0.14398496687E+02 -0.19618741981E+02  0.30862467036E+02  0.00000000000E+00 0. -1.
</event>
<event>
 7    1  0.4836188E-013  0.5052886E+02  0.7816164E-02  0.1300439E+00
        -11   -1    0    0    0    0  0.00000000000E+00  0.00000000000E+00  0.45593999997E+02  0.45594000000E+02  0.51100000000E-03 0.  1.
         11   -1    0    0    0    0 -0.00000000000E+00 -0.00000000000E+00 -0.45593999997E+02  0.45594000000E+02  0.51100000000E-03 0. -1.
    9900012    2    1    2    0    0 -0.99006206382E+01  0.38159509898E+02  0.99496126589E+01  0.50528864781E+02  0.30000014988E+02 0.  0.
         12    1    1    2    0    0  0.99006206382E+01 -0.38159509898E+02 -0.99496126589E+01  0.40659135219E+02  0.00000000000E+00 0. -1.
         11    1    3    3    0    0 -0.14382260724E+01  0.34759764615E+01 -0.86679283023E+01  0.94490151821E+01  0.51100000000E-03 0. -1.
        -11    1    3    3    0    0 -0.74653294796E+01  0.14252361847E+02  0.69033031441E+01  0.17507614258E+02  0.51100000000E-03 0.  1.
        -12    1    3    3    0    0 -0.99706508626E+00  0.20431171590E+02  0.11714237817E+02  0.23572235341E+02  0.00000000000E+00 0.  1.
</event>
<event>
 7    1  0.4836188E-013  0.5052885E+02  0.7816164E-02  0.1300439E+00
        -11   -1    0    0    0    0  0.00000000000E+00  0.00000000000E+00  0.45593999997E+02  0.45594000000E+02  0.51100000000E-03 0.  1.
         11   -1    0    0    0    0 -0.00000000000E+00 -0.00000000000E+00 -0.45593999997E+02  0.45594000000E+02  0.51100000000E-03 0. -1.
    9900012    2    1    2    0    0  0.17192100357E+02 -0.33944111134E+02  0.14331624373E+02  0.50528850322E+02  0.29999971039E+02 0.  0.
         12    1    1    2    0    0 -0.17192100357E+02  0.33944111134E+02 -0.14331624373E+02  0.40659149678E+02  0.00000000000E+00 0. -1.
         11    1    3    3    0    0  0.57050342958E+01 -0.29294774361E+00  0.12972207608E+01  0.58579874241E+01  0.51100000000E-03 0. -1.
        -11    1    3    3    0    0  0.18441705141E+02 -0.26993040339E+02  0.12592637227E+02  0.35032773624E+02  0.51100000000E-03 0.  1.
         12    1    3    3    0    0 -0.69546390799E+01 -0.66581230517E+01  0.44176638551E+00  0.96380892734E+01  0.00000000000E+00 0. -1.
</event>
<event>
 7    1  0.4836188E-013  0.5052888E+02  0.7816164E-02  0.1300439E+00
        -11   -1    0    0    0    0  0.00000000000E+00  0.00000000000E+00  0.45593999997E+02  0.45594000000E+02  0.51100000000E-03 0. -1.
         11   -1    0    0    0    0 -0.00000000000E+00 -0.00000000000E+00 -0.45593999997E+02  0.45594000000E+02  0.51100000000E-03 0.  1.
    9900012    2    1    2    0    0  0.24535614524E+02  0.32984675874E+01 -0.32253492723E+02  0.50528879728E+02  0.30000060420E+02 0.  0.
         12    1    1    2    0    0 -0.24535614524E+02 -0.32984675874E+01  0.32253492723E+02  0.40659120272E+02  0.00000000000E+00 0. -1.
         11    1    3    3    0    0  0.23205737940E+02  0.50169768223E+01 -0.20253767558E+02  0.31207233622E+02  0.51100000000E-03 0.  1.
        -11    1    3    3    0    0  0.45609393678E+01  0.25989374795E+01  0.91289033920E+00  0.53282279391E+01  0.51100000000E-03 0. -1.
        -12    1    3    3    0    0 -0.32310627832E+01 -0.43174467144E+01 -0.12912615503E+02  0.13993418166E+02  0.00000000000E+00 0.  1.
</event>
<event>
 7    1  0.4836188E-013  0.5052886E+02  0.7816164E-02  0.1300439E+00
        -11   -1    0    0    0    0  0.00000000000E+00  0.00000000000E+00  0.45593999997E+02  0.45594000000E+02  0.51100000000E-03 0.  1.
         11   -1    0    0    0    0 -0.00000000000E+00 -0.00000000000E+00 -0.45593999997E+02  0.45594000000E+02  0.51100000000E-03 0. -1.
    9900012    2    1    2    0    0  0.23383429749E+02  0.32380166908E+02 -0.76095627739E+01  0.50528862756E+02  0.30000008834E+02 0.  0.
         12    1    1    2    0    0 -0.23383429749E+02 -0.32380166908E+02  0.76095627739E+01  0.40659137244E+02  0.00000000000E+00 0. -1.
         11    1    3    3    0    0  0.29867273358E+01  0.77352024705E+00 -0.18148375971E+01  0.35794565950E+01  0.51100000000E-03 0. -1.
        -11    1    3    3    0    0  0.18166353555E+02  0.21803644746E+02  0.83619373267E+01  0.29586100146E+02  0.51100000000E-03 0.  1.
        -12    1    3    3    0    0  0.22303488580E+01  0.98030019144E+01 -0.14156662503E+02  0.17363306016E+02  0.00000000000E+00 0.  1.
</event>
<event>
 7    1  0.4836188E-013  0.5052884E+02  0.7816164E-02  0.1300439E+00
        -11   -1    0    0    0    0  0.00000000000E+00  0.00000000000E+00  0.45593999997E+02  0.45594000000E+02  0.51100000000E-03 0. -1.
         11   -1    0    0    0    0 -0.00000000000E+00 -0.00000000000E+00 -0.45593999997E+02  0.45594000000E+02  0.51100000000E-03 0.  1.
    9900012    2    1    2    0    0  0.10966301950E+02  0.31856997829E+02 -0.22760473055E+02  0.50528840849E+02  0.29999942245E+02 0.  0.
         12    1    1    2    0    0 -0.10966301950E+02 -0.31856997829E+02  0.22760473055E+02  0.40659159151E+02  0.00000000000E+00 0. -1.
         11    1    3    3    0    0  0.29602859558E+01  0.98494078177E+01 -0.63822514752E+01  0.12104018401E+02  0.51100000000E-03 0. -1.
        -11    1    3    3    0    0  0.15877480965E+02  0.12094588644E+02 -0.33111577028E+01  0.20232084467E+02  0.51100000000E-03 0.  1.
         12    1    3    3    0    0 -0.78714649706E+01  0.99130013676E+01 -0.13067063877E+02  0.18192737982E+02  0.00000000000E+00 0. -1.
</event>
<event>
 7    1  0.4836188E-013  0.5052886E+02  0.7816164E-02  0.1300439E+00
        -11   -1    0    0    0    0  0.00000000000E+00  0.00000000000E+00  0.45593999997E+02  0.45594000000E+02  0.51100000000E-03 0. -1.
         11   -1    0    0    0    0 -0.00000000000E+00 -0.00000000000E+00 -0.45593999997E+02  0.45594000000E+02  0.51100000000E-03 0.  1.
    9900012    2    1    2    0    0 -0.85273527545E+01 -0.36322423878E+02 -0.16159560286E+02  0.50528860682E+02  0.30000002530E+02 0.  0.
         12    1    1    2    0    0  0.85273527545E+01  0.36322423878E+02  0.16159560286E+02  0.40659139318E+02  0.00000000000E+00 0. -1.
         11    1    3    3    0    0 -0.16600622233E+01 -0.95345388427E+01 -0.16018683646E+02  0.18715273537E+02  0.51100000000E-03 0. -1.
        -11    1    3    3    0    0  0.38838960362E+01 -0.12292834743E+01  0.27032868828E+00  0.40827520303E+01  0.51100000000E-03 0.  1.
        -12    1    3    3    0    0 -0.10751186567E+02 -0.25558601561E+02 -0.41120532814E+00  0.27730835116E+02  0.00000000000E+00 0.  1.
</event>
<event>
 7    1  0.4836188E-013  0.5052886E+02  0.7816164E-02  0.1300439E+00
        -11   -1    0    0    0    0  0.00000000000E+00  0.00000000000E+00  0.45593999997E+02  0.45594000000E+02  0.51100000000E-03 0.  1.
         11   -1    0    0    0    0 -0.00000000000E+00 -0.00000000000E+00 -0.45593999997E+02  0.45594000000E+02  0.51100000000E-03 0. -1.
    9900012    2    1    2    0    0 -0.85056962728E+00 -0.12681394378E+02  0.38621554866E+02  0.50528859179E+02  0.29999997961E+02 0.  0.
         12    1    1    2    0    0  0.85056962728E+00  0.12681394378E+02 -0.38621554866E+02  0.40659140821E+02  0.00000000000E+00 0. -1.
         11    1    3    3    0    0 -0.10656031642E+02 -0.10852520225E+02  0.10049603171E+02  0.18229721055E+02  0.51100000000E-03 0. -1.
        -11    1    3    3    0    0  0.46937331970E+01 -0.42663521392E+01  0.24542153750E+02  0.25348573980E+02  0.51100000000E-03 0.  1.
        -12    1    3    3    0    0  0.51117288174E+01  0.24374779868E+01  0.40297979445E+01  0.69505641435E+01  0.00000000000E+00 0.  1.
</event>
<event>
 7    1  0.4836188E-013  0.5052885E+02  0.7816164E-02  0.1300439E+00
        -11   -1    0    0    0    0  0.00000000000E+00  0.00000000000E+00  0.45593999997E+02  0.45594000000E+02  0.51100000000E-03 0.  1.
         11   -1    0    0    0    0 -0.00000000000E+00 -0.00000000000E+00 -0.45593999997E+02  0.45594000000E+02  0.51100000000E-03 0. -1.
    9900012    2    1    2    0    0 -0.64661550519E+01 -0.30471712104E+02 -0.26131022757E+02  0.50528846663E+02  0.29999959918E+02 0.  0.
         12    1    1    2    0    0  0.64661550519E+01  0.30471712104E+02  0.26131022757E+02  0.40659153337E+02  0.00000000000E+00 0. -1.
         11    1    3    3    0    0 -0.10362027920E+01  0.14734395390E+01 -0.34120342292E+01  0.38583310050E+01  0.51100000000E-03 0. -1.
        -11    1    3    3    0    0  0.26836461457E+01 -0.79565693118E+01 -0.19388711834E+02  0.21128916174E+02  0.51100000000E-03 0.  1.
        -12    1    3    3    0    0 -0.81135984055E+01 -0.23988582332E+02 -0.33302766938E+01  0.25541599484E+02  0.00000000000E+00 0.  1.
</event>
<event>
 7    1  0.4836188E-013  0.5052886E+02  0.7816164E-02  0.1300439E+00
        -11   -1    0    0    0    0  0.00000000000E+00  0.00000000000E+00  0.45593999997E+02  0.45594000000E+02  0.51100000000E-03 0.  1.
         11   -1    0    0    0    0 -0.00000000000E+00 -0.00000000000E+00 -0.45593999997E+02  0.45594000000E+02  0.51100000000E-03 0. -1.
    9900012    2    1    2    0    0 -0.39879778146E+02  0.78542803132E+01 -0.10388498827E+01  0.50528860396E+02  0.30000001661E+02 0.  0.
         12    1    1    2    0    0  0.39879778146E+02 -0.78542803132E+01  0.10388498827E+01  0.40659139604E+02  0.00000000000E+00 0. -1.
         11    1    3    3    0    0 -0.24699443202E+02  0.15341113313E+02 -0.70923610518E+01  0.29928478707E+02  0.51100000000E-03 0.  1.
        -11    1    3    3    0    0 -0.85798802676E+01 -0.53405329451E+01 -0.16404028591E+01  0.10238484231E+02  0.51100000000E-03 0. -1.
        -12    1    3    3    0    0 -0.66004546769E+01 -0.21463000551E+01  0.76939140283E+01  0.10361897459E+02  0.00000000000E+00 0.  1.
</event>
<event>
 7    1  0.4836188E-013  0.5052885E+02  0.7816164E-02  0.1300439E+00
        -11   -1    0    0    0    0  0.00000000000E+00  0.00000000000E+00  0.45593999997E+02  0.45594000000E+02  0.51100000000E-03 0. -1.
         11   -1    0    0    0    0 -0.00000000000E+00 -0.00000000000E+00 -0.45593999997E+02  0.45594000000E+02  0.51100000000E-03 0.  1.
    9900012    2    1    2    0    0  0.31635545641E+02 -0.12719448458E+02 -0.22148913102E+02  0.50528850124E+02  0.29999970436E+02 0.  0.
         12    1    1    2    0    0 -0.31635545641E+02  0.12719448458E+02  0.22148913102E+02  0.40659149876E+02  0.00000000000E+00 0. -1.
         11    1    3    3    0    0  0.18190865571E+02 -0.10439139879E+02 -0.12142123639E+02  0.24234570315E+02  0.51100000000E-03 0. -1.
        -11    1    3    3    0    0  0.15041189275E+02  0.31650270702E+01 -0.12769563484E+02  0.19982905770E+02  0.51100000000E-03 0.  1.
         12    1    3    3    0    0 -0.15965092054E+01 -0.54453356488E+01  0.27627740209E+01  0.63113740391E+01  0.00000000000E+00 0. -1.
</event>
<event>
 7    1  0.4836188E-013  0.5052885E+02  0.7816164E-02  0.1300439E+00
        -11   -1    0    0    0    0  0.00000000000E+00  0.00000000000E+00  0.45593999997E+02  0.45594000000E+02  0.51100000000E-03 0.  1.
         11   -1    0    0    0    0 -0.00000000000E+00 -0.00000000000E+00 -0.45593999997E+02  0.45594000000E+02  0.51100000000E-03 0. -1.
    9900012    2    1    2    0    0 -0.13390670100E+01  0.39400854600E+02  0.99471638037E+01  0.50528849598E+02  0.29999968837E+02 0.  0.
         12    1    1    2    0    0  0.13390670100E+01 -0.39400854600E+02 -0.99471638037E+01  0.40659150402E+02  0.00000000000E+00 0. -1.
         11    1    3    3    0    0 -0.14589904938E+01  0.10971782324E+02  0.11625531992E+02  0.16051842729E+02  0.51100000000E-03 0. -1.
        -11    1    3    3    0    0  0.17412020883E+01  0.15758555060E+02  0.86404228441E+01  0.18056044680E+02  0.51100000000E-03 0.  1.
         12    1    3    3    0    0 -0.16212786045E+01  0.12670517216E+02 -0.10318791033E+02  0.16420962189E+02  0.00000000000E+00 0. -1.
</event>
<event>
 7    1  0.4836188E-013  0.5052886E+02  0.7816164E-02  0.1300439E+00
        -11   -1    0    0    0    0  0.00000000000E+00  0.00000000000E+00  0.45593999997E+02  0.45594000000E+02  0.51100000000E-03 0.  1.
         11   -1    0    0    0    0 -0.00000000000E+00 -0.00000000000E+00 -0.45593999997E+02  0.45594000000E+02  0.51100000000E-03 0. -1.
    9900012    2    1    2    0    0 -0.11320118275E+01 -0.31845225655E+01  0.40518429518E+02  0.50528858773E+02  0.29999996725E+02 0.  0.
         12    1    1    2    0    0  0.11320118275E+01  0.31845225655E+01 -0.40518429518E+02  0.40659141227E+02  0.00000000000E+00 0. -1.
         11    1    3    3    0    0  0.31888186335E+01 -0.29936129421E+01 -0.90337875511E+00  0.44661366035E+01  0.51100000000E-03 0. -1.
        -11    1    3    3    0    0  0.52028743981E+01  0.58514473708E+01  0.10150518093E+02  0.12819608268E+02  0.51100000000E-03 0.  1.
         12    1    3    3    0    0 -0.95237048591E+01 -0.60423569942E+01  0.31271290180E+02  0.33243113901E+02  0.00000000000E+00 0. -1.
</event>
<event>
 7    1  0.4836188E-013  0.5052885E+02  0.7816164E-02  0.1300439E+00
        -11   -1    0    0    0    0  0.00000000000E+00  0.00000000000E+00  0.45593999997E+02  0.45594000000E+02  0.51100000000E-03 0. -1.
         11   -1    0    0    0    0 -0.00000000000E+00 -0.00000000000E+00 -0.45593999997E+02  0.45594000000E+02  0.51100000000E-03 0.  1.
    9900012    2    1    2    0    0  0.36609901341E+02 -0.12578176347E+02 -0.12436673251E+02  0.50528852960E+02  0.29999979057E+02 0.  0.
         12    1    1    2    0    0 -0.36609901341E+02  0.12578176347E+02  0.12436673251E+02  0.40659147040E+02  0.00000000000E+00 0. -1.
         11    1    3    3    0    0  0.12554170112E+02 -0.17213674193E+02 -0.13236264377E+01  0.21346422502E+02  0.51100000000E-03 0. -1.
        -11    1    3    3    0    0  0.48406337332E+01  0.58788090859E+01 -0.19658530335E+01  0.78649036623E+01  0.51100000000E-03 0.  1.
        -12    1    3    3    0    0  0.19215097496E+02 -0.12433112400E+01 -0.91471937803E+01  0.21317526796E+02  0.00000000000E+00 0.  1.
</event>
<event>
 7    1  0.4836188E-013  0.5052885E+02  0.7816164E-02  0.1300439E+00
        -11   -1    0    0    0    0  0.00000000000E+00  0.00000000000E+00  0.45593999997E+02  0.45594000000E+02  0.51100000000E-03 0. -1.
         11   -1    0    0    0    0 -0.00000000000E+00 -0.00000000000E+00 -0.45593999997E+02  0.45594000000E+02  0.51100000000E-03 0.  1.
    9900012    2    1    2    0    0  0.43690590819E+00  0.16333419211E+02 -0.37231639414E+02  0.50528850435E+02  0.29999971381E+02 0.  0.
         12    1    1    2    0    0 -0.43690590819E+00 -0.16333419211E+02  0.37231639414E+02  0.40659149565E+02  0.00000000000E+00 0. -1.
         11    1    3    3    0    0 -0.18871026538E+01 -0.24012731477E+01 -0.27381480271E+02  0.27551274585E+02  0.51100000000E-03 0.  1.
        -11    1    3    3    0    0 -0.31871109361E+01  0.89722333877E+01 -0.51094354033E+01  0.10805784492E+02  0.51100000000E-03 0. -1.
        -12    1    3    3    0    0  0.55111194981E+01  0.97624589711E+01 -0.47407237401E+01  0.12171791358E+02  0.00000000000E+00 0.  1.
</event>
<event>
 7    1  0.4836188E-013  0.5052886E+02  0.7816164E-02  0.1300439E+00
        -11   -1    0    0    0    0  0.00000000000E+00  0.00000000000E+00  0.45593999997E+02  0.45594000000E+02  0.51100000000E-03 0. -1.
         11   -1    0    0    0    0 -0.00000000000E+00 -0.00000000000E+00 -0.45593999997E+02  0.45594000000E+02  0.51100000000E-03 0.  1.
    9900012    2    1    2    0    0 -0.24581936484E+02 -0.24824295647E+02  0.20800201940E+02  0.50528860112E+02  0.30000000796E+02 0.  0.
         12    1    1    2    0    0  0.24581936484E+02  0.24824295647E+02 -0.20800201940E+02  0.40659139888E+02  0.00000000000E+00 0. -1.
         11    1    3    3    0    0 -0.15443353110E+02 -0.95166353572E+01  0.30559971901E+01  0.18395722951E+02  0.51100000000E-03 0. -1.
        -11    1    3    3    0    0 -0.14498980715E+02 -0.67920099521E+01  0.14387761209E+02  0.21525787183E+02  0.51100000000E-03 0.  1.
         12    1    3    3    0    0  0.53603973403E+01 -0.85156503379E+01  0.33564435403E+01  0.10607349978E+02  0.00000000000E+00 0. -1.
</event>
<event>
 7    1  0.4836188E-013  0.5052886E+02  0.7816164E-02  0.1300439E+00
        -11   -1    0    0    0    0  0.00000000000E+00  0.00000000000E+00  0.45593999997E+02  0.45594000000E+02  0.51100000000E-03 0.  1.
         11   -1    0    0    0    0 -0.00000000000E+00 -0.00000000000E+00 -0.45593999997E+02  0.45594000000E+02  0.51100000000E-03 0. -1.
    9900012    2    1    2    0    0 -0.20548943043E+02  0.32386827029E+02  0.13490727079E+02  0.50528863974E+02  0.30000012536E+02 0.  0.
         12    1    1    2    0    0  0.20548943043E+02 -0.32386827029E+02 -0.13490727079E+02  0.40659136026E+02  0.00000000000E+00 0. -1.
         11    1    3    3    0    0 -0.17809278124E+02  0.17078422744E+02 -0.12927572408E+01  0.24708584182E+02  0.51100000000E-03 0. -1.
        -11    1    3    3    0    0  0.28462785370E+01  0.79117241420E+01  0.43561457522E-01  0.84082446605E+01  0.51100000000E-03 0.  1.
         12    1    3    3    0    0 -0.55859434560E+01  0.73966801431E+01  0.14739922863E+02  0.17412035132E+02  0.00000000000E+00 0. -1.
</event>
<event>
 7    1  0.4836188E-013  0.5052885E+02  0.7816164E-02  0.1300439E+00
        -11   -1    0    0    0    0  0.00000000000E+00  0.00000000000E+00  0.45593999997E+02  0.45594000000E+02  0.51100000000E-03 0.  1.
         11   -1    0    0    0    0 -0.00000000000E+00 -0.00000000000E+00 -0.45593999997E+02  0.45594000000E+02  0.51100000000E-03 0. -1.
    9900012    2    1    2    0    0 -0.52276630863E+01  0.16681240603E+02  0.36709324400E+02  0.50528846697E+02  0.29999960021E+02 0.  0.
         12    1    1    2    0    0  0.52276630863E+01 -0.16681240603E+02 -0.36709324400E+02  0.40659153303E+02  0.00000000000E+00 0. -1.
         11    1    3    3    0    0  0.10960090035E+01  0.84699289023E+01  0.47506373890E+00  0.85537487199E+01  0.51100000000E-03 0. -1.
        -11    1    3    3    0    0 -0.47333942141E+01  0.95933563404E+01  0.72694723699E+01  0.12933782720E+02  0.51100000000E-03 0.  1.
        -12    1    3    3    0    0 -0.15902778757E+01 -0.13820446395E+01  0.28964788291E+02  0.29041315257E+02  0.00000000000E+00 0.  1.
</event>
<event>
 7    1  0.4836188E-013  0.5052885E+02  0.7816164E-02  0.1300439E+00
        -11   -1    0    0    0    0  0.00000000000E+00  0.00000000000E+00  0.45593999997E+02  0.45594000000E+02  0.51100000000E-03 0. -1.
         11   -1    0    0    0    0 -0.00000000000E+00 -0.00000000000E+00 -0.45593999997E+02  0.45594000000E+02  0.51100000000E-03 0.  1.
    9900012    2    1    2    0    0  0.14966679645E+01  0.32456646356E+02 -0.24443653037E+02  0.50528854885E+02  0.29999984909E+02 0.  0.
         12    1    1    2    0    0 -0.14966679645E+01 -0.32456646356E+02  0.24443653037E+02  0.40659145115E+02  0.00000000000E+00 0. -1.
         11    1    3    3    0    0  0.60911280568E+01  0.55674289284E+01  0.13478333029E+01  0.83615046942E+01  0.51100000000E-03 0. -1.
        -11    1    3    3    0    0  0.50305134935E+00  0.21218997520E+02 -0.77755616136E+01  0.22604386192E+02  0.51100000000E-03 0.  1.
        -12    1    3    3    0    0 -0.50975114417E+01  0.56702199067E+01 -0.18015924727E+02  0.19562964000E+02  0.00000000000E+00 0.  1.
</event>
<event>
 7    1  0.4836188E-013  0.5052885E+02  0.7816164E-02  0.1300439E+00
        -11   -1    0    0    0    0  0.00000000000E+00  0.00000000000E+00  0.45593999997E+02  0.45594000000E+02  0.51100000000E-03 0.  1.
         11   -1    0    0    0    0 -0.00000000000E+00 -0.00000000000E+00 -0.45593999997E+02  0.45594000000E+02  0.51100000000E-03 0. -1.
    9900012    2    1    2    0    0 -0.25170352045E+02  0.38625982370E+01  0.31697002508E+02  0.50528852748E+02  0.29999978414E+02 0.  0.
         12    1    1    2    0    0  0.25170352045E+02 -0.38625982370E+01 -0.31697002508E+02  0.40659147252E+02  0.00000000000E+00 0. -1.
         11    1    3    3    0    0  0.15012982066E+01 -0.15434159320E+01  0.70459350020E+00  0.22654980260E+01  0.51100000000E-03 0. -1.
        -11    1    3    3    0    0 -0.48294299360E+01  0.12887251676E+02  0.95244272063E+01  0.16736766807E+02  0.51100000000E-03 0.  1.
        -12    1    3    3    0    0 -0.21842220316E+02 -0.74812375071E+01  0.21467981802E+02  0.31526587916E+02  0.00000000000E+00 0.  1.
</event>
<event>
 7    1  0.4836188E-013  0.5052886E+02  0.7816164E-02  0.1300439E+00
        -11   -1    0    0    0    0  0.00000000000E+00  0.00000000000E+00  0.45593999997E+02  0.45594000000E+02  0.51100000000E-03 0.  1.
         11   -1    0    0    0    0 -0.00000000000E+00 -0.00000000000E+00 -0.45593999997E+02  0.45594000000E+02  0.51100000000E-03 0. -1.
    9900012    2    1    2    0    0 -0.22390862614E+02 -0.76205193137E+01  0.33071781971E+02  0.50528858273E+02  0.29999995206E+02 0.  0.
         12    1    1    2    0    0  0.22390862614E+02  0.76205193137E+01 -0.33071781971E+02  0.40659141727E+02  0.00000000000E+00 0. -1.
         11    1    3    3    0    0 -0.57444217368E+01 -0.42655871653E+01  0.19967964984E+02  0.21211158404E+02  0.51100000000E-03 0. -1.
        -11    1    3    3    0    0 -0.92695856425E+01  0.57501886704E+01  0.13785772261E+02  0.17579459742E+02  0.51100000000E-03 0.  1.
         12    1    3    3    0    0 -0.73768552352E+01 -0.91051208187E+01 -0.68195527397E+00  0.11738240127E+02  0.00000000000E+00 0. -1.
</event>
<event>
 7    1  0.4836188E-013  0.5052885E+02  0.7816164E-02  0.1300439E+00
        -11   -1    0    0    0    0  0.00000000000E+00  0.00000000000E+00  0.45593999997E+02  0.45594000000E+02  0.51100000000E-03 0.  1.
         11   -1    0    0    0    0 -0.00000000000E+00 -0.00000000000E+00 -0.45593999997E+02  0.45594000000E+02  0.51100000000E-03 0. -1.
    9900012    2    1    2    0    0 -0.48080958002E+00 -0.13874028972E+02  0.38215789141E+02  0.50528851000E+02  0.29999973100E+02 0.  0.
         12    1    1    2    0    0  0.48080958002E+00  0.13874028972E+02 -0.38215789141E+02  0.40659149000E+02  0.00000000000E+00 0. -1.
         11    1    3    3    0    0  0.22736121105E+01 -0.15597107353E+02  0.26686026678E+02  0.30993274914E+02  0.51100000000E-03 0. -1.
        -11    1    3    3    0    0  0.88971875000E+00 -0.17114385267E+01  0.13873304627E+02  0.14006755614E+02  0.51100000000E-03 0.  1.
        -12    1    3    3    0    0 -0.36441404405E+01  0.34345169077E+01 -0.23435421640E+01  0.55288204723E+01  0.00000000000E+00 0.  1.
</event>
<event>
 7    1  0.4836188E-013  0.5052884E+02  0.7816164E-02  0.1300439E+00
        -11   -1    0    0    0    0  0.00000000000E+00  0.00000000000E+00  0.45593999997E+02  0.45594000000E+02  0.51100000000E-03 0.  1.
         11   -1    0    0    0    0 -0.00000000000E+00 -0.00000000000E+00 -0.45593999997E+02  0.45594000000E+02  0.51100000000E-03 0. -1.
    9900012    2    1    2    0    0 -0.30720034671E+02  0.25232859194E+02  0.85293137410E+01  0.50528844744E+02  0.29999954082E+02 0.  0.
         12    1    1    2    0    0  0.30720034671E+02 -0.25232859194E+02 -0.85293137410E+01  0.40659155256E+02  0.00000000000E+00 0. -1.
         11    1    3    3    0    0 -0.17005644202E+02  0.12681153256E+02  0.12212957078E+02  0.24477743022E+02  0.51100000000E-03 0.  1.
        -11    1    3    3    0    0 -0.13360884496E+02  0.16645350033E+02 -0.46159873844E+01  0.21837771224E+02  0.51100000000E-03 0. -1.
        -12    1    3    3    0    0 -0.35350597289E+00 -0.40936440955E+01  0.93234404775E+00  0.42133304970E+01  0.00000000000E+00 0.  1.
</event>
<event>
 7    1  0.4836188E-013  0.5052886E+02  0.7816164E-02  0.1300439E+00
        -11   -1    0    0    0    0  0.00000000000E+00  0.00000000000E+00  0.45593999997E+02  0.45594000000E+02  0.51100000000E-03 0.  1.
         11   -1    0    0    0    0 -0.00000000000E+00 -0.00000000000E+00 -0.45593999997E+02  0.45594000000E+02  0.51100000000E-03 0. -1.
    9900012    2    1    2    0    0  0.11611770132E+02  0.18764281495E+02  0.34150169587E+02  0.50528861440E+02  0.30000004834E+02 0.  0.
         12    1    1    2    0    0 -0.11611770132E+02 -0.18764281495E+02 -0.34150169587E+02  0.40659138560E+02  0.00000000000E+00 0. -1.
         11    1    3    3    0    0  0.42558192009E+01  0.15313142674E+01  0.24142248012E+01  0.51269291109E+01  0.51100000000E-03 0. -1.
        -11    1    3    3    0    0  0.78353730304E+01  0.11366803611E+02  0.35719644823E+02  0.38294781908E+02  0.51100000000E-03 0.  1.
         12    1    3    3    0    0 -0.47942209921E+00  0.58661636164E+01 -0.39837000372E+01  0.71071504213E+01  0.00000000000E+00 0. -1.
</event>
<event>
 7    1  0.6132489E-013  0.5052886E+02  0.7816164E-02  0.1300439E+00
        -11   -1    0    0    0    0  0.00000000000E+00  0.00000000000E+00  0.45593999997E+02  0.45594000000E+02  0.51100000000E-03 0. -1.
         11   -1    0    0    0    0 -0.00000000000E+00 -0.00000000000E+00 -0.45593999997E+02  0.45594000000E+02  0.51100000000E-03 0.  1.
    9900012    2    1    2    0    0  0.78269076387E+01  0.38602812489E+02 -0.10086032517E+02  0.50528859980E+02  0.30000000396E+02 0.  0.
         12    1    1    2    0    0 -0.78269076387E+01 -0.38602812489E+02  0.10086032517E+02  0.40659140020E+02  0.00000000000E+00 0. -1.
         11    1    3    3    0    0 -0.14274229517E+01 -0.21185188937E+01  0.20629035841E+01  0.32834783454E+01  0.51100000000E-03 0. -1.
        -11    1    3    3    0    0 -0.55752954497E+01  0.14454140579E+02 -0.41961365862E+01  0.16050347714E+02  0.51100000000E-03 0.  1.
        -12    1    3    3    0    0  0.14829626040E+02  0.26267190803E+02 -0.79527995149E+01  0.31195033920E+02  0.00000000000E+00 0.  1.
</event>
<event>
 7    1  0.4836188E-013  0.5052887E+02  0.7816164E-02  0.1300439E+00
        -11   -1    0    0    0    0  0.00000000000E+00  0.00000000000E+00  0.45593999997E+02  0.45594000000E+02  0.51100000000E-03 0. -1.
         11   -1    0    0    0    0 -0.00000000000E+00 -0.00000000000E+00 -0.45593999997E+02  0.45594000000E+02  0.51100000000E-03 0.  1.
    9900012    2    1    2    0    0 -0.76367680594E+01 -0.34322594062E+02 -0.20415790905E+02  0.50528865629E+02  0.30000017566E+02 0.  0.
         12    1    1    2    0    0  0.76367680594E+01  0.34322594062E+02  0.20415790905E+02  0.40659134371E+02  0.00000000000E+00 0. -1.
         11    1    3    3    0    0  0.45660693822E+00 -0.20801153051E+02 -0.19929793855E+01  0.20901397686E+02  0.51100000000E-03 0. -1.
        -11    1    3    3    0    0 -0.79422293901E+01 -0.73166195330E+01 -0.66831251799E+00  0.10819360931E+02  0.51100000000E-03 0.  1.
         12    1    3    3    0    0 -0.15114560747E+00 -0.62048214781E+01 -0.17754499001E+02  0.18808107011E+02  0.00000000000E+00 0. -1.
</event>
<event>
 7    1  0.4836188E-013  0.5052886E+02  0.7816164E-02  0.1300439E+00
        -11   -1    0    0    0    0  0.00000000000E+00  0.00000000000E+00  0.45593999997E+02  0.45594000000E+02  0.51100000000E-03 0.  1.
         11   -1    0    0    0    0 -0.00000000000E+00 -0.00000000000E+00 -0.45593999997E+02  0.45594000000E+02  0.51100000000E-03 0. -1.
    9900012    2    1    2    0    0  0.34621218922E+02 -0.19609505782E+02 -0.83668301869E+01  0.50528863708E+02  0.30000011726E+02 0.  0.
         12    1    1    2    0    0 -0.34621218922E+02  0.19609505782E+02  0.83668301869E+01  0.40659136292E+02  0.00000000000E+00 0. -1.
         11    1    3    3    0    0  0.15459856059E+00 -0.42910604000E+01  0.17170062091E+01  0.46244146284E+01  0.51100000000E-03 0.  1.
        -11    1    3    3    0    0  0.21253382504E+02 -0.71749930445E+01  0.63363610763E+01  0.23309574535E+02  0.51100000000E-03 0. -1.
        -12    1    3    3    0    0  0.13213237858E+02 -0.81434523371E+01 -0.16420197472E+02  0.22594874544E+02  0.00000000000E+00 0.  1.
</event>
<event>
 7    1  0.4836188E-013  0.5052886E+02  0.7816164E-02  0.1300439E+00
        -11   -1    0    0    0    0  0.00000000000E+00  0.00000000000E+00  0.45593999997E+02  0.45594000000E+02  0.51100000000E-03 0. -1.
         11   -1    0    0    0    0 -0.00000000000E+00 -0.00000000000E+00 -0.45593999997E+02  0.45594000000E+02  0.51100000000E-03 0.  1.
    9900012    2    1    2    0    0  0.98928101239E+01  0.39370325105E+02 -0.22968279799E+01  0.50528860686E+02  0.30000002540E+02 0.  0.
         12    1    1    2    0    0 -0.98928101239E+01 -0.39370325105E+02  0.22968279799E+01  0.40659139314E+02  0.00000000000E+00 0. -1.
         11    1    3    3    0    0 -0.48365961090E+01 -0.10950230049E+00  0.20769376827E+01  0.52648193772E+01  0.51100000000E-03 0. -1.
        -11    1    3    3    0    0  0.48863685662E+01  0.35750172989E+01 -0.52653574456E+01  0.80237980871E+01  0.51100000000E-03 0.  1.
         12    1    3    3    0    0  0.98430376667E+01  0.35904810106E+02  0.89159178298E+00  0.37240243221E+02  0.00000000000E+00 0. -1.
</event>
<event>
 7    1  0.4836188E-013  0.5052886E+02  0.7816164E-02  0.1300439E+00
        -11   -1    0    0    0    0  0.00000000000E+00  0.00000000000E+00  0.45593999997E+02  0.45594000000E+02  0.51100000000E-03 0.  1.
         11   -1    0    0    0    0 -0.00000000000E+00 -0.00000000000E+00 -0.45593999997E+02  0.45594000000E+02  0.51100000000E-03 0. -1.
    9900012    2    1    2    0    0 -0.68794188355E+01 -0.54082234230E+01  0.39706297468E+02  0.50528863970E+02  0.30000012523E+02 0.  0.
         12    1    1    2    0    0  0.68794188355E+01  0.54082234230E+01 -0.39706297468E+02  0.40659136030E+02  0.00000000000E+00 0. -1.
         11    1    3    3    0    0  0.21801543271E+01  0.37385299848E+01 -0.25039173724E+01  0.49999281801E+01  0.51100000000E-03 0. -1.
        -11    1    3    3    0    0  0.22827503648E+01 -0.17777448898E+01  0.36031616924E+01  0.46210497253E+01  0.51100000000E-03 0.  1.
         12    1    3    3    0    0 -0.11342323527E+02 -0.73690085180E+01  0.38607053148E+02  0.40907886065E+02  0.00000000000E+00 0. -1.
</event>
<event>
 7    1  0.4836188E-013  0.5052886E+02  0.7816164E-02  0.1300439E+00
        -11   -1    0    0    0    0  0.00000000000E+00  0.00000000000E+00  0.45593999997E+02  0.45594000000E+02  0.51100000000E-03 0.  1.
         11   -1    0    0    0    0 -0.00000000000E+00 -0.00000000000E+00 -0.45593999997E+02  0.45594000000E+02  0.51100000000E-03 0. -1.
    9900012    2    1    2    0    0  0.33109360588E+02  0.14720253999E+02  0.18445869705E+02  0.50528859016E+02  0.29999997466E+02 0.  0.
         12    1    1    2    0    0 -0.33109360588E+02 -0.14720253999E+02 -0.18445869705E+02  0.40659140984E+02  0.00000000000E+00 0. -1.
         11    1    3    3    0    0  0.14038141003E+01  0.72335539445E+00  0.14189045928E+01  0.21230232122E+01  0.51100000000E-03 0. -1.
        -11    1    3    3    0    0  0.15823337525E+02  0.49279564563E+01  0.23715175076E+02  0.28932201687E+02  0.51100000000E-03 0.  1.
         12    1    3    3    0    0  0.15882208963E+02  0.90689421483E+01 -0.66882099643E+01  0.19473634118E+02  0.00000000000E+00 0. -1.
</event>
<event>
 7    1  0.4836188E-013  0.5052887E+02  0.7816164E-02  0.1300439E+00
        -11   -1    0    0    0    0  0.00000000000E+00  0.00000000000E+00  0.45593999997E+02  0.45594000000E+02  0.51100000000E-03 0.  1.
         11   -1    0    0    0    0 -0.00000000000E+00 -0.00000000000E+00 -0.45593999997E+02  0.45594000000E+02  0.51100000000E-03 0. -1.
    9900012    2    1    2    0    0  0.70829717417E+01 -0.16205062204E+02  0.36611371455E+02  0.50528867575E+02  0.30000023480E+02 0.  0.
         12    1    1    2    0    0 -0.70829717417E+01  0.16205062204E+02 -0.36611371455E+02  0.40659132425E+02  0.00000000000E+00 0. -1.
         11    1    3    3    0    0  0.11756504983E+02 -0.18919888663E+02  0.38115550436E+02  0.44147171843E+02  0.51100000000E-03 0.  1.
        -11    1    3    3    0    0 -0.16093427319E+01 -0.56714408408E+00 -0.53472930892E+00  0.17881756446E+01  0.51100000000E-03 0. -1.
        -12    1    3    3    0    0 -0.30641905097E+01  0.32819705427E+01 -0.96944967203E+00  0.45935200870E+01  0.00000000000E+00 0.  1.
</event>
<event>
 7    1  0.4836188E-013  0.5052886E+02  0.7816164E-02  0.1300439E+00
        -11   -1    0    0    0    0  0.00000000000E+00  0.00000000000E+00  0.45593999997E+02  0.45594000000E+02  0.51100000000E-03 0.  1.
         11   -1    0    0    0    0 -0.00000000000E+00 -0.00000000000E+00 -0.45593999997E+02  0.45594000000E+02  0.51100000000E-03 0. -1.
    9900012    2    1    2    0    0  0.18547116757E+02 -0.16688261336E+01  0.36143950657E+02  0.50528859702E+02  0.29999999551E+02 0.  0.
         12    1    1    2    0    0 -0.18547116757E+02  0.16688261336E+01 -0.36143950657E+02  0.40659140298E+02  0.00000000000E+00 0. -1.
         11    1    3    3    0    0  0.12292416237E+01  0.50822942227E+01  0.98534152771E-01  0.52297666082E+01  0.51100000000E-03 0. -1.
        -11    1    3    3    0    0  0.79997929157E+01  0.70438240174E+01  0.11958548194E+02  0.16019332653E+02  0.51100000000E-03 0.  1.
        -12    1    3    3    0    0  0.93180822172E+01 -0.13794944374E+02  0.24086868311E+02  0.29279760441E+02  0.00000000000E+00 0.  1.
</event>
<event>
 7    1  0.4836188E-013  0.5052887E+02  0.7816164E-02  0.1300439E+00
        -11   -1    0    0    0    0  0.00000000000E+00  0.00000000000E+00  0.45593999997E+02  0.45594000000E+02  0.51100000000E-03 0.  1.
         11   -1    0    0    0    0 -0.00000000000E+00 -0.00000000000E+00 -0.45593999997E+02  0.45594000000E+02  0.51100000000E-03 0. -1.
    9900012    2    1    2    0    0 -0.16877410751E+02 -0.10794742412E+02  0.35380658888E+02  0.50528874570E+02  0.30000044742E+02 0.  0.
         12    1    1    2    0    0  0.16877410751E+02  0.10794742412E+02 -0.35380658888E+02  0.40659125430E+02  0.00000000000E+00 0. -1.
         11    1    3    3    0    0 -0.21209544858E+01 -0.12622812944E+02  0.81135940361E+01  0.15154677924E+02  0.51100000000E-03 0. -1.
        -11    1    3    3    0    0 -0.14620872527E+02 -0.51623647517E+01  0.17823676762E+02  0.23624211666E+02  0.51100000000E-03 0.  1.
         12    1    3    3    0    0 -0.13558373890E+00  0.69904352833E+01  0.94433880901E+01  0.11749984980E+02  0.00000000000E+00 0. -1.
</event>
<event>
 7    1  0.4836188E-013  0.5052883E+02  0.7816164E-02  0.1300439E+00
        -11   -1    0    0    0    0  0.00000000000E+00  0.00000000000E+00  0.45593999997E+02  0.45594000000E+02  0.51100000000E-03 0. -1.
         11   -1    0    0    0    0 -0.00000000000E+00 -0.00000000000E+00 -0.45593999997E+02  0.45594000000E+02  0.51100000000E-03 0.  1.
    9900012    2    1    2    0    0 -0.14374366162E+02 -0.33412088393E+02 -0.18170793963E+02  0.50528833671E+02  0.29999920427E+02 0.  0.
         12    1    1    2    0    0  0.14374366162E+02  0.33412088393E+02  0.18170793963E+02  0.40659166329E+02  0.00000000000E+00 0. -1.
         11    1    3    3    0    0 -0.48197310462E+01  0.28545799448E+01 -0.32166504917E+01  0.64595104045E+01  0.51100000000E-03 0. -1.
        -11    1    3    3    0    0 -0.41898524664E+00 -0.18207519626E+02 -0.15363153947E+02  0.23826787845E+02  0.51100000000E-03 0.  1.
        -12    1    3    3    0    0 -0.91356498694E+01 -0.18059148712E+02  0.40901047574E+00  0.20242535422E+02  0.00000000000E+00 0.  1.
</event>
<event>
 7    1  0.4836188E-013  0.5052886E+02  0.7816164E-02  0.1300439E+00
        -11   -1    0    0    0    0  0.00000000000E+00  0.00000000000E+00  0.45593999997E+02  0.45594000000E+02  0.51100000000E-03 0.  1.
         11   -1    0    0    0    0 -0.00000000000E+00 -0.00000000000E+00 -0.45593999997E+02  0.45594000000E+02  0.51100000000E-03 0. -1.
    9900012    2    1    2    0    0 -0.75946557182E+01 -0.38248385450E+02  0.11512937760E+02  0.50528861779E+02  0.30000005864E+02 0.  0.
         12    1    1    2    0    0  0.75946557182E+01  0.38248385450E+02 -0.11512937760E+02  0.40659138221E+02  0.00000000000E+00 0. -1.
         11    1    3    3    0    0 -0.90027558644E+01 -0.12583222689E+02  0.54291973789E+01  0.16397051285E+02  0.51100000000E-03 0. -1.
        -11    1    3    3    0    0  0.31616416779E+01 -0.64403821155E+01  0.11965023658E+02  0.13951211104E+02  0.51100000000E-03 0.  1.
         12    1    3    3    0    0 -0.17535415317E+01 -0.19224780645E+02 -0.58812832760E+01  0.20180599390E+02  0.00000000000E+00 0. -1.
</event>
<event>
 7    1  0.4836188E-013  0.5052887E+02  0.7816164E-02  0.1300439E+00
        -11   -1    0    0    0    0  0.00000000000E+00  0.00000000000E+00  0.45593999997E+02  0.45594000000E+02  0.51100000000E-03 0. -1.
         11   -1    0    0    0    0 -0.00000000000E+00 -0.00000000000E+00 -0.45593999997E+02  0.45594000000E+02  0.51100000000E-03 0.  1.
    9900012    2    1    2    0    0  0.32235534897E+02 -0.11649199948E+02 -0.21870789490E+02  0.50528868154E+02  0.30000025241E+02 0.  0.
         12    1    1    2    0    0 -0.32235534897E+02  0.11649199948E+02  0.21870789490E+02  0.40659131846E+02  0.00000000000E+00 0. -1.
         11    1    3    3    0    0  0.26955710475E+01 -0.60595202129E+01  0.52073677578E+01  0.84321152571E+01  0.51100000000E-03 0. -1.
        -11    1    3    3    0    0  0.84754145746E+01 -0.13785530182E+01 -0.15372578945E+01  0.87233148934E+01  0.51100000000E-03 0.  1.
        -12    1    3    3    0    0  0.21064549275E+02 -0.42111267170E+01 -0.25540899354E+02  0.33373438004E+02  0.00000000000E+00 0.  1.
</event>
<event>
 7    1  0.4836188E-013  0.5052887E+02  0.7816164E-02  0.1300439E+00
        -11   -1    0    0    0    0  0.00000000000E+00  0.00000000000E+00  0.45593999997E+02  0.45594000000E+02  0.51100000000E-03 0. -1.
         11   -1    0    0    0    0 -0.00000000000E+00 -0.00000000000E+00 -0.45593999997E+02  0.45594000000E+02  0.51100000000E-03 0.  1.
    9900012    2    1    2    0    0 -0.37382279877E+02  0.15797869442E+02  0.24813162023E+01  0.50528874852E+02  0.30000045600E+02 0.  0.
         12    1    1    2    0    0  0.37382279877E+02 -0.15797869442E+02 -0.24813162023E+01  0.40659125148E+02  0.00000000000E+00 0. -1.
         11    1    3    3    0    0 -0.17754474467E+02  0.35479520278E+01  0.81991791927E+01  0.19875509223E+02  0.51100000000E-03 0. -1.
        -11    1    3    3    0    0 -0.18479474230E+02  0.16670262463E+01 -0.72063150670E+01  0.19904796443E+02  0.51100000000E-03 0.  1.
         12    1    3    3    0    0 -0.11483311801E+01  0.10582891167E+02  0.14884520766E+01  0.10748569186E+02  0.00000000000E+00 0. -1.
</event>
<event>
 7    1  0.4836188E-013  0.5052889E+02  0.7816164E-02  0.1300439E+00
        -11   -1    0    0    0    0  0.00000000000E+00  0.00000000000E+00  0.45593999997E+02  0.45594000000E+02  0.51100000000E-03 0. -1.
         11   -1    0    0    0    0 -0.00000000000E+00 -0.00000000000E+00 -0.45593999997E+02  0.45594000000E+02  0.51100000000E-03 0.  1.
    9900012    2    1    2    0    0  0.26496765538E+02 -0.19500607895E+02 -0.23891656863E+02  0.50528885894E+02  0.30000079162E+02 0.  0.
         12    1    1    2    0    0 -0.26496765538E+02  0.19500607895E+02  0.23891656863E+02  0.40659114106E+02  0.00000000000E+00 0. -1.
         11    1    3    3    0    0 -0.11704296005E+01 -0.18474540125E+00  0.42968360145E+01  0.44572229370E+01  0.51100000000E-03 0. -1.
        -11    1    3    3    0    0  0.16096726436E+02 -0.29478342391E+01 -0.11700677474E+02  0.20117161387E+02  0.51100000000E-03 0.  1.
        -12    1    3    3    0    0  0.11570468702E+02 -0.16368028255E+02 -0.16487815404E+02  0.25954501570E+02  0.00000000000E+00 0.  1.
</event>
<event>
 7    1  0.4836188E-013  0.5052886E+02  0.7816164E-02  0.1300439E+00
        -11   -1    0    0    0    0  0.00000000000E+00  0.00000000000E+00  0.45593999997E+02  0.45594000000E+02  0.51100000000E-03 0. -1.
         11   -1    0    0    0    0 -0.00000000000E+00 -0.00000000000E+00 -0.45593999997E+02  0.45594000000E+02  0.51100000000E-03 0.  1.
    9900012    2    1    2    0    0  0.27768351777E+02 -0.29699556123E+02  0.14352868650E+00  0.50528860870E+02  0.30000003101E+02 0.  0.
         12    1    1    2    0    0 -0.27768351777E+02  0.29699556123E+02 -0.14352868650E+00  0.40659139130E+02  0.00000000000E+00 0. -1.
         11    1    3    3    0    0  0.70167480417E+01 -0.83931223888E+01  0.46918363682E+01  0.11903469464E+02  0.51100000000E-03 0. -1.
        -11    1    3    3    0    0  0.21372915680E+02 -0.54437177909E+01  0.19797524490E+00  0.22056173342E+02  0.51100000000E-03 0.  1.
        -12    1    3    3    0    0 -0.62131194452E+00 -0.15862715943E+02 -0.47462829266E+01  0.16569218064E+02  0.00000000000E+00 0.  1.
</event>
<event>
 7    1  0.4836188E-013  0.5052887E+02  0.7816164E-02  0.1300439E+00
        -11   -1    0    0    0    0  0.00000000000E+00  0.00000000000E+00  0.45593999997E+02  0.45594000000E+02  0.51100000000E-03 0.  1.
         11   -1    0    0    0    0 -0.00000000000E+00 -0.00000000000E+00 -0.45593999997E+02  0.45594000000E+02  0.51100000000E-03 0. -1.
    9900012    2    1    2    0    0  0.78828838699E+01  0.13008612674E+02  0.37706780081E+02  0.50528866636E+02  0.30000020626E+02 0.  0.
         12    1    1    2    0    0 -0.78828838699E+01 -0.13008612674E+02 -0.37706780081E+02  0.40659133364E+02  0.00000000000E+00 0. -1.
         11    1    3    3    0    0  0.14408639390E+01  0.76503064320E+01 -0.30171126759E+01  0.83490266830E+01  0.51100000000E-03 0. -1.
        -11    1    3    3    0    0 -0.86704257421E-02 -0.10008288592E+01  0.12455208054E+02  0.12495356798E+02  0.51100000000E-03 0.  1.
        -12    1    3    3    0    0  0.64506903566E+01  0.63591351013E+01  0.28268684704E+02  0.29684483155E+02  0.00000000000E+00 0.  1.
</event>
<event>
 7    1  0.4836188E-013  0.5052884E+02  0.7816164E-02  0.1300439E+00
        -11   -1    0    0    0    0  0.00000000000E+00  0.00000000000E+00  0.45593999997E+02  0.45594000000E+02  0.51100000000E-03 0.  1.
         11   -1    0    0    0    0 -0.00000000000E+00 -0.00000000000E+00 -0.45593999997E+02  0.45594000000E+02  0.51100000000E-03 0. -1.
    9900012    2    1    2    0    0 -0.12903138025E+02  0.32667447061E+02  0.20482043973E+02  0.50528841208E+02  0.29999943336E+02 0.  0.
         12    1    1    2    0    0  0.12903138025E+02 -0.32667447061E+02 -0.20482043973E+02  0.40659158792E+02  0.00000000000E+00 0. -1.
         11    1    3    3    0    0 -0.12563608440E+02  0.11101464762E+02  0.20847312019E+02  0.26752517556E+02  0.51100000000E-03 0. -1.
        -11    1    3    3    0    0  0.22745095007E+01  0.76949535649E+01  0.40479508793E+01  0.89873027332E+01  0.51100000000E-03 0.  1.
         12    1    3    3    0    0 -0.26140390864E+01  0.13871028733E+02 -0.44132189251E+01  0.14789020919E+02  0.00000000000E+00 0. -1.
</event>
<event>
 7    1  0.4836188E-013  0.5052886E+02  0.7816164E-02  0.1300439E+00
        -11   -1    0    0    0    0  0.00000000000E+00  0.00000000000E+00  0.45593999997E+02  0.45594000000E+02  0.51100000000E-03 0. -1.
         11   -1    0    0    0    0 -0.00000000000E+00 -0.00000000000E+00 -0.45593999997E+02  0.45594000000E+02  0.51100000000E-03 0.  1.
    9900012    2    1    2    0    0  0.15107319302E+02  0.37742785730E+02  0.64542731977E+00  0.50528861451E+02  0.30000004867E+02 0.  0.
         12    1    1    2    0    0 -0.15107319302E+02 -0.37742785730E+02 -0.64542731977E+00  0.40659138549E+02  0.00000000000E+00 0. -1.
         11    1    3    3    0    0  0.10435359760E+02  0.57127162558E+01  0.21126566732E+01  0.12082846470E+02  0.51100000000E-03 0. -1.
        -11    1    3    3    0    0 -0.54698482472E+01  0.65534624235E+01  0.54987603041E+01  0.10153988119E+02  0.51100000000E-03 0.  1.
         12    1    3    3    0    0  0.10141807789E+02  0.25476607050E+02 -0.69659896575E+01  0.28292026861E+02  0.00000000000E+00 0. -1.
</event>
<event>
 7    1  0.4836188E-013  0.5052887E+02  0.7816164E-02  0.1300439E+00
        -11   -1    0    0    0    0  0.00000000000E+00  0.00000000000E+00  0.45593999997E+02  0.45594000000E+02  0.51100000000E-03 0.  1.
         11   -1    0    0    0    0 -0.00000000000E+00 -0.00000000000E+00 -0.45593999997E+02  0.45594000000E+02  0.51100000000E-03 0. -1.
    9900012    2    1    2    0    0  0.91971133686E+00 -0.31033678109E+02  0.26253188317E+02  0.50528868888E+02  0.30000027473E+02 0.  0.
         12    1    1    2    0    0 -0.91971133686E+00  0.31033678109E+02 -0.26253188317E+02  0.40659131112E+02  0.00000000000E+00 0. -1.
         11    1    3    3    0    0  0.41436652567E+01 -0.32326482231E+02  0.17521160733E+02  0.37002195731E+02  0.51100000000E-03 0. -1.
        -11    1    3    3    0    0 -0.10083070204E+01 -0.42374334576E+01  0.33031288115E+01  0.54665515237E+01  0.51100000000E-03 0.  1.
        -12    1    3    3    0    0 -0.22156468995E+01  0.55302375796E+01  0.54288987727E+01  0.80601216339E+01  0.00000000000E+00 0.  1.
</event>
<event>
 7    1  0.4836188E-013  0.5052883E+02  0.7816164E-02  0.1300439E+00
        -11   -1    0    0    0    0  0.00000000000E+00  0.00000000000E+00  0.45593999997E+02  0.45594000000E+02  0.51100000000E-03 0.  1.
         11   -1    0    0    0    0 -0.00000000000E+00 -0.00000000000E+00 -0.45593999997E+02  0.45594000000E+02  0.51100000000E-03 0. -1.
    9900012    2    1    2    0    0 -0.24898954667E+01 -0.54626339068E+01  0.40213527570E+02  0.50528834388E+02  0.29999922606E+02 0.  0.
         12    1    1    2    0    0  0.24898954667E+01  0.54626339068E+01 -0.40213527570E+02  0.40659165612E+02  0.00000000000E+00 0. -1.
         11    1    3    3    0    0 -0.87984309332E+01 -0.42992054719E+01  0.93881915906E+01  0.13565901967E+02  0.51100000000E-03 0. -1.
        -11    1    3    3    0    0  0.91156070211E+00 -0.26042169014E+01 -0.21624249795E+01  0.35055628131E+01  0.51100000000E-03 0.  1.
        -12    1    3    3    0    0  0.53969747644E+01  0.14407884665E+01  0.32987760959E+02  0.33457369608E+02  0.00000000000E+00 0.  1.
</event>
<event>
 7    1  0.4836188E-013  0.5052882E+02  0.7816164E-02  0.1300439E+00
        -11   -1    0    0    0    0  0.00000000000E+00  0.00000000000E+00  0.45593999997E+02  0.45594000000E+02  0.51100000000E-03 0. -1.
         11   -1    0    0    0    0 -0.00000000000E+00 -0.00000000000E+00 -0.45593999997E+02  0.45594000000E+02  0.51100000000E-03 0.  1.
    9900012    2    1    2    0    0 -0.34352503604E+01 -0.37348665668E+02 -0.15698579819E+02  0.50528816775E+02  0.29999869068E+02 0.  0.
         12    1    1    2    0    0  0.34352503604E+01  0.37348665668E+02  0.15698579819E+02  0.40659183225E+02  0.00000000000E+00 0. -1.
         11    1    3    3    0    0  0.26503807495E-01  0.31624807736E+01 -0.72190981689E+01  0.78814570816E+01  0.51100000000E-03 0. -1.
        -11    1    3    3    0    0  0.28029586116E+01 -0.80450943807E+01 -0.34966817747E+01  0.92090664167E+01  0.51100000000E-03 0.  1.
         12    1    3    3    0    0 -0.62647127794E+01 -0.32466052061E+02 -0.49827998752E+01  0.33438293276E+02  0.00000000000E+00 0. -1.
</event>
<event>
 7    1  0.4836188E-013  0.5052886E+02  0.7816164E-02  0.1300439E+00
        -11   -1    0    0    0    0  0.00000000000E+00  0.00000000000E+00  0.45593999997E+02  0.45594000000E+02  0.51100000000E-03 0.  1.
         11   -1    0    0    0    0 -0.00000000000E+00 -0.00000000000E+00 -0.45593999997E+02  0.45594000000E+02  0.51100000000E-03 0. -1.
    9900012    2    1    2    0    0  0.12421425080E+02  0.36671185646E+02  0.12413627961E+02  0.50528858139E+02  0.29999994800E+02 0.  0.
         12    1    1    2    0    0 -0.12421425080E+02 -0.36671185646E+02 -0.12413627961E+02  0.40659141861E+02  0.00000000000E+00 0. -1.
         11    1    3    3    0    0  0.98811766576E+01  0.22111672027E+01 -0.50067272241E+01  0.11295761608E+02  0.51100000000E-03 0. -1.
        -11    1    3    3    0    0  0.22672799458E+00  0.42704659307E+01  0.48039185394E+01  0.64316341970E+01  0.51100000000E-03 0.  1.
        -12    1    3    3    0    0  0.23135204278E+01  0.30189552513E+02  0.12616436645E+02  0.32801462335E+02  0.00000000000E+00 0.  1.
</event>
<event>
 7    1  0.4836188E-013  0.5052886E+02  0.7816164E-02  0.1300439E+00
        -11   -1    0    0    0    0  0.00000000000E+00  0.00000000000E+00  0.45593999997E+02  0.45594000000E+02  0.51100000000E-03 0.  1.
         11   -1    0    0    0    0 -0.00000000000E+00 -0.00000000000E+00 -0.45593999997E+02  0.45594000000E+02  0.51100000000E-03 0. -1.
    9900012    2    1    2    0    0  0.31378615370E+02  0.12306894096E+02  0.22739576445E+02  0.50528862260E+02  0.30000007326E+02 0.  0.
         12    1    1    2    0    0 -0.31378615370E+02 -0.12306894096E+02 -0.22739576445E+02  0.40659137740E+02  0.00000000000E+00 0. -1.
         11    1    3    3    0    0  0.69288318057E+01  0.17474946337E+01  0.14322799176E+01  0.72879265714E+01  0.51100000000E-03 0.  1.
        -11    1    3    3    0    0 -0.31065297947E+01 -0.10670472917E+01 -0.31911679527E+01  0.45795928260E+01  0.51100000000E-03 0. -1.
        -12    1    3    3    0    0  0.27556313359E+02  0.11626446754E+02  0.24498464481E+02  0.38661342863E+02  0.00000000000E+00 0.  1.
</event>
<event>
 7    1  0.4836188E-013  0.5052887E+02  0.7816164E-02  0.1300439E+00
        -11   -1    0    0    0    0  0.00000000000E+00  0.00000000000E+00  0.45593999997E+02  0.45594000000E+02  0.51100000000E-03 0. -1.
         11   -1    0    0    0    0 -0.00000000000E+00 -0.00000000000E+00 -0.45593999997E+02  0.45594000000E+02  0.51100000000E-03 0.  1.
    9900012    2    1    2    0    0 -0.25852270346E+02  0.29630267178E+02 -0.10337921799E+02  0.50528865206E+02  0.30000016282E+02 0.  0.
         12    1    1    2    0    0  0.25852270346E+02 -0.29630267178E+02  0.10337921799E+02  0.40659134794E+02  0.00000000000E+00 0. -1.
         11    1    3    3    0    0 -0.11209444821E+02 -0.69285107015E+00 -0.46023223862E-01  0.11230931137E+02  0.51100000000E-03 0. -1.
        -11    1    3    3    0    0 -0.58563827118E+00  0.10479551768E+02 -0.10683445578E+02  0.14976648060E+02  0.51100000000E-03 0.  1.
        -12    1    3    3    0    0 -0.14057187254E+02  0.19843566480E+02  0.39154700252E+00  0.24321286010E+02  0.00000000000E+00 0.  1.
</event>
<event>
 7    1  0.4836188E-013  0.5052886E+02  0.7816164E-02  0.1300439E+00
        -11   -1    0    0    0    0  0.00000000000E+00  0.00000000000E+00  0.45593999997E+02  0.45594000000E+02  0.51100000000E-03 0.  1.
         11   -1    0    0    0    0 -0.00000000000E+00 -0.00000000000E+00 -0.45593999997E+02  0.45594000000E+02  0.51100000000E-03 0. -1.
    9900012    2    1    2    0    0  0.19055204947E+02 -0.35398106318E+02 -0.60859540364E+01  0.50528860769E+02  0.30000002794E+02 0.  0.
         12    1    1    2    0    0 -0.19055204947E+02  0.35398106318E+02  0.60859540364E+01  0.40659139231E+02  0.00000000000E+00 0. -1.
         11    1    3    3    0    0  0.11774324750E+02 -0.16471629368E+02 -0.77196647319E+01  0.21668929858E+02  0.51100000000E-03 0. -1.
        -11    1    3    3    0    0  0.35635452397E+01 -0.22857108941E+02 -0.24041865567E+00  0.23134478278E+02  0.51100000000E-03 0.  1.
         12    1    3    3    0    0  0.37173349568E+01  0.39306319906E+01  0.18741293512E+01  0.57254526329E+01  0.00000000000E+00 0. -1.
</event>
<event>
 7    1  0.4836188E-013  0.5052888E+02  0.7816164E-02  0.1300439E+00
        -11   -1    0    0    0    0  0.00000000000E+00  0.00000000000E+00  0.45593999997E+02  0.45594000000E+02  0.51100000000E-03 0. -1.
         11   -1    0    0    0    0 -0.00000000000E+00 -0.00000000000E+00 -0.45593999997E+02  0.45594000000E+02  0.51100000000E-03 0.  1.
    9900012    2    1    2    0    0  0.13157980157E+02  0.23244539571E+02 -0.30654896309E+02  0.50528883810E+02  0.30000072827E+02 0.  0.
         12    1    1    2    0    0 -0.13157980157E+02 -0.23244539571E+02  0.30654896309E+02  0.40659116190E+02  0.00000000000E+00 0. -1.
         11    1    3    3    0    0  0.48001853465E+01  0.53244059588E+01 -0.16209850474E+02  0.17724286469E+02  0.51100000000E-03 0.  1.
        -11    1    3    3    0    0 -0.16150463713E+01  0.43422093473E+01 -0.15250307333E+02  0.15938476427E+02  0.51100000000E-03 0. -1.
        -12    1    3    3    0    0  0.99728411815E+01  0.13577924265E+02  0.80526149891E+00  0.16866120913E+02  0.00000000000E+00 0.  1.
</event>
<event>
 7    1  0.4836188E-013  0.5052886E+02  0.7816164E-02  0.1300439E+00
        -11   -1    0    0    0    0  0.00000000000E+00  0.00000000000E+00  0.45593999997E+02  0.45594000000E+02  0.51100000000E-03 0.  1.
         11   -1    0    0    0    0 -0.00000000000E+00 -0.00000000000E+00 -0.45593999997E+02  0.45594000000E+02  0.51100000000E-03 0. -1.
    9900012    2    1    2    0    0  0.40603082646E+02 -0.15397190532E+01 -0.14781342154E+01  0.50528856675E+02  0.29999990351E+02 0.  0.
         12    1    1    2    0    0 -0.40603082646E+02  0.15397190532E+01  0.14781342154E+01  0.40659143325E+02  0.00000000000E+00 0. -1.
         11    1    3    3    0    0  0.11618815054E+02 -0.12645137072E+02 -0.33576573588E+00  0.17175828764E+02  0.51100000000E-03 0. -1.
        -11    1    3    3    0    0  0.59786689701E+01  0.56596608383E+01 -0.46465284328E+01  0.94533840605E+01  0.51100000000E-03 0.  1.
        -12    1    3    3    0    0  0.23005598622E+02  0.54457571808E+01  0.35041599533E+01  0.23899643851E+02  0.00000000000E+00 0.  1.
</event>
<event>
 7    1  0.5065273E-013  0.5052886E+02  0.7816164E-02  0.1300439E+00
        -11   -1    0    0    0    0  0.00000000000E+00  0.00000000000E+00  0.45593999997E+02  0.45594000000E+02  0.51100000000E-03 0.  1.
         11   -1    0    0    0    0 -0.00000000000E+00 -0.00000000000E+00 -0.45593999997E+02  0.45594000000E+02  0.51100000000E-03 0. -1.
    9900012    2    1    2    0    0  0.20266365945E+02 -0.34645788214E+02  0.64891880658E+01  0.50528858453E+02  0.29999995754E+02 0.  0.
         12    1    1    2    0    0 -0.20266365945E+02  0.34645788214E+02 -0.64891880658E+01  0.40659141547E+02  0.00000000000E+00 0. -1.
         11    1    3    3    0    0 -0.82577002527E+00  0.20380076765E+01 -0.13790802828E+01  0.25956182523E+01  0.51100000000E-03 0. -1.
        -11    1    3    3    0    0  0.36096318739E+01 -0.14923219578E+02 -0.63408227812E+01  0.16611380395E+02  0.51100000000E-03 0.  1.
        -12    1    3    3    0    0  0.17482504097E+02 -0.21760576313E+02  0.14209091130E+02  0.31321859806E+02  0.00000000000E+00 0.  1.
</event>
<event>
 7    1  0.4836188E-013  0.5052885E+02  0.7816164E-02  0.1300439E+00
        -11   -1    0    0    0    0  0.00000000000E+00  0.00000000000E+00  0.45593999997E+02  0.45594000000E+02  0.51100000000E-03 0.  1.
         11   -1    0    0    0    0 -0.00000000000E+00 -0.00000000000E+00 -0.45593999997E+02  0.45594000000E+02  0.51100000000E-03 0. -1.
    9900012    2    1    2    0    0  0.24739614060E+02  0.78549828833E+01  0.31295636973E+02  0.50528853999E+02  0.29999982217E+02 0.  0.
         12    1    1    2    0    0 -0.24739614060E+02 -0.78549828833E+01 -0.31295636973E+02  0.40659146001E+02  0.00000000000E+00 0. -1.
         11    1    3    3    0    0  0.32466119003E+01  0.69532568868E+01  0.12899416813E+02  0.15009437849E+02  0.51100000000E-03 0. -1.
        -11    1    3    3    0    0  0.20892039757E+02  0.35555802208E+01  0.22298135225E+02  0.30762417179E+02  0.51100000000E-03 0.  1.
         12    1    3    3    0    0  0.60096240233E+00 -0.26538542243E+01 -0.39019150640E+01  0.47569989720E+01  0.00000000000E+00 0. -1.
</event>
<event>
 7    1  0.4836188E-013  0.5052885E+02  0.7816164E-02  0.1300439E+00
        -11   -1    0    0    0    0  0.00000000000E+00  0.00000000000E+00  0.45593999997E+02  0.45594000000E+02  0.51100000000E-03 0.  1.
         11   -1    0    0    0    0 -0.00000000000E+00 -0.00000000000E+00 -0.45593999997E+02  0.45594000000E+02  0.51100000000E-03 0. -1.
    9900012    2    1    2    0    0 -0.37166182895E+00 -0.36844932396E+02  0.17189519741E+02  0.50528846484E+02  0.29999959371E+02 0.  0.
         12    1    1    2    0    0  0.37166182895E+00  0.36844932396E+02 -0.17189519741E+02  0.40659153516E+02  0.00000000000E+00 0. -1.
         11    1    3    3    0    0  0.10654068186E+01 -0.15739297639E+02  0.86483735551E+01  0.17990412649E+02  0.51100000000E-03 0.  1.
        -11    1    3    3    0    0 -0.17741506459E+00 -0.21462605674E+02  0.14847028492E+02  0.26098068391E+02  0.51100000000E-03 0. -1.
         12    1    3    3    0    0 -0.12596535830E+01  0.35697091799E+00 -0.63058823064E+01  0.64403654437E+01  0.00000000000E+00 0. -1.
</event>
<event>
 7    1  0.4836188E-013  0.5052886E+02  0.7816164E-02  0.1300439E+00
        -11   -1    0    0    0    0  0.00000000000E+00  0.00000000000E+00  0.45593999997E+02  0.45594000000E+02  0.51100000000E-03 0.  1.
         11   -1    0    0    0    0 -0.00000000000E+00 -0.00000000000E+00 -0.45593999997E+02  0.45594000000E+02  0.51100000000E-03 0. -1.
    9900012    2    1    2    0    0 -0.10827767774E+02  0.50121452242E+01  0.38869053115E+02  0.50528862715E+02  0.30000008708E+02 0.  0.
         12    1    1    2    0    0  0.10827767774E+02 -0.50121452242E+01 -0.38869053115E+02  0.40659137285E+02  0.00000000000E+00 0. -1.
         11    1    3    3    0    0 -0.10465650881E+02  0.13028374674E+01  0.14858255705E+02  0.18220729862E+02  0.51100000000E-03 0. -1.
        -11    1    3    3    0    0 -0.63212971682E+00 -0.89078231112E+01  0.11212991068E+02  0.14334576014E+02  0.51100000000E-03 0.  1.
         12    1    3    3    0    0  0.27001282387E+00  0.12617130868E+02  0.12797806342E+02  0.17973556839E+02  0.00000000000E+00 0. -1.
</event>
<event>
 7    1  0.4836188E-013  0.5052884E+02  0.7816164E-02  0.1300439E+00
        -11   -1    0    0    0    0  0.00000000000E+00  0.00000000000E+00  0.45593999997E+02  0.45594000000E+02  0.51100000000E-03 0.  1.
         11   -1    0    0    0    0 -0.00000000000E+00 -0.00000000000E+00 -0.45593999997E+02  0.45594000000E+02  0.51100000000E-03 0. -1.
    9900012    2    1    2    0    0  0.25256200234E+02 -0.40837219049E+01  0.31600862113E+02  0.50528844560E+02  0.29999953523E+02 0.  0.
         12    1    1    2    0    0 -0.25256200234E+02  0.40837219049E+01 -0.31600862113E+02  0.40659155440E+02  0.00000000000E+00 0. -1.
         11    1    3    3    0    0  0.14469762906E+02  0.82739720585E+01  0.14770918012E+02  0.22271341930E+02  0.51100000000E-03 0. -1.
        -11    1    3    3    0    0  0.12705640929E+02 -0.45608700000E+01  0.59928701144E+01  0.14769879453E+02  0.51100000000E-03 0.  1.
         12    1    3    3    0    0 -0.19192036011E+01 -0.77968239633E+01  0.10837073987E+02  0.13487623177E+02  0.00000000000E+00 0. -1.
</event>
<event>
 7    1  0.4836188E-013  0.5052886E+02  0.7816164E-02  0.1300439E+00
        -11   -1    0    0    0    0  0.00000000000E+00  0.00000000000E+00  0.45593999997E+02  0.45594000000E+02  0.51100000000E-03 0.  1.
         11   -1    0    0    0    0 -0.00000000000E+00 -0.00000000000E+00 -0.45593999997E+02  0.45594000000E+02  0.51100000000E-03 0. -1.
    9900012    2    1    2    0    0 -0.32051788485E+02  0.23458920789E+02 -0.86906761258E+01  0.50528856365E+02  0.29999989406E+02 0.  0.
         12    1    1    2    0    0  0.32051788485E+02 -0.23458920789E+02  0.86906761258E+01  0.40659143635E+02  0.00000000000E+00 0. -1.
         11    1    3    3    0    0 -0.11663405667E+02  0.52078394369E+01 -0.42727171171E+01  0.13468954494E+02  0.51100000000E-03 0. -1.
        -11    1    3    3    0    0 -0.57758131438E+00  0.16280945817E+02  0.13099468398E+01  0.16343768166E+02  0.51100000000E-03 0.  1.
         12    1    3    3    0    0 -0.19810801504E+02  0.19701355346E+01 -0.57279058485E+01  0.20716133704E+02  0.00000000000E+00 0. -1.
</event>
<event>
 7    1  0.4836188E-013  0.5052886E+02  0.7816164E-02  0.1300439E+00
        -11   -1    0    0    0    0  0.00000000000E+00  0.00000000000E+00  0.45593999997E+02  0.45594000000E+02  0.51100000000E-03 0.  1.
         11   -1    0    0    0    0 -0.00000000000E+00 -0.00000000000E+00 -0.45593999997E+02  0.45594000000E+02  0.51100000000E-03 0. -1.
    9900012    2    1    2    0    0 -0.11124391274E+02  0.14244286203E+02  0.36421335043E+02  0.50528863057E+02  0.30000009749E+02 0.  0.
         12    1    1    2    0    0  0.11124391274E+02 -0.14244286203E+02 -0.36421335043E+02  0.40659136943E+02  0.00000000000E+00 0. -1.
         11    1    3    3    0    0  0.17406577600E+01  0.27954581639E+00 -0.39646191205E+01  0.43389215633E+01  0.51100000000E-03 0. -1.
        -11    1    3    3    0    0 -0.16041168232E+01 -0.20769261342E+01  0.70040399430E+01  0.74795313178E+01  0.51100000000E-03 0.  1.
         12    1    3    3    0    0 -0.11260932211E+02  0.16041666521E+02  0.33381914220E+02  0.38710410176E+02  0.00000000000E+00 0. -1.
</event>
<event>
 7    1  0.4836188E-013  0.5052886E+02  0.7816164E-02  0.1300439E+00
        -11   -1    0    0    0    0  0.00000000000E+00  0.00000000000E+00  0.45593999997E+02  0.45594000000E+02  0.51100000000E-03 0.  1.
         11   -1    0    0    0    0 -0.00000000000E+00 -0.00000000000E+00 -0.45593999997E+02  0.45594000000E+02  0.51100000000E-03 0. -1.
    9900012    2    1    2    0    0  0.30183682728E+02  0.12399362223E+02  0.24256271783E+02  0.50528860715E+02  0.30000002630E+02 0.  0.
         12    1    1    2    0    0 -0.30183682728E+02 -0.12399362223E+02 -0.24256271783E+02  0.40659139285E+02  0.00000000000E+00 0. -1.
         11    1    3    3    0    0  0.56562973787E+01  0.84650166056E+01 -0.12209255608E+01  0.10253822002E+02  0.51100000000E-03 0. -1.
        -11    1    3    3    0    0  0.16752945214E+02  0.19243740221E+01  0.39791447325E+01  0.17326222375E+02  0.51100000000E-03 0.  1.
         12    1    3    3    0    0  0.77744401352E+01  0.20099715950E+01  0.21498052611E+02  0.22948816338E+02  0.00000000000E+00 0. -1.
</event>
<event>
 7    1  0.4836188E-013  0.5052886E+02  0.7816164E-02  0.1300439E+00
        -11   -1    0    0    0    0  0.00000000000E+00  0.00000000000E+00  0.45593999997E+02  0.45594000000E+02  0.51100000000E-03 0.  1.
         11   -1    0    0    0    0 -0.00000000000E+00 -0.00000000000E+00 -0.45593999997E+02  0.45594000000E+02  0.51100000000E-03 0. -1.
    9900012    2    1    2    0    0 -0.69109823080E+00 -0.39993425391E+02  0.72947758177E+01  0.50528862706E+02  0.30000008680E+02 0.  0.
         12    1    1    2    0    0  0.69109823080E+00  0.39993425391E+02 -0.72947758177E+01  0.40659137294E+02  0.00000000000E+00 0. -1.
         11    1    3    3    0    0  0.72241324990E+01 -0.54857780157E+01 -0.61567984937E+01  0.10963029634E+02  0.51100000000E-03 0. -1.
        -11    1    3    3    0    0 -0.20654511071E+01 -0.78165838220E+01 -0.17860053159E+01  0.82797878096E+01  0.51100000000E-03 0.  1.
        -12    1    3    3    0    0 -0.58497796227E+01 -0.26691063553E+02  0.15237579627E+02  0.31286045262E+02  0.00000000000E+00 0.  1.
</event>
<event>
 7    1  0.4836188E-013  0.5052886E+02  0.7816164E-02  0.1300439E+00
        -11   -1    0    0    0    0  0.00000000000E+00  0.00000000000E+00  0.45593999997E+02  0.45594000000E+02  0.51100000000E-03 0. -1.
         11   -1    0    0    0    0 -0.00000000000E+00 -0.00000000000E+00 -0.45593999997E+02  0.45594000000E+02  0.51100000000E-03 0.  1.
    9900012    2    1    2    0    0 -0.15406165211E+02 -0.24755827233E+02 -0.28336630883E+02  0.50528861318E+02  0.30000004463E+02 0.  0.
         12    1    1    2    0    0  0.15406165211E+02  0.24755827233E+02  0.28336630883E+02  0.40659138682E+02  0.00000000000E+00 0. -1.
         11    1    3    3    0    0  0.14966615428E+01 -0.10483696183E+02 -0.99067139022E+01  0.14501408967E+02  0.51100000000E-03 0. -1.
        -11    1    3    3    0    0 -0.10757892379E+02 -0.14837170598E+02 -0.22206706195E+02  0.28792562930E+02  0.51100000000E-03 0.  1.
        -12    1    3    3    0    0 -0.61449343750E+01  0.56503954780E+00  0.37767892141E+01  0.72348894208E+01  0.00000000000E+00 0.  1.
</event>
<event>
 7    1  0.4836188E-013  0.5052888E+02  0.7816164E-02  0.1300439E+00
        -11   -1    0    0    0    0  0.00000000000E+00  0.00000000000E+00  0.45593999997E+02  0.45594000000E+02  0.51100000000E-03 0.  1.
         11   -1    0    0    0    0 -0.00000000000E+00 -0.00000000000E+00 -0.45593999997E+02  0.45594000000E+02  0.51100000000E-03 0. -1.
    9900012    2    1    2    0    0  0.34171806842E+02  0.37634534454E+01  0.21709169864E+02  0.50528880225E+02  0.30000061932E+02 0.  0.
         12    1    1    2    0    0 -0.34171806842E+02 -0.37634534454E+01 -0.21709169864E+02  0.40659119775E+02  0.00000000000E+00 0. -1.
         11    1    3    3    0    0 -0.14927277818E+01 -0.73426476533E+00 -0.52059272090E+00  0.17431001171E+01  0.51100000000E-03 0.  1.
        -11    1    3    3    0    0  0.30887647077E+02 -0.63180049043E+01  0.17434550038E+02  0.36026760377E+02  0.51100000000E-03 0. -1.
         12    1    3    3    0    0  0.47768875469E+01  0.10815723115E+02  0.47952125466E+01  0.12759019731E+02  0.00000000000E+00 0. -1.
</event>
<event>
 7    1  0.4836188E-013  0.5052886E+02  0.7816164E-02  0.1300439E+00
        -11   -1    0    0    0    0  0.00000000000E+00  0.00000000000E+00  0.45593999997E+02  0.45594000000E+02  0.51100000000E-03 0. -1.
         11   -1    0    0    0    0 -0.00000000000E+00 -0.00000000000E+00 -0.45593999997E+02  0.45594000000E+02  0.51100000000E-03 0.  1.
    9900012    2    1    2    0    0 -0.38994628327E+02  0.26053786242E+01  0.11215922527E+02  0.50528856450E+02  0.29999989665E+02 0.  0.
         12    1    1    2    0    0  0.38994628327E+02 -0.26053786242E+01 -0.11215922527E+02  0.40659143550E+02  0.00000000000E+00 0. -1.
         11    1    3    3    0    0 -0.18349025268E+02 -0.10183738747E+02 -0.40044227259E+01  0.21364237987E+02  0.51100000000E-03 0. -1.
        -11    1    3    3    0    0 -0.56017198232E+01  0.29714927703E+01  0.13854248442E+01  0.64906422272E+01  0.51100000000E-03 0.  1.
        -12    1    3    3    0    0 -0.15043883236E+02  0.98176246007E+01  0.13834920409E+02  0.22673976236E+02  0.00000000000E+00 0.  1.
</event>
<event>
 7    1  0.4836188E-013  0.5052886E+02  0.7816164E-02  0.1300439E+00
        -11   -1    0    0    0    0  0.00000000000E+00  0.00000000000E+00  0.45593999997E+02  0.45594000000E+02  0.51100000000E-03 0.  1.
         11   -1    0    0    0    0 -0.00000000000E+00 -0.00000000000E+00 -0.45593999997E+02  0.45594000000E+02  0.51100000000E-03 0. -1.
    9900012    2    1    2    0    0  0.17701587771E+02  0.16098691350E+02  0.32873267204E+02  0.50528858722E+02  0.29999996572E+02 0.  0.
         12    1    1    2    0    0 -0.17701587771E+02 -0.16098691350E+02 -0.32873267204E+02  0.40659141278E+02  0.00000000000E+00 0. -1.
         11    1    3    3    0    0 -0.12362167987E+01  0.77560522946E+01  0.15194390275E+01  0.79995796383E+01  0.51100000000E-03 0. -1.
        -11    1    3    3    0    0  0.38922293615E+01  0.75908108345E+01  0.24568480018E+02  0.26007307995E+02  0.51100000000E-03 0.  1.
        -12    1    3    3    0    0  0.15045575208E+02  0.75182822122E+00  0.67853481583E+01  0.16521971088E+02  0.00000000000E+00 0.  1.
</event>
<event>
 7    1  0.4836188E-013  0.5052886E+02  0.7816164E-02  0.1300439E+00
        -11   -1    0    0    0    0  0.00000000000E+00  0.00000000000E+00  0.45593999997E+02  0.45594000000E+02  0.51100000000E-03 0.  1.
         11   -1    0    0    0    0 -0.00000000000E+00 -0.00000000000E+00 -0.45593999997E+02  0.45594000000E+02  0.51100000000E-03 0. -1.
    9900012    2    1    2    0    0 -0.20705926940E+01  0.49868592231E+01  0.40299002127E+02  0.50528859681E+02  0.29999999486E+02 0.  0.
         12    1    1    2    0    0  0.20705926940E+01 -0.49868592231E+01 -0.40299002127E+02  0.40659140319E+02  0.00000000000E+00 0. -1.
         11    1    3    3    0    0 -0.61453202715E+01  0.31766496827E+01  0.45202746971E+01  0.82637127276E+01  0.51100000000E-03 0. -1.
        -11    1    3    3    0    0 -0.51636352069E+01 -0.44433549243E+01  0.27610766663E+02  0.28438723029E+02  0.51100000000E-03 0.  1.
        -12    1    3    3    0    0  0.92383627844E+01  0.62535644646E+01  0.81679607676E+01  0.13826423925E+02  0.00000000000E+00 0.  1.
</event>
<event>
 7    1  0.4836188E-013  0.5052888E+02  0.7816164E-02  0.1300439E+00
        -11   -1    0    0    0    0  0.00000000000E+00  0.00000000000E+00  0.45593999997E+02  0.45594000000E+02  0.51100000000E-03 0.  1.
         11   -1    0    0    0    0 -0.00000000000E+00 -0.00000000000E+00 -0.45593999997E+02  0.45594000000E+02  0.51100000000E-03 0. -1.
    9900012    2    1    2    0    0 -0.27443212553E+02 -0.17585416883E+02  0.24306120605E+02  0.50528876780E+02  0.30000051459E+02 0.  0.
         12    1    1    2    0    0  0.27443212553E+02  0.17585416883E+02 -0.24306120605E+02  0.40659123220E+02  0.00000000000E+00 0. -1.
         11    1    3    3    0    0  0.18139681373E+01  0.12150203840E+01  0.53910443655E+01  0.58163660947E+01  0.51100000000E-03 0. -1.
        -11    1    3    3    0    0 -0.21319330632E+02 -0.36932606899E+01  0.17045886619E+02  0.27544805028E+02  0.51100000000E-03 0.  1.
         12    1    3    3    0    0 -0.79378500577E+01 -0.15107176577E+02  0.18691896202E+01  0.17167705657E+02  0.00000000000E+00 0. -1.
</event>
<event>
 7    1  0.4836188E-013  0.5052886E+02  0.7816164E-02  0.1300439E+00
        -11   -1    0    0    0    0  0.00000000000E+00  0.00000000000E+00  0.45593999997E+02  0.45594000000E+02  0.51100000000E-03 0. -1.
         11   -1    0    0    0    0 -0.00000000000E+00 -0.00000000000E+00 -0.45593999997E+02  0.45594000000E+02  0.51100000000E-03 0.  1.
    9900012    2    1    2    0    0 -0.18256458519E+02 -0.31342265967E+02 -0.18371978789E+02  0.50528861811E+02  0.30000005962E+02 0.  0.
         12    1    1    2    0    0  0.18256458519E+02  0.31342265967E+02  0.18371978789E+02  0.40659138189E+02  0.00000000000E+00 0. -1.
         11    1    3    3    0    0 -0.14541201662E+00 -0.92126328545E+00  0.28688992238E+01  0.30166958271E+01  0.51100000000E-03 0. -1.
        -11    1    3    3    0    0 -0.39655322805E+01  0.37500622558E+01 -0.19162771785E+01  0.57845079026E+01  0.51100000000E-03 0.  1.
        -12    1    3    3    0    0 -0.14145514222E+02 -0.34171064938E+02 -0.19324600834E+02  0.41727658082E+02  0.00000000000E+00 0.  1.
</event>
<event>
 7    1  0.4836188E-013  0.5052884E+02  0.7816164E-02  0.1300439E+00
        -11   -1    0    0    0    0  0.00000000000E+00  0.00000000000E+00  0.45593999997E+02  0.45594000000E+02  0.51100000000E-03 0.  1.
         11   -1    0    0    0    0 -0.00000000000E+00 -0.00000000000E+00 -0.45593999997E+02  0.45594000000E+02  0.51100000000E-03 0. -1.
    9900012    2    1    2    0    0 -0.30755812177E+02 -0.73065338940E+01  0.25570723798E+02  0.50528839460E+02  0.29999938024E+02 0.  0.
         12    1    1    2    0    0  0.30755812177E+02  0.73065338940E+01 -0.25570723798E+02  0.40659160540E+02  0.00000000000E+00 0. -1.
         11    1    3    3    0    0 -0.93474589644E+01  0.56118140889E+01  0.72657834072E+01  0.13101872204E+02  0.51100000000E-03 0. -1.
        -11    1    3    3    0    0 -0.67955847407E+01  0.46873482531E+01  0.10271107817E+02  0.13177513485E+02  0.51100000000E-03 0.  1.
         12    1    3    3    0    0 -0.14612768472E+02 -0.17605696236E+02  0.80338325739E+01  0.24249453771E+02  0.00000000000E+00 0. -1.
</event>
<event>
 7    1  0.4836188E-013  0.5052884E+02  0.7816164E-02  0.1300439E+00
        -11   -1    0    0    0    0  0.00000000000E+00  0.00000000000E+00  0.45593999997E+02  0.45594000000E+02  0.51100000000E-03 0.  1.
         11   -1    0    0    0    0 -0.00000000000E+00 -0.00000000000E+00 -0.45593999997E+02  0.45594000000E+02  0.51100000000E-03 0. -1.
    9900012    2    1    2    0    0 -0.21262702176E+02  0.24132550707E+01  0.34572257767E+02  0.50528839766E+02  0.29999938952E+02 0.  0.
         12    1    1    2    0    0  0.21262702176E+02 -0.24132550707E+01 -0.34572257767E+02  0.40659160234E+02  0.00000000000E+00 0. -1.
         11    1    3    3    0    0 -0.41279491579E+01  0.68131308789E+01  0.40472659907E+01  0.89352716178E+01  0.51100000000E-03 0. -1.
        -11    1    3    3    0    0 -0.18892767520E+02  0.42070266429E+01  0.19225364217E+02  0.27280952463E+02  0.51100000000E-03 0.  1.
         12    1    3    3    0    0  0.17580145015E+01 -0.86069024512E+01  0.11299627559E+02  0.14312615685E+02  0.00000000000E+00 0. -1.
</event>
<event>
 7    1  0.4836188E-013  0.5052886E+02  0.7816164E-02  0.1300439E+00
        -11   -1    0    0    0    0  0.00000000000E+00  0.00000000000E+00  0.45593999997E+02  0.45594000000E+02  0.51100000000E-03 0.  1.
         11   -1    0    0    0    0 -0.00000000000E+00 -0.00000000000E+00 -0.45593999997E+02  0.45594000000E+02  0.51100000000E-03 0. -1.
    9900012    2    1    2    0    0  0.25876910963E+02  0.83122203009E+01  0.30240011761E+02  0.50528857871E+02  0.29999993985E+02 0.  0.
         12    1    1    2    0    0 -0.25876910963E+02 -0.83122203009E+01 -0.30240011761E+02  0.40659142129E+02  0.00000000000E+00 0. -1.
         11    1    3    3    0    0  0.17297454918E+02  0.80957894094E+01  0.91872056513E+01  0.21193123902E+02  0.51100000000E-03 0. -1.
        -11    1    3    3    0    0  0.13332801356E+02 -0.22826339120E+01  0.93036086699E+01  0.16417403696E+02  0.51100000000E-03 0.  1.
        -12    1    3    3    0    0 -0.47533453110E+01  0.24990648036E+01  0.11749197440E+02  0.12918330272E+02  0.00000000000E+00 0.  1.
</event>
<event>
 7    1  0.4836188E-013  0.5052886E+02  0.7816164E-02  0.1300439E+00
        -11   -1    0    0    0    0  0.00000000000E+00  0.00000000000E+00  0.45593999997E+02  0.45594000000E+02  0.51100000000E-03 0.  1.
         11   -1    0    0    0    0 -0.00000000000E+00 -0.00000000000E+00 -0.45593999997E+02  0.45594000000E+02  0.51100000000E-03 0. -1.
    9900012    2    1    2    0    0 -0.35135024090E+02  0.79460294975E+01  0.18856205465E+02  0.50528858505E+02  0.29999995912E+02 0.  0.
         12    1    1    2    0    0  0.35135024090E+02 -0.79460294975E+01 -0.18856205465E+02  0.40659141495E+02  0.00000000000E+00 0. -1.
         11    1    3    3    0    0 -0.81751955822E+01 -0.17223185224E+01 -0.18326522101E+01  0.85532928329E+01  0.51100000000E-03 0.  1.
        -11    1    3    3    0    0 -0.74162281538E+01 -0.72192641024E+01  0.33987957500E+01  0.10893577329E+02  0.51100000000E-03 0. -1.
         12    1    3    3    0    0 -0.19543600354E+02  0.16887612122E+02  0.17290061925E+02  0.31081988343E+02  0.00000000000E+00 0. -1.
</event>
<event>
 7    1  0.4836188E-013  0.5052885E+02  0.7816164E-02  0.1300439E+00
        -11   -1    0    0    0    0  0.00000000000E+00  0.00000000000E+00  0.45593999997E+02  0.45594000000E+02  0.51100000000E-03 0. -1.
         11   -1    0    0    0    0 -0.00000000000E+00 -0.00000000000E+00 -0.45593999997E+02  0.45594000000E+02  0.51100000000E-03 0.  1.
    9900012    2    1    2    0    0  0.23811620519E+02  0.17718967417E+02 -0.27788689134E+02  0.50528851929E+02  0.29999975924E+02 0.  0.
         12    1    1    2    0    0 -0.23811620519E+02 -0.17718967417E+02  0.27788689134E+02  0.40659148071E+02  0.00000000000E+00 0. -1.
         11    1    3    3    0    0 -0.30061590910E+00  0.58112925425E+00 -0.59019154411E+01  0.59380710058E+01  0.51100000000E-03 0.  1.
        -11    1    3    3    0    0  0.24331769284E+02  0.48391396782E+01 -0.80608551013E+01  0.26085046570E+02  0.51100000000E-03 0. -1.
         12    1    3    3    0    0 -0.21953285587E+00  0.12298698484E+02 -0.13825918591E+02  0.18505734354E+02  0.00000000000E+00 0. -1.
</event>
<event>
 7    1  0.4836188E-013  0.5052886E+02  0.7816164E-02  0.1300439E+00
        -11   -1    0    0    0    0  0.00000000000E+00  0.00000000000E+00  0.45593999997E+02  0.45594000000E+02  0.51100000000E-03 0.  1.
         11   -1    0    0    0    0 -0.00000000000E+00 -0.00000000000E+00 -0.45593999997E+02  0.45594000000E+02  0.51100000000E-03 0. -1.
    9900012    2    1    2    0    0  0.15694606105E+02  0.58367850486E+01  0.37051009490E+02  0.50528855583E+02  0.29999987029E+02 0.  0.
         12    1    1    2    0    0 -0.15694606105E+02 -0.58367850486E+01 -0.37051009490E+02  0.40659144417E+02  0.00000000000E+00 0. -1.
         11    1    3    3    0    0  0.73439411250E+01 -0.21255119090E+01 -0.30814782300E+00  0.76515506575E+01  0.51100000000E-03 0. -1.
        -11    1    3    3    0    0  0.12856054815E+02  0.85466002154E+01  0.22112884514E+02  0.26968540607E+02  0.51100000000E-03 0.  1.
        -12    1    3    3    0    0 -0.45053898353E+01 -0.58430325783E+00  0.15246272799E+02  0.15908764318E+02  0.00000000000E+00 0.  1.
</event>
<event>
 7    1  0.4836188E-013  0.5052886E+02  0.7816164E-02  0.1300439E+00
        -11   -1    0    0    0    0  0.00000000000E+00  0.00000000000E+00  0.45593999997E+02  0.45594000000E+02  0.51100000000E-03 0.  1.
         11   -1    0    0    0    0 -0.00000000000E+00 -0.00000000000E+00 -0.45593999997E+02  0.45594000000E+02  0.51100000000E-03 0. -1.
    9900012    2    1    2    0    0 -0.32244942930E+02  0.11686668816E+02  0.21836911830E+02  0.50528864608E+02  0.30000014463E+02 0.  0.
         12    1    1    2    0    0  0.32244942930E+02 -0.11686668816E+02 -0.21836911830E+02  0.40659135392E+02  0.00000000000E+00 0. -1.
         11    1    3    3    0    0 -0.55207629088E+00 -0.31054957206E+01 -0.22272067222E+01  0.38612617039E+01  0.51100000000E-03 0. -1.
        -11    1    3    3    0    0 -0.71738368411E+01  0.71080542632E+01  0.17406855910E+02  0.20124288891E+02  0.51100000000E-03 0.  1.
        -12    1    3    3    0    0 -0.24519029798E+02  0.76841102731E+01  0.66572626421E+01  0.26543314013E+02  0.00000000000E+00 0.  1.
</event>
<event>
 7    1  0.4836188E-013  0.5052888E+02  0.7816164E-02  0.1300439E+00
        -11   -1    0    0    0    0  0.00000000000E+00  0.00000000000E+00  0.45593999997E+02  0.45594000000E+02  0.51100000000E-03 0.  1.
         11   -1    0    0    0    0 -0.00000000000E+00 -0.00000000000E+00 -0.45593999997E+02  0.45594000000E+02  0.51100000000E-03 0. -1.
    9900012    2    1    2    0    0 -0.35148812899E+02  0.69956791573E+01  0.19203796473E+02  0.50528875882E+02  0.30000048732E+02 0.  0.
         12    1    1    2    0    0  0.35148812899E+02 -0.69956791573E+01 -0.19203796473E+02  0.40659124118E+02  0.00000000000E+00 0. -1.
         11    1    3    3    0    0 -0.36288864853E+01  0.62518390866E+01  0.34507102396E+01  0.80101005303E+01  0.51100000000E-03 0. -1.
        -11    1    3    3    0    0 -0.70125640961E+01  0.10179474982E+02  0.10100208209E+01  0.12402334797E+02  0.51100000000E-03 0.  1.
         12    1    3    3    0    0 -0.24507362317E+02 -0.94356349111E+01  0.14743065412E+02  0.30116440554E+02  0.00000000000E+00 0. -1.
</event>
<event>
 7    1  0.4836188E-013  0.5052886E+02  0.7816164E-02  0.1300439E+00
        -11   -1    0    0    0    0  0.00000000000E+00  0.00000000000E+00  0.45593999997E+02  0.45594000000E+02  0.51100000000E-03 0. -1.
         11   -1    0    0    0    0 -0.00000000000E+00 -0.00000000000E+00 -0.45593999997E+02  0.45594000000E+02  0.51100000000E-03 0.  1.
    9900012    2    1    2    0    0  0.38712759114E+02  0.10872144692E+02  0.60236317262E+01  0.50528863418E+02  0.30000010844E+02 0.  0.
         12    1    1    2    0    0 -0.38712759114E+02 -0.10872144692E+02 -0.60236317262E+01  0.40659136582E+02  0.00000000000E+00 0. -1.
         11    1    3    3    0    0  0.27039676286E+01 -0.14100459781E+01  0.11669397541E+01  0.32651828812E+01  0.51100000000E-03 0. -1.
        -11    1    3    3    0    0  0.26050473904E+01 -0.50148322508E+00 -0.86380157819E+01  0.90362090636E+01  0.51100000000E-03 0.  1.
         12    1    3    3    0    0  0.33403744095E+02  0.12783673895E+02  0.13494707754E+02  0.38227471473E+02  0.00000000000E+00 0. -1.
</event>
<event>
 7    1  0.4836188E-013  0.5052887E+02  0.7816164E-02  0.1300439E+00
        -11   -1    0    0    0    0  0.00000000000E+00  0.00000000000E+00  0.45593999997E+02  0.45594000000E+02  0.51100000000E-03 0. -1.
         11   -1    0    0    0    0 -0.00000000000E+00 -0.00000000000E+00 -0.45593999997E+02  0.45594000000E+02  0.51100000000E-03 0.  1.
    9900012    2    1    2    0    0 -0.37992544469E+02 -0.32513507170E+01 -0.14112415231E+02  0.50528868426E+02  0.30000026068E+02 0.  0.
         12    1    1    2    0    0  0.37992544469E+02  0.32513507170E+01  0.14112415231E+02  0.40659131574E+02  0.00000000000E+00 0. -1.
         11    1    3    3    0    0 -0.10235599252E+02 -0.59311332598E+01  0.63775208572E+01  0.13439442188E+02  0.51100000000E-03 0. -1.
        -11    1    3    3    0    0 -0.10790077246E+02  0.25759459260E+01 -0.83595513003E+00  0.11124751037E+02  0.51100000000E-03 0.  1.
         12    1    3    3    0    0 -0.16966867971E+02  0.10383661677E+00 -0.19653980958E+02  0.25964675201E+02  0.00000000000E+00 0. -1.
</event>
<event>
 7    1  0.4836188E-013  0.5052886E+02  0.7816164E-02  0.1300439E+00
        -11   -1    0    0    0    0  0.00000000000E+00  0.00000000000E+00  0.45593999997E+02  0.45594000000E+02  0.51100000000E-03 0. -1.
         11   -1    0    0    0    0 -0.00000000000E+00 -0.00000000000E+00 -0.45593999997E+02  0.45594000000E+02  0.51100000000E-03 0.  1.
    9900012    2    1    2    0    0  0.12252738705E+01  0.35868707589E+02 -0.19107600100E+02  0.50528857587E+02  0.29999993122E+02 0.  0.
         12    1    1    2    0    0 -0.12252738705E+01 -0.35868707589E+02  0.19107600100E+02  0.40659142413E+02  0.00000000000E+00 0. -1.
         11    1    3    3    0    0  0.64660818172E+01  0.57691346374E+01 -0.11636217618E+02  0.14508435107E+02  0.51100000000E-03 0. -1.
        -11    1    3    3    0    0 -0.43155887823E+01  0.48114810198E+01 -0.85194429496E+01  0.10693716126E+02  0.51100000000E-03 0.  1.
         12    1    3    3    0    0 -0.92521916442E+00  0.25288091932E+02  0.10480604674E+01  0.25326706355E+02  0.00000000000E+00 0. -1.
</event>
<event>
 7    1  0.4836188E-013  0.5052885E+02  0.7816164E-02  0.1300439E+00
        -11   -1    0    0    0    0  0.00000000000E+00  0.00000000000E+00  0.45593999997E+02  0.45594000000E+02  0.51100000000E-03 0.  1.
         11   -1    0    0    0    0 -0.00000000000E+00 -0.00000000000E+00 -0.45593999997E+02  0.45594000000E+02  0.51100000000E-03 0. -1.
    9900012    2    1    2    0    0 -0.12365004138E+02  0.27331895893E+02 -0.27445223086E+02  0.50528854280E+02  0.29999983069E+02 0.  0.
         12    1    1    2    0    0  0.12365004138E+02 -0.27331895893E+02  0.27445223086E+02  0.40659145720E+02  0.00000000000E+00 0. -1.
         11    1    3    3    0    0 -0.10208843295E+02 -0.57991743104E-01 -0.55665903250E+01  0.11628016708E+02  0.51100000000E-03 0. -1.
        -11    1    3    3    0    0 -0.84058892433E+01  0.13192850534E+02 -0.61462622580E+01  0.16807344204E+02  0.51100000000E-03 0.  1.
         12    1    3    3    0    0  0.62497283999E+01  0.14197037102E+02 -0.15732370503E+02  0.22093493368E+02  0.00000000000E+00 0. -1.
</event>
<event>
 7    1  0.4836188E-013  0.5052889E+02  0.7816164E-02  0.1300439E+00
        -11   -1    0    0    0    0  0.00000000000E+00  0.00000000000E+00  0.45593999997E+02  0.45594000000E+02  0.51100000000E-03 0. -1.
         11   -1    0    0    0    0 -0.00000000000E+00 -0.00000000000E+00 -0.45593999997E+02  0.45594000000E+02  0.51100000000E-03 0.  1.
    9900012    2    1    2    0    0 -0.13464526434E+02 -0.33736498712E+02 -0.18267956428E+02  0.50528892170E+02  0.30000098241E+02 0.  0.
         12    1    1    2    0    0  0.13464526434E+02  0.33736498712E+02  0.18267956428E+02  0.40659107830E+02  0.00000000000E+00 0. -1.
         11    1    3    3    0    0 -0.10794628460E+02 -0.51713639238E+01 -0.40105559276E+00  0.11976136867E+02  0.51100000000E-03 0. -1.
        -11    1    3    3    0    0  0.44827100982E+01 -0.70438527574E+00 -0.57894780844E+01  0.73558755558E+01  0.51100000000E-03 0.  1.
        -12    1    3    3    0    0 -0.71526080721E+01 -0.27860749513E+02 -0.12077422751E+02  0.31196879747E+02  0.00000000000E+00 0.  1.
</event>
<event>
 7    1  0.4836188E-013  0.5052886E+02  0.7816164E-02  0.1300439E+00
        -11   -1    0    0    0    0  0.00000000000E+00  0.00000000000E+00  0.45593999997E+02  0.45594000000E+02  0.51100000000E-03 0.  1.
         11   -1    0    0    0    0 -0.00000000000E+00 -0.00000000000E+00 -0.45593999997E+02  0.45594000000E+02  0.51100000000E-03 0. -1.
    9900012    2    1    2    0    0  0.35477000495E+02  0.24015372207E+01  0.19717522718E+02  0.50528860224E+02  0.30000001138E+02 0.  0.
         12    1    1    2    0    0 -0.35477000495E+02 -0.24015372207E+01 -0.19717522718E+02  0.40659139776E+02  0.00000000000E+00 0. -1.
         11    1    3    3    0    0  0.13616860712E+02  0.10565719793E+02  0.76533866983E+01  0.18858092656E+02  0.51100000000E-03 0. -1.
        -11    1    3    3    0    0  0.16900072723E+02  0.84823691702E+00  0.15999691518E+01  0.16996819275E+02  0.51100000000E-03 0.  1.
        -12    1    3    3    0    0  0.49600670596E+01 -0.90124194892E+01  0.10464166868E+02  0.14673948294E+02  0.00000000000E+00 0.  1.
</event>
<event>
 7    1  0.4836188E-013  0.5052887E+02  0.7816164E-02  0.1300439E+00
        -11   -1    0    0    0    0  0.00000000000E+00  0.00000000000E+00  0.45593999997E+02  0.45594000000E+02  0.51100000000E-03 0. -1.
         11   -1    0    0    0    0 -0.00000000000E+00 -0.00000000000E+00 -0.45593999997E+02  0.45594000000E+02  0.51100000000E-03 0.  1.
    9900012    2    1    2    0    0 -0.96578783821E+01 -0.39377983218E+02 -0.30438411935E+01  0.50528866385E+02  0.30000019863E+02 0.  0.
         12    1    1    2    0    0  0.96578783821E+01  0.39377983218E+02  0.30438411935E+01  0.40659133615E+02  0.00000000000E+00 0. -1.
         11    1    3    3    0    0 -0.14222894687E+02 -0.19562163693E+02  0.73705652004E+01  0.25284268099E+02  0.51100000000E-03 0. -1.
        -11    1    3    3    0    0 -0.26645005337E+01 -0.40584304045E+01 -0.52595843509E+01  0.71577683846E+01  0.51100000000E-03 0.  1.
        -12    1    3    3    0    0  0.72295168388E+01 -0.15757389120E+02 -0.51548220430E+01  0.18086829901E+02  0.00000000000E+00 0.  1.
</event>
<event>
 7    1  0.4836188E-013  0.5052886E+02  0.7816164E-02  0.1300439E+00
        -11   -1    0    0    0    0  0.00000000000E+00  0.00000000000E+00  0.45593999997E+02  0.45594000000E+02  0.51100000000E-03 0.  1.
         11   -1    0    0    0    0 -0.00000000000E+00 -0.00000000000E+00 -0.45593999997E+02  0.45594000000E+02  0.51100000000E-03 0. -1.
    9900012    2    1    2    0    0  0.39758861789E+02  0.18759549513E+01  0.82993721043E+01  0.50528857423E+02  0.29999992623E+02 0.  0.
         12    1    1    2    0    0 -0.39758861789E+02 -0.18759549513E+01 -0.82993721043E+01  0.40659142577E+02  0.00000000000E+00 0. -1.
         11    1    3    3    0    0 -0.93119505714E+00 -0.25619039409E+01  0.53213723158E+00  0.27773451948E+01  0.51100000000E-03 0. -1.
        -11    1    3    3    0    0  0.11222310299E+02  0.12257039607E+02  0.22813064826E+01  0.16774374144E+02  0.51100000000E-03 0.  1.
        -12    1    3    3    0    0  0.29467746547E+02 -0.78191807148E+01  0.54859283901E+01  0.30977138085E+02  0.00000000000E+00 0.  1.
</event>
<event>
 7    1  0.4836188E-013  0.5052885E+02  0.7816164E-02  0.1300439E+00
        -11   -1    0    0    0    0  0.00000000000E+00  0.00000000000E+00  0.45593999997E+02  0.45594000000E+02  0.51100000000E-03 0.  1.
         11   -1    0    0    0    0 -0.00000000000E+00 -0.00000000000E+00 -0.45593999997E+02  0.45594000000E+02  0.51100000000E-03 0. -1.
    9900012    2    1    2    0    0 -0.33817214777E+02 -0.17920179530E+02  0.13726962629E+02  0.50528851551E+02  0.29999974773E+02 0.  0.
         12    1    1    2    0    0  0.33817214777E+02  0.17920179530E+02 -0.13726962629E+02  0.40659148449E+02  0.00000000000E+00 0. -1.
         11    1    3    3    0    0 -0.14698335336E+02 -0.14883131863E+02 -0.24738995070E+01  0.21063448310E+02  0.51100000000E-03 0. -1.
        -11    1    3    3    0    0 -0.17981577130E+02 -0.76346257255E+01  0.10952600539E+02  0.22396072979E+02  0.51100000000E-03 0.  1.
        -12    1    3    3    0    0 -0.11373023106E+01  0.45975780586E+01  0.52482615972E+01  0.70693302613E+01  0.00000000000E+00 0.  1.
</event>
<event>
 7    1  0.4836188E-013  0.5052888E+02  0.7816164E-02  0.1300439E+00
        -11   -1    0    0    0    0  0.00000000000E+00  0.00000000000E+00  0.45593999997E+02  0.45594000000E+02  0.51100000000E-03 0.  1.
         11   -1    0    0    0    0 -0.00000000000E+00 -0.00000000000E+00 -0.45593999997E+02  0.45594000000E+02  0.51100000000E-03 0. -1.
    9900012    2    1    2    0    0  0.38791231593E+02 -0.11714310560E+02  0.33434920576E+01  0.50528884669E+02  0.30000075439E+02 0.  0.
         12    1    1    2    0    0 -0.38791231593E+02  0.11714310560E+02 -0.33434920576E+01  0.40659115331E+02  0.00000000000E+00 0. -1.
         11    1    3    3    0    0  0.16813523840E+02 -0.72409921734E+01 -0.18856144095E+01  0.18403317460E+02  0.51100000000E-03 0. -1.
        -11    1    3    3    0    0 -0.26135853753E+01 -0.33390838435E+01 -0.40055167739E+01  0.58330501725E+01  0.51100000000E-03 0.  1.
        -12    1    3    3    0    0  0.24591293128E+02 -0.11342345433E+01  0.92346232409E+01  0.26292517036E+02  0.00000000000E+00 0.  1.
</event>
<event>
 7    1  0.4836188E-013  0.5052886E+02  0.7816164E-02  0.1300439E+00
        -11   -1    0    0    0    0  0.00000000000E+00  0.00000000000E+00  0.45593999997E+02  0.45594000000E+02  0.51100000000E-03 0. -1.
         11   -1    0    0    0    0 -0.00000000000E+00 -0.00000000000E+00 -0.45593999997E+02  0.45594000000E+02  0.51100000000E-03 0.  1.
    9900012    2    1    2    0    0 -0.49093916162E+00  0.38176824482E+02 -0.13980498317E+02  0.50528864716E+02  0.30000014792E+02 0.  0.
         12    1    1    2    0    0  0.49093916162E+00 -0.38176824482E+02  0.13980498317E+02  0.40659135284E+02  0.00000000000E+00 0. -1.
         11    1    3    3    0    0  0.84758719217E+01  0.13313812699E+02 -0.55444952974E+01  0.16728402248E+02  0.51100000000E-03 0. -1.
        -11    1    3    3    0    0 -0.36338363804E+01 -0.27047025921E+01 -0.18181572020E+00  0.45335681498E+01  0.51100000000E-03 0.  1.
        -12    1    3    3    0    0 -0.53329747029E+01  0.27567714376E+02 -0.82541872991E+01  0.29266894319E+02  0.00000000000E+00 0.  1.
</event>
<event>
 7    1  0.4836188E-013  0.5052886E+02  0.7816164E-02  0.1300439E+00
        -11   -1    0    0    0    0  0.00000000000E+00  0.00000000000E+00  0.45593999997E+02  0.45594000000E+02  0.51100000000E-03 0. -1.
         11   -1    0    0    0    0 -0.00000000000E+00 -0.00000000000E+00 -0.45593999997E+02  0.45594000000E+02  0.51100000000E-03 0.  1.
    9900012    2    1    2    0    0  0.27240217856E+02 -0.29947021349E+02 -0.37831772120E+01  0.50528856055E+02  0.29999988465E+02 0.  0.
         12    1    1    2    0    0 -0.27240217856E+02  0.29947021349E+02  0.37831772120E+01  0.40659143945E+02  0.00000000000E+00 0. -1.
         11    1    3    3    0    0  0.31455782806E+01 -0.48783229146E+01  0.42545375920E+01  0.71967900873E+01  0.51100000000E-03 0. -1.
        -11    1    3    3    0    0  0.22166429102E+02 -0.17246182830E+02  0.44854201363E+01  0.28441174297E+02  0.51100000000E-03 0.  1.
         12    1    3    3    0    0  0.19282104733E+01 -0.78225156040E+01 -0.12523134940E+02  0.14890891670E+02  0.00000000000E+00 0. -1.
</event>
<event>
 7    1  0.4836188E-013  0.5052886E+02  0.7816164E-02  0.1300439E+00
        -11   -1    0    0    0    0  0.00000000000E+00  0.00000000000E+00  0.45593999997E+02  0.45594000000E+02  0.51100000000E-03 0. -1.
         11   -1    0    0    0    0 -0.00000000000E+00 -0.00000000000E+00 -0.45593999997E+02  0.45594000000E+02  0.51100000000E-03 0.  1.
    9900012    2    1    2    0    0 -0.64719637759E+01  0.12402266128E+02 -0.38176736167E+02  0.50528859520E+02  0.29999998997E+02 0.  0.
         12    1    1    2    0    0  0.64719637759E+01 -0.12402266128E+02  0.38176736167E+02  0.40659140480E+02  0.00000000000E+00 0. -1.
         11    1    3    3    0    0  0.65738023494E+00  0.58041478225E+01 -0.39206756263E+02  0.39639500724E+02  0.51100000000E-03 0. -1.
        -11    1    3    3    0    0 -0.96580196762E+00  0.28709907911E+01 -0.13321598178E+01  0.33090801750E+01  0.51100000000E-03 0.  1.
         12    1    3    3    0    0 -0.61635420432E+01  0.37271275141E+01  0.23621799140E+01  0.75802786209E+01  0.00000000000E+00 0. -1.
</event>
<event>
 7    1  0.4836188E-013  0.5052887E+02  0.7816164E-02  0.1300439E+00
        -11   -1    0    0    0    0  0.00000000000E+00  0.00000000000E+00  0.45593999997E+02  0.45594000000E+02  0.51100000000E-03 0.  1.
         11   -1    0    0    0    0 -0.00000000000E+00 -0.00000000000E+00 -0.45593999997E+02  0.45594000000E+02  0.51100000000E-03 0. -1.
    9900012    2    1    2    0    0  0.24901942770E+02  0.31990659233E+02  0.31073767298E+01  0.50528870373E+02  0.30000031987E+02 0.  0.
         12    1    1    2    0    0 -0.24901942770E+02 -0.31990659233E+02 -0.31073767298E+01  0.40659129627E+02  0.00000000000E+00 0. -1.
         11    1    3    3    0    0  0.89258259046E+01 -0.17645368546E+01  0.22102447652E+01  0.93631800460E+01  0.51100000000E-03 0. -1.
        -11    1    3    3    0    0  0.18838152784E+02  0.27057571249E+02  0.40725486986E+01  0.33220081508E+02  0.51100000000E-03 0.  1.
         12    1    3    3    0    0 -0.28620359193E+01  0.66976248381E+01 -0.31754167341E+01  0.79456088193E+01  0.00000000000E+00 0. -1.
</event>
<event>
 7    1  0.4836188E-013  0.5052886E+02  0.7816164E-02  0.1300439E+00
        -11   -1    0    0    0    0  0.00000000000E+00  0.00000000000E+00  0.45593999997E+02  0.45594000000E+02  0.51100000000E-03 0. -1.
         11   -1    0    0    0    0 -0.00000000000E+00 -0.00000000000E+00 -0.45593999997E+02  0.45594000000E+02  0.51100000000E-03 0.  1.
    9900012    2    1    2    0    0 -0.23328775180E+02  0.95395116552E+01 -0.31905041171E+02  0.50528859747E+02  0.29999999686E+02 0.  0.
         12    1    1    2    0    0  0.23328775180E+02 -0.95395116552E+01  0.31905041171E+02  0.40659140253E+02  0.00000000000E+00 0. -1.
         11    1    3    3    0    0 -0.19324867783E+02  0.34237129464E+00 -0.75077452740E+01  0.20734849223E+02  0.51100000000E-03 0.  1.
        -11    1    3    3    0    0  0.38322471003E+01 -0.31670066905E-01 -0.19735895699E+01  0.43107049171E+01  0.51100000000E-03 0. -1.
        -12    1    3    3    0    0 -0.78361544971E+01  0.92288104274E+01 -0.22423706327E+02  0.25483305607E+02  0.00000000000E+00 0.  1.
</event>
<event>
 7    1  0.4836188E-013  0.5052885E+02  0.7816164E-02  0.1300439E+00
        -11   -1    0    0    0    0  0.00000000000E+00  0.00000000000E+00  0.45593999997E+02  0.45594000000E+02  0.51100000000E-03 0.  1.
         11   -1    0    0    0    0 -0.00000000000E+00 -0.00000000000E+00 -0.45593999997E+02  0.45594000000E+02  0.51100000000E-03 0. -1.
    9900012    2    1    2    0    0 -0.47409136106E+01  0.12297092709E+02  0.38463902911E+02  0.50528848778E+02  0.29999966345E+02 0.  0.
         12    1    1    2    0    0  0.47409136106E+01 -0.12297092709E+02 -0.38463902911E+02  0.40659151222E+02  0.00000000000E+00 0. -1.
         11    1    3    3    0    0  0.20991626225E+01  0.13152830839E+02  0.77803130215E+01  0.15425197365E+02  0.51100000000E-03 0. -1.
        -11    1    3    3    0    0  0.15146130199E+01  0.31652782345E+01  0.22391165957E+02  0.22664451285E+02  0.51100000000E-03 0.  1.
        -12    1    3    3    0    0 -0.83546892530E+01 -0.40210163644E+01  0.82924239333E+01  0.12439200127E+02  0.00000000000E+00 0.  1.
</event>
<event>
 7    1  0.4836188E-013  0.5052886E+02  0.7816164E-02  0.1300439E+00
        -11   -1    0    0    0    0  0.00000000000E+00  0.00000000000E+00  0.45593999997E+02  0.45594000000E+02  0.51100000000E-03 0.  1.
         11   -1    0    0    0    0 -0.00000000000E+00 -0.00000000000E+00 -0.45593999997E+02  0.45594000000E+02  0.51100000000E-03 0. -1.
    9900012    2    1    2    0    0 -0.29505009726E+01 -0.32006317928E+02  0.24900926770E+02  0.50528855921E+02  0.29999988056E+02 0.  0.
         12    1    1    2    0    0  0.29505009726E+01  0.32006317928E+02 -0.24900926770E+02  0.40659144079E+02  0.00000000000E+00 0. -1.
         11    1    3    3    0    0  0.58979485452E+00 -0.34458935990E+01  0.14129079752E+02  0.14555168689E+02  0.51100000000E-03 0. -1.
        -11    1    3    3    0    0  0.31582254384E+00 -0.16626265371E+02  0.15341863148E+02  0.22625322300E+02  0.51100000000E-03 0.  1.
         12    1    3    3    0    0 -0.38561183710E+01 -0.11934158958E+02 -0.45700161301E+01  0.13348364932E+02  0.00000000000E+00 0. -1.
</event>
<event>
 7    1  0.4836188E-013  0.5052887E+02  0.7816164E-02  0.1300439E+00
        -11   -1    0    0    0    0  0.00000000000E+00  0.00000000000E+00  0.45593999997E+02  0.45594000000E+02  0.51100000000E-03 0.  1.
         11   -1    0    0    0    0 -0.00000000000E+00 -0.00000000000E+00 -0.45593999997E+02  0.45594000000E+02  0.51100000000E-03 0. -1.
    9900012    2    1    2    0    0 -0.32002230771E+02  0.10387503392E+02  0.22828089897E+02  0.50528872004E+02  0.30000036943E+02 0.  0.
         12    1    1    2    0    0  0.32002230771E+02 -0.10387503392E+02 -0.22828089897E+02  0.40659127996E+02  0.00000000000E+00 0. -1.
         11    1    3    3    0    0 -0.19822050644E+02  0.12168521724E+02  0.17363079509E+01  0.23323837125E+02  0.51100000000E-03 0. -1.
        -11    1    3    3    0    0 -0.67998067554E+01  0.50418454440E+01  0.96226856855E+01  0.12816148308E+02  0.51100000000E-03 0.  1.
         12    1    3    3    0    0 -0.53803733718E+01 -0.68228637753E+01  0.11469096261E+02  0.14388886571E+02  0.00000000000E+00 0. -1.
</event>
<event>
 7    1  0.4836188E-013  0.5052886E+02  0.7816164E-02  0.1300439E+00
        -11   -1    0    0    0    0  0.00000000000E+00  0.00000000000E+00  0.45593999997E+02  0.45594000000E+02  0.51100000000E-03 0.  1.
         11   -1    0    0    0    0 -0.00000000000E+00 -0.00000000000E+00 -0.45593999997E+02  0.45594000000E+02  0.51100000000E-03 0. -1.
    9900012    2    1    2    0    0  0.14545810686E+02 -0.87316342032E+01  0.36950557954E+02  0.50528858623E+02  0.29999996271E+02 0.  0.
         12    1    1    2    0    0 -0.14545810686E+02  0.87316342032E+01 -0.36950557954E+02  0.40659141377E+02  0.00000000000E+00 0. -1.
         11    1    3    3    0    0  0.18271615330E+01  0.27024946364E+01  0.12643549948E+02  0.13057616631E+02  0.51100000000E-03 0. -1.
        -11    1    3    3    0    0  0.65246650092E+01 -0.14779756788E+02  0.25640853463E+02  0.30306201193E+02  0.51100000000E-03 0.  1.
         12    1    3    3    0    0  0.61939841437E+01  0.33456279487E+01 -0.13338454570E+01  0.71650407987E+01  0.00000000000E+00 0. -1.
</event>
<event>
 7    1  0.4836188E-013  0.5052886E+02  0.7816164E-02  0.1300439E+00
        -11   -1    0    0    0    0  0.00000000000E+00  0.00000000000E+00  0.45593999997E+02  0.45594000000E+02  0.51100000000E-03 0.  1.
         11   -1    0    0    0    0 -0.00000000000E+00 -0.00000000000E+00 -0.45593999997E+02  0.45594000000E+02  0.51100000000E-03 0. -1.
    9900012    2    1    2    0    0  0.40032888129E+02  0.12246565629E+01 -0.70024116259E+01  0.50528859770E+02  0.29999999757E+02 0.  0.
         12    1    1    2    0    0 -0.40032888129E+02 -0.12246565629E+01  0.70024116259E+01  0.40659140230E+02  0.00000000000E+00 0. -1.
         11    1    3    3    0    0  0.21669189138E+01  0.10458035298E+01 -0.98599197038E+00  0.26002736449E+01  0.51100000000E-03 0. -1.
        -11    1    3    3    0    0  0.39282811762E+02  0.33898459438E+01  0.16853768230E+01  0.39464805216E+02  0.51100000000E-03 0.  1.
         12    1    3    3    0    0 -0.14168425465E+01 -0.32109929108E+01 -0.77017964786E+01  0.84637809088E+01  0.00000000000E+00 0. -1.
</event>
<event>
 7    1  0.4836188E-013  0.5052886E+02  0.7816164E-02  0.1300439E+00
        -11   -1    0    0    0    0  0.00000000000E+00  0.00000000000E+00  0.45593999997E+02  0.45594000000E+02  0.51100000000E-03 0.  1.
         11   -1    0    0    0    0 -0.00000000000E+00 -0.00000000000E+00 -0.45593999997E+02  0.45594000000E+02  0.51100000000E-03 0. -1.
    9900012    2    1    2    0    0 -0.11294972311E+02 -0.10957544158E+02  0.37490285528E+02  0.50528859792E+02  0.29999999824E+02 0.  0.
         12    1    1    2    0    0  0.11294972311E+02  0.10957544158E+02 -0.37490285528E+02  0.40659140208E+02  0.00000000000E+00 0. -1.
         11    1    3    3    0    0 -0.87254046970E+01 -0.12988738650E+01  0.15154368554E+02  0.17534955004E+02  0.51100000000E-03 0. -1.
        -11    1    3    3    0    0  0.50057474124E+01 -0.13286855814E+02  0.19514693599E+02  0.24133406537E+02  0.51100000000E-03 0.  1.
         12    1    3    3    0    0 -0.75753150264E+01  0.36281855211E+01  0.28212233751E+01  0.88604982510E+01  0.00000000000E+00 0. -1.
</event>
<event>
 7    1  0.4836188E-013  0.5052886E+02  0.7816164E-02  0.1300439E+00
        -11   -1    0    0    0    0  0.00000000000E+00  0.00000000000E+00  0.45593999997E+02  0.45594000000E+02  0.51100000000E-03 0. -1.
         11   -1    0    0    0    0 -0.00000000000E+00 -0.00000000000E+00 -0.45593999997E+02  0.45594000000E+02  0.51100000000E-03 0.  1.
    9900012    2    1    2    0    0  0.21851754095E+02  0.14521869695E+02 -0.31060940487E+02  0.50528857358E+02  0.29999992425E+02 0.  0.
         12    1    1    2    0    0 -0.21851754095E+02 -0.14521869695E+02  0.31060940487E+02  0.40659142642E+02  0.00000000000E+00 0. -1.
         11    1    3    3    0    0  0.16340393671E+02  0.72483775226E+00 -0.18841065710E+02  0.24950342933E+02  0.51100000000E-03 0. -1.
        -11    1    3    3    0    0  0.88693270481E+01  0.78606462869E+00 -0.62265867801E+01  0.10865230926E+02  0.51100000000E-03 0.  1.
        -12    1    3    3    0    0 -0.33579666245E+01  0.13010967314E+02 -0.59932879965E+01  0.14713283499E+02  0.00000000000E+00 0.  1.
</event>
<event>
 7    1  0.4836188E-013  0.5052886E+02  0.7816164E-02  0.1300439E+00
        -11   -1    0    0    0    0  0.00000000000E+00  0.00000000000E+00  0.45593999997E+02  0.45594000000E+02  0.51100000000E-03 0. -1.
         11   -1    0    0    0    0 -0.00000000000E+00 -0.00000000000E+00 -0.45593999997E+02  0.45594000000E+02  0.51100000000E-03 0.  1.
    9900012    2    1    2    0    0  0.44239692839E+01  0.34029456797E+02 -0.21808034942E+02  0.50528858075E+02  0.29999994604E+02 0.  0.
         12    1    1    2    0    0 -0.44239692839E+01 -0.34029456797E+02  0.21808034942E+02  0.40659141925E+02  0.00000000000E+00 0. -1.
         11    1    3    3    0    0 -0.50528356484E+01  0.90705622496E+01 -0.11826539861E+02  0.15737639371E+02  0.51100000000E-03 0. -1.
        -11    1    3    3    0    0  0.79690666164E+01  0.24023433297E+01 -0.88602664698E+01  0.12156545496E+02  0.51100000000E-03 0.  1.
         12    1    3    3    0    0  0.15077383159E+01  0.22556551217E+02 -0.11212286107E+01  0.22634673208E+02  0.00000000000E+00 0. -1.
</event>
<event>
 7    1  0.4836188E-013  0.5052886E+02  0.7816164E-02  0.1300439E+00
        -11   -1    0    0    0    0  0.00000000000E+00  0.00000000000E+00  0.45593999997E+02  0.45594000000E+02  0.51100000000E-03 0.  1.
         11   -1    0    0    0    0 -0.00000000000E+00 -0.00000000000E+00 -0.45593999997E+02  0.45594000000E+02  0.51100000000E-03 0. -1.
    9900012    2    1    2    0    0  0.71090857160E+01 -0.30879222336E+02  0.25477443628E+02  0.50528860737E+02  0.30000002695E+02 0.  0.
         12    1    1    2    0    0 -0.71090857160E+01  0.30879222336E+02 -0.25477443628E+02  0.40659139263E+02  0.00000000000E+00 0. -1.
         11    1    3    3    0    0  0.67653897475E+01 -0.20019726729E+01  0.74473321349E+01  0.10258710894E+02  0.51100000000E-03 0.  1.
        -11    1    3    3    0    0  0.44490775114E+01 -0.82224911582E+01 -0.36590046502E+01  0.10039520250E+02  0.51100000000E-03 0. -1.
        -12    1    3    3    0    0 -0.41053815429E+01 -0.20654758505E+02  0.21689116144E+02  0.30230629593E+02  0.00000000000E+00 0.  1.
</event>
<event>
 7    1  0.4836188E-013  0.5052887E+02  0.7816164E-02  0.1300439E+00
        -11   -1    0    0    0    0  0.00000000000E+00  0.00000000000E+00  0.45593999997E+02  0.45594000000E+02  0.51100000000E-03 0.  1.
         11   -1    0    0    0    0 -0.00000000000E+00 -0.00000000000E+00 -0.45593999997E+02  0.45594000000E+02  0.51100000000E-03 0. -1.
    9900012    2    1    2    0    0 -0.23876047203E+02 -0.12662173524E+02  0.30377110549E+02  0.50528866786E+02  0.30000021084E+02 0.  0.
         12    1    1    2    0    0  0.23876047203E+02  0.12662173524E+02 -0.30377110549E+02  0.40659133214E+02  0.00000000000E+00 0. -1.
         11    1    3    3    0    0  0.36393141779E+01 -0.81706356015E+01  0.43006636398E+01  0.99246965606E+01  0.51100000000E-03 0. -1.
        -11    1    3    3    0    0 -0.10436156609E+02 -0.19578283406E+01  0.17322467669E+01  0.10758584280E+02  0.51100000000E-03 0.  1.
         12    1    3    3    0    0 -0.17079204772E+02 -0.25337095817E+01  0.24344200142E+02  0.29845585946E+02  0.00000000000E+00 0. -1.
</event>
<event>
 7    1  0.4836188E-013  0.5052895E+02  0.7816164E-02  0.1300438E+00
        -11   -1    0    0    0    0  0.00000000000E+00  0.00000000000E+00  0.45593999997E+02  0.45594000000E+02  0.51100000000E-03 0.  1.
         11   -1    0    0    0    0 -0.00000000000E+00 -0.00000000000E+00 -0.45593999997E+02  0.45594000000E+02  0.51100000000E-03 0. -1.
    9900012    2    1    2    0    0 -0.16256175268E+02  0.19059793613E+02  0.32025297156E+02  0.50528946582E+02  0.30000263630E+02 0.  0.
         12    1    1    2    0    0  0.16256175268E+02 -0.19059793613E+02 -0.32025297156E+02  0.40659053418E+02  0.00000000000E+00 0. -1.
         11    1    3    3    0    0  0.16270306263E+01  0.10255857680E+02  0.11447207484E+02  0.15455368157E+02  0.51100000000E-03 0. -1.
        -11    1    3    3    0    0 -0.60029625555E+01  0.74888845664E+01  0.21025330282E+02  0.23112409334E+02  0.51100000000E-03 0.  1.
         12    1    3    3    0    0 -0.11880243339E+02  0.13150513669E+01 -0.44724060970E+00  0.11961169092E+02  0.00000000000E+00 0. -1.
</event>
<event>
 7    1  0.4836188E-013  0.5052886E+02  0.7816164E-02  0.1300439E+00
        -11   -1    0    0    0    0  0.00000000000E+00  0.00000000000E+00  0.45593999997E+02  0.45594000000E+02  0.51100000000E-03 0.  1.
         11   -1    0    0    0    0 -0.00000000000E+00 -0.00000000000E+00 -0.45593999997E+02  0.45594000000E+02  0.51100000000E-03 0. -1.
    9900012    2    1    2    0    0  0.11206957597E+02 -0.10979551069E+02  0.37510251733E+02  0.50528862954E+02  0.30000009435E+02 0.  0.
         12    1    1    2    0    0 -0.11206957597E+02  0.10979551069E+02 -0.37510251733E+02  0.40659137046E+02  0.00000000000E+00 0. -1.
         11    1    3    3    0    0  0.75151998254E+01  0.11875827608E+01  0.37021482700E+00  0.76174563017E+01  0.51100000000E-03 0. -1.
        -11    1    3    3    0    0  0.10322516806E+02 -0.10106951763E+02  0.26999049280E+02  0.30621128154E+02  0.51100000000E-03 0.  1.
        -12    1    3    3    0    0 -0.66307590347E+01 -0.20601820675E+01  0.10140987626E+02  0.12290278498E+02  0.00000000000E+00 0.  1.
</event>
<event>
 7    1  0.4836188E-013  0.5052886E+02  0.7816164E-02  0.1300439E+00
        -11   -1    0    0    0    0  0.00000000000E+00  0.00000000000E+00  0.45593999997E+02  0.45594000000E+02  0.51100000000E-03 0.  1.
         11   -1    0    0    0    0 -0.00000000000E+00 -0.00000000000E+00 -0.45593999997E+02  0.45594000000E+02  0.51100000000E-03 0. -1.
    9900012    2    1    2    0    0 -0.22774456573E+02  0.25184867978E+02  0.22365422303E+02  0.50528861273E+02  0.30000004324E+02 0.  0.
         12    1    1    2    0    0  0.22774456573E+02 -0.25184867978E+02 -0.22365422303E+02  0.40659138727E+02  0.00000000000E+00 0. -1.
         11    1    3    3    0    0 -0.22249728941E+01 -0.26782020153E+00  0.18748336998E+01  0.29218544972E+01  0.51100000000E-03 0. -1.
        -11    1    3    3    0    0 -0.12765522471E+02  0.30922037837E+02  0.16250521894E+02  0.37191537344E+02  0.51100000000E-03 0.  1.
         12    1    3    3    0    0 -0.77839612080E+01 -0.54693496577E+01  0.42400667093E+01  0.10415469431E+02  0.00000000000E+00 0. -1.
</event>
<event>
 7    1  0.4836188E-013  0.5052888E+02  0.7816164E-02  0.1300439E+00
        -11   -1    0    0    0    0  0.00000000000E+00  0.00000000000E+00  0.45593999997E+02  0.45594000000E+02  0.51100000000E-03 0.  1.
         11   -1    0    0    0    0 -0.00000000000E+00 -0.00000000000E+00 -0.45593999997E+02  0.45594000000E+02  0.51100000000E-03 0. -1.
    9900012    2    1    2    0    0  0.32292015358E+02  0.20395626107E+02  0.13943023028E+02  0.50528884032E+02  0.30000073503E+02 0.  0.
         12    1    1    2    0    0 -0.32292015358E+02 -0.20395626107E+02 -0.13943023028E+02  0.40659115968E+02  0.00000000000E+00 0. -1.
         11    1    3    3    0    0 -0.32822102865E+01  0.31469456205E+01 -0.14263256208E+01  0.47655614717E+01  0.51100000000E-03 0. -1.
        -11    1    3    3    0    0  0.55202724622E+01  0.79936493796E+01  0.98525735049E+01  0.13836366698E+02  0.51100000000E-03 0.  1.
        -12    1    3    3    0    0  0.30053953182E+02  0.92550311071E+01  0.55167751439E+01  0.31926955862E+02  0.00000000000E+00 0.  1.
</event>
<event>
 7    1  0.4836188E-013  0.5052886E+02  0.7816164E-02  0.1300439E+00
        -11   -1    0    0    0    0  0.00000000000E+00  0.00000000000E+00  0.45593999997E+02  0.45594000000E+02  0.51100000000E-03 0.  1.
         11   -1    0    0    0    0 -0.00000000000E+00 -0.00000000000E+00 -0.45593999997E+02  0.45594000000E+02  0.51100000000E-03 0. -1.
    9900012    2    1    2    0    0 -0.10150982103E+02  0.14627124491E+02  0.36553667222E+02  0.50528858397E+02  0.29999995583E+02 0.  0.
         12    1    1    2    0    0  0.10150982103E+02 -0.14627124491E+02 -0.36553667222E+02  0.40659141603E+02  0.00000000000E+00 0. -1.
         11    1    3    3    0    0 -0.92270836904E+01  0.10109219442E+02  0.16593387706E+02  0.21509902533E+02  0.51100000000E-03 0. -1.
        -11    1    3    3    0    0 -0.34204924445E+01  0.19812970322E+01  0.23599723993E+02  0.23928482595E+02  0.51100000000E-03 0.  1.
        -12    1    3    3    0    0  0.24965940321E+01  0.25366080169E+01 -0.36394444775E+01  0.50904732685E+01  0.00000000000E+00 0.  1.
</event>
<event>
 7    1  0.4836188E-013  0.5052886E+02  0.7816164E-02  0.1300439E+00
        -11   -1    0    0    0    0  0.00000000000E+00  0.00000000000E+00  0.45593999997E+02  0.45594000000E+02  0.51100000000E-03 0.  1.
         11   -1    0    0    0    0 -0.00000000000E+00 -0.00000000000E+00 -0.45593999997E+02  0.45594000000E+02  0.51100000000E-03 0. -1.
    9900012    2    1    2    0    0 -0.36735720517E+02 -0.14029027554E+02 -0.10336293906E+02  0.50528858989E+02  0.29999997382E+02 0.  0.
         12    1    1    2    0    0  0.36735720517E+02  0.14029027554E+02  0.10336293906E+02  0.40659141011E+02  0.00000000000E+00 0. -1.
         11    1    3    3    0    0 -0.41607374985E+01 -0.49600110247E+01  0.22102810689E+01  0.68409640082E+01  0.51100000000E-03 0. -1.
        -11    1    3    3    0    0 -0.25763985355E+02 -0.16817132537E+02 -0.56567505929E+01  0.31282546503E+02  0.51100000000E-03 0.  1.
        -12    1    3    3    0    0 -0.68109976634E+01  0.77481160076E+01 -0.68898243821E+01  0.12405348478E+02  0.00000000000E+00 0.  1.
</event>
<event>
 7    1  0.4836188E-013  0.5052888E+02  0.7816164E-02  0.1300439E+00
        -11   -1    0    0    0    0  0.00000000000E+00  0.00000000000E+00  0.45593999997E+02  0.45594000000E+02  0.51100000000E-03 0.  1.
         11   -1    0    0    0    0 -0.00000000000E+00 -0.00000000000E+00 -0.45593999997E+02  0.45594000000E+02  0.51100000000E-03 0. -1.
    9900012    2    1    2    0    0  0.17353885251E+01  0.27154437261E+02  0.30212402693E+02  0.50528876635E+02  0.30000051020E+02 0.  0.
         12    1    1    2    0    0 -0.17353885251E+01 -0.27154437261E+02 -0.30212402693E+02  0.40659123365E+02  0.00000000000E+00 0. -1.
         11    1    3    3    0    0  0.33799523129E+01  0.37941430465E+01  0.11421085110E+02  0.12500431371E+02  0.51100000000E-03 0. -1.
        -11    1    3    3    0    0  0.90328519858E+01  0.98114382729E+01  0.11996328953E+01  0.13390140228E+02  0.51100000000E-03 0.  1.
         12    1    3    3    0    0 -0.10677415774E+02  0.13548855942E+02  0.17591684688E+02  0.24638305037E+02  0.00000000000E+00 0. -1.
</event>
<event>
 7    1  0.4836188E-013  0.5052885E+02  0.7816164E-02  0.1300439E+00
        -11   -1    0    0    0    0  0.00000000000E+00  0.00000000000E+00  0.45593999997E+02  0.45594000000E+02  0.51100000000E-03 0. -1.
         11   -1    0    0    0    0 -0.00000000000E+00 -0.00000000000E+00 -0.45593999997E+02  0.45594000000E+02  0.51100000000E-03 0.  1.
    9900012    2    1    2    0    0  0.27040481077E+02 -0.16298181929E+02 -0.25619293896E+02  0.50528848868E+02  0.29999966619E+02 0.  0.
         12    1    1    2    0    0 -0.27040481077E+02  0.16298181929E+02  0.25619293896E+02  0.40659151132E+02  0.00000000000E+00 0. -1.
         11    1    3    3    0    0 -0.27780439591E+01 -0.50464262442E+01 -0.53145119662E+01  0.78376006391E+01  0.51100000000E-03 0. -1.
        -11    1    3    3    0    0 -0.58225500681E+00 -0.67937633904E+01 -0.40477925836E+01  0.79296195973E+01  0.51100000000E-03 0.  1.
         12    1    3    3    0    0  0.30400780043E+02 -0.44579922943E+01 -0.16256989346E+02  0.34761628631E+02  0.00000000000E+00 0. -1.
</event>
<event>
 7    1  0.4836188E-013  0.5052885E+02  0.7816164E-02  0.1300439E+00
        -11   -1    0    0    0    0  0.00000000000E+00  0.00000000000E+00  0.45593999997E+02  0.45594000000E+02  0.51100000000E-03 0. -1.
         11   -1    0    0    0    0 -0.00000000000E+00 -0.00000000000E+00 -0.45593999997E+02  0.45594000000E+02  0.51100000000E-03 0.  1.
    9900012    2    1    2    0    0 -0.33213667649E+02  0.13420125681E+02 -0.19233268859E+02  0.50528854375E+02  0.29999983358E+02 0.  0.
         12    1    1    2    0    0  0.33213667649E+02 -0.13420125681E+02  0.19233268859E+02  0.40659145625E+02  0.00000000000E+00 0. -1.
         11    1    3    3    0    0 -0.13599853367E+02 -0.51754762843E+00  0.24584327474E+00  0.13611917804E+02  0.51100000000E-03 0. -1.
        -11    1    3    3    0    0 -0.22663939382E+02  0.11528475577E+02 -0.11228025497E+02  0.27796194961E+02  0.51100000000E-03 0.  1.
        -12    1    3    3    0    0  0.30501250998E+01  0.24091977323E+01 -0.82510866359E+01  0.91207416097E+01  0.00000000000E+00 0.  1.
</event>
<event>
 7    1  0.4836188E-013  0.5052886E+02  0.7816164E-02  0.1300439E+00
        -11   -1    0    0    0    0  0.00000000000E+00  0.00000000000E+00  0.45593999997E+02  0.45594000000E+02  0.51100000000E-03 0.  1.
         11   -1    0    0    0    0 -0.00000000000E+00 -0.00000000000E+00 -0.45593999997E+02  0.45594000000E+02  0.51100000000E-03 0. -1.
    9900012    2    1    2    0    0  0.51175778662E+00  0.39880857179E+02 -0.79007216099E+01  0.50528855059E+02  0.29999985438E+02 0.  0.
         12    1    1    2    0    0 -0.51175778662E+00 -0.39880857179E+02  0.79007216099E+01  0.40659144941E+02  0.00000000000E+00 0. -1.
         11    1    3    3    0    0 -0.44113344863E+01  0.12948105436E+02  0.81193728893E+00  0.13703012397E+02  0.51100000000E-03 0. -1.
        -11    1    3    3    0    0  0.31259314062E+00  0.15790257191E+01  0.66381906687E+01  0.68305645674E+01  0.51100000000E-03 0.  1.
        -12    1    3    3    0    0  0.46104991323E+01  0.25353726024E+02 -0.15350849568E+02  0.29995278095E+02  0.00000000000E+00 0.  1.
</event>
<event>
 7    1  0.4836188E-013  0.5052886E+02  0.7816164E-02  0.1300439E+00
        -11   -1    0    0    0    0  0.00000000000E+00  0.00000000000E+00  0.45593999997E+02  0.45594000000E+02  0.51100000000E-03 0. -1.
         11   -1    0    0    0    0 -0.00000000000E+00 -0.00000000000E+00 -0.45593999997E+02  0.45594000000E+02  0.51100000000E-03 0.  1.
    9900012    2    1    2    0    0  0.31156789350E+02 -0.95031226993E+01 -0.24333331626E+02  0.50528857219E+02  0.29999992004E+02 0.  0.
         12    1    1    2    0    0 -0.31156789350E+02  0.95031226993E+01  0.24333331626E+02  0.40659142781E+02  0.00000000000E+00 0. -1.
         11    1    3    3    0    0 -0.26828341004E+01 -0.28232395019E+01 -0.31466639140E+01  0.50069725527E+01  0.51100000000E-03 0.  1.
        -11    1    3    3    0    0  0.35509434251E+02 -0.52603094449E+01 -0.14904126650E+02  0.38868030150E+02  0.51100000000E-03 0. -1.
         12    1    3    3    0    0 -0.16698107997E+01 -0.14195737525E+01 -0.62825410612E+01  0.66538545169E+01  0.00000000000E+00 0. -1.
</event>
<event>
 7    1  0.4836188E-013  0.5052885E+02  0.7816164E-02  0.1300439E+00
        -11   -1    0    0    0    0  0.00000000000E+00  0.00000000000E+00  0.45593999997E+02  0.45594000000E+02  0.51100000000E-03 0.  1.
         11   -1    0    0    0    0 -0.00000000000E+00 -0.00000000000E+00 -0.45593999997E+02  0.45594000000E+02  0.51100000000E-03 0. -1.
    9900012    2    1    2    0    0 -0.20767661568E+01  0.13968731000E+02  0.38127781533E+02  0.50528854312E+02  0.29999983167E+02 0.  0.
         12    1    1    2    0    0  0.20767661568E+01 -0.13968731000E+02 -0.38127781533E+02  0.40659145688E+02  0.00000000000E+00 0. -1.
         11    1    3    3    0    0  0.16454105076E+01 -0.22368373251E+01 -0.14376537526E+01  0.31269258915E+01  0.51100000000E-03 0. -1.
        -11    1    3    3    0    0 -0.86700935535E+01  0.64337624633E+00  0.20694007156E+02  0.22446077334E+02  0.51100000000E-03 0.  1.
        -12    1    3    3    0    0  0.49479168891E+01  0.15562192078E+02  0.18871428130E+02  0.24955851087E+02  0.00000000000E+00 0.  1.
</event>
<event>
 7    1  0.4836188E-013  0.5052885E+02  0.7816164E-02  0.1300439E+00
        -11   -1    0    0    0    0  0.00000000000E+00  0.00000000000E+00  0.45593999997E+02  0.45594000000E+02  0.51100000000E-03 0.  1.
         11   -1    0    0    0    0 -0.00000000000E+00 -0.00000000000E+00 -0.45593999997E+02  0.45594000000E+02  0.51100000000E-03 0. -1.
    9900012    2    1    2    0    0  0.34968014219E+01  0.10724679764E+02  0.39063025664E+02  0.50528851580E+02  0.29999974864E+02 0.  0.
         12    1    1    2    0    0 -0.34968014219E+01 -0.10724679764E+02 -0.39063025664E+02  0.40659148420E+02  0.00000000000E+00 0. -1.
         11    1    3    3    0    0  0.38577279068E+01 -0.35891928516E+00 -0.30960587617E+01  0.49594826115E+01  0.51100000000E-03 0. -1.
        -11    1    3    3    0    0  0.62308631099E+01  0.37681176837E+01  0.14851151891E+02  0.16540226079E+02  0.51100000000E-03 0.  1.
         12    1    3    3    0    0 -0.65917895948E+01  0.73154813650E+01  0.27307932534E+02  0.29029142890E+02  0.00000000000E+00 0. -1.
</event>
<event>
 7    1  0.4836188E-013  0.5052894E+02  0.7816164E-02  0.1300439E+00
        -11   -1    0    0    0    0  0.00000000000E+00  0.00000000000E+00  0.45593999997E+02  0.45594000000E+02  0.51100000000E-03 0.  1.
         11   -1    0    0    0    0 -0.00000000000E+00 -0.00000000000E+00 -0.45593999997E+02  0.45594000000E+02  0.51100000000E-03 0. -1.
    9900012    2    1    2    0    0 -0.16368413979E+02 -0.35849036984E+02  0.10004054423E+02  0.50528935405E+02  0.30000229655E+02 0.  0.
         12    1    1    2    0    0  0.16368413979E+02  0.35849036984E+02 -0.10004054423E+02  0.40659064595E+02  0.00000000000E+00 0. -1.
         11    1    3    3    0    0 -0.12757556006E+02 -0.25840535588E+02  0.44804082208E+01  0.29164405922E+02  0.51100000000E-03 0. -1.
        -11    1    3    3    0    0  0.49941242233E+01 -0.10891158276E+02  0.34701002758E+01  0.12473980982E+02  0.51100000000E-03 0.  1.
         12    1    3    3    0    0 -0.86049821964E+01  0.88265688006E+00  0.20535459259E+01  0.88905485004E+01  0.00000000000E+00 0. -1.
</event>
<event>
 7    1  0.4836188E-013  0.5052886E+02  0.7816164E-02  0.1300439E+00
        -11   -1    0    0    0    0  0.00000000000E+00  0.00000000000E+00  0.45593999997E+02  0.45594000000E+02  0.51100000000E-03 0.  1.
         11   -1    0    0    0    0 -0.00000000000E+00 -0.00000000000E+00 -0.45593999997E+02  0.45594000000E+02  0.51100000000E-03 0. -1.
    9900012    2    1    2    0    0  0.26593127342E+02  0.21030163465E+02  0.22443340516E+02  0.50528859199E+02  0.29999998020E+02 0.  0.
         12    1    1    2    0    0 -0.26593127342E+02 -0.21030163465E+02 -0.22443340516E+02  0.40659140801E+02  0.00000000000E+00 0. -1.
         11    1    3    3    0    0  0.11125082572E+01 -0.49070484096E+01  0.63172892125E+01  0.80761960088E+01  0.51100000000E-03 0. -1.
        -11    1    3    3    0    0  0.14098686863E+02  0.96231951892E+01  0.14669729277E+02  0.22507328012E+02  0.51100000000E-03 0.  1.
         12    1    3    3    0    0  0.11381932222E+02  0.16314016685E+02  0.14563220264E+01  0.19945335178E+02  0.00000000000E+00 0. -1.
</event>
<event>
 7    1  0.4836188E-013  0.5052887E+02  0.7816164E-02  0.1300439E+00
        -11   -1    0    0    0    0  0.00000000000E+00  0.00000000000E+00  0.45593999997E+02  0.45594000000E+02  0.51100000000E-03 0. -1.
         11   -1    0    0    0    0 -0.00000000000E+00 -0.00000000000E+00 -0.45593999997E+02  0.45594000000E+02  0.51100000000E-03 0.  1.
    9900012    2    1    2    0    0  0.12606390884E+02 -0.43000873938E+01 -0.38415533388E+02  0.50528867591E+02  0.30000023531E+02 0.  0.
         12    1    1    2    0    0 -0.12606390884E+02  0.43000873938E+01  0.38415533388E+02  0.40659132409E+02  0.00000000000E+00 0. -1.
         11    1    3    3    0    0 -0.45327507387E+01  0.26860126121E-01 -0.55575418139E+01  0.71716680068E+01  0.51100000000E-03 0. -1.
        -11    1    3    3    0    0  0.47402452420E+01 -0.14596052536E+00  0.27075880262E+01  0.54609763422E+01  0.51100000000E-03 0.  1.
        -12    1    3    3    0    0  0.12398896381E+02 -0.41809869946E+01 -0.35565579601E+02  0.37896223242E+02  0.00000000000E+00 0.  1.
</event>
<event>
 7    1  0.4836188E-013  0.5052885E+02  0.7816164E-02  0.1300439E+00
        -11   -1    0    0    0    0  0.00000000000E+00  0.00000000000E+00  0.45593999997E+02  0.45594000000E+02  0.51100000000E-03 0.  1.
         11   -1    0    0    0    0 -0.00000000000E+00 -0.00000000000E+00 -0.45593999997E+02  0.45594000000E+02  0.51100000000E-03 0. -1.
    9900012    2    1    2    0    0  0.33203665735E+01 -0.36362263767E+02  0.17886517447E+02  0.50528848916E+02  0.29999966766E+02 0.  0.
         12    1    1    2    0    0 -0.33203665735E+01  0.36362263767E+02 -0.17886517447E+02  0.40659151084E+02  0.00000000000E+00 0. -1.
         11    1    3    3    0    0 -0.66577858221E+00 -0.39905241929E+01 -0.19505824564E+01  0.44913602210E+01  0.51100000000E-03 0. -1.
        -11    1    3    3    0    0  0.81610777258E+00  0.42088661110E+01 -0.34494860160E-01  0.42873973450E+01  0.51100000000E-03 0.  1.
        -12    1    3    3    0    0  0.31700373831E+01 -0.36580605685E+02  0.19871594763E+02  0.41750091350E+02  0.00000000000E+00 0.  1.
</event>
<event>
 7    1  0.4836188E-013  0.5052885E+02  0.7816164E-02  0.1300439E+00
        -11   -1    0    0    0    0  0.00000000000E+00  0.00000000000E+00  0.45593999997E+02  0.45594000000E+02  0.51100000000E-03 0.  1.
         11   -1    0    0    0    0 -0.00000000000E+00 -0.00000000000E+00 -0.45593999997E+02  0.45594000000E+02  0.51100000000E-03 0. -1.
    9900012    2    1    2    0    0 -0.22013825139E+02  0.26698633245E+02  0.21348089045E+02  0.50528850719E+02  0.29999972245E+02 0.  0.
         12    1    1    2    0    0  0.22013825139E+02 -0.26698633245E+02 -0.21348089045E+02  0.40659149281E+02  0.00000000000E+00 0. -1.
         11    1    3    3    0    0  0.11337101479E+01 -0.24113089778E+01 -0.22676154115E+01  0.34988268893E+01  0.51100000000E-03 0. -1.
        -11    1    3    3    0    0 -0.16145685347E+02  0.14420737378E+02  0.21688564831E+02  0.30643672537E+02  0.51100000000E-03 0.  1.
        -12    1    3    3    0    0 -0.70018499403E+01  0.14689204844E+02  0.19271396247E+01  0.16386351292E+02  0.00000000000E+00 0.  1.
</event>
<event>
 7    1  0.4836188E-013  0.5052887E+02  0.7816164E-02  0.1300439E+00
        -11   -1    0    0    0    0  0.00000000000E+00  0.00000000000E+00  0.45593999997E+02  0.45594000000E+02  0.51100000000E-03 0. -1.
         11   -1    0    0    0    0 -0.00000000000E+00 -0.00000000000E+00 -0.45593999997E+02  0.45594000000E+02  0.51100000000E-03 0.  1.
    9900012    2    1    2    0    0  0.67764987379E+01 -0.34658574277E+02 -0.20150115113E+02  0.50528870089E+02  0.30000031121E+02 0.  0.
         12    1    1    2    0    0 -0.67764987379E+01  0.34658574277E+02  0.20150115113E+02  0.40659129911E+02  0.00000000000E+00 0. -1.
         11    1    3    3    0    0  0.22931318198E+01 -0.15824451134E+02 -0.61030533993E+01  0.17114875644E+02  0.51100000000E-03 0. -1.
        -11    1    3    3    0    0  0.48383542232E+01 -0.86758931601E+01  0.55199329773E+01  0.11364438132E+02  0.51100000000E-03 0.  1.
         12    1    3    3    0    0 -0.35498730508E+00 -0.10158229983E+02 -0.19566994691E+02  0.22049556313E+02  0.00000000000E+00 0. -1.
</event>
<event>
 7    1  0.4836188E-013  0.5052885E+02  0.7816164E-02  0.1300439E+00
        -11   -1    0    0    0    0  0.00000000000E+00  0.00000000000E+00  0.45593999997E+02  0.45594000000E+02  0.51100000000E-03 0.  1.
         11   -1    0    0    0    0 -0.00000000000E+00 -0.00000000000E+00 -0.45593999997E+02  0.45594000000E+02  0.51100000000E-03 0. -1.
    9900012    2    1    2    0    0 -0.29770037612E+02  0.24888975251E+02  0.12142904651E+02  0.50528851438E+02  0.29999974430E+02 0.  0.
         12    1    1    2    0    0  0.29770037612E+02 -0.24888975251E+02 -0.12142904651E+02  0.40659148562E+02  0.00000000000E+00 0. -1.
         11    1    3    3    0    0 -0.56405825701E+01  0.30343405144E+01 -0.63226545174E+01  0.89999641385E+01  0.51100000000E-03 0. -1.
        -11    1    3    3    0    0 -0.17671147899E+02  0.19447649929E+02  0.55017247260E+01  0.26846778784E+02  0.51100000000E-03 0.  1.
        -12    1    3    3    0    0 -0.64583071427E+01  0.24069848073E+01  0.12963834442E+02  0.14682108515E+02  0.00000000000E+00 0.  1.
</event>
<event>
 7    1  0.4836188E-013  0.5052884E+02  0.7816164E-02  0.1300439E+00
        -11   -1    0    0    0    0  0.00000000000E+00  0.00000000000E+00  0.45593999997E+02  0.45594000000E+02  0.51100000000E-03 0.  1.
         11   -1    0    0    0    0 -0.00000000000E+00 -0.00000000000E+00 -0.45593999997E+02  0.45594000000E+02  0.51100000000E-03 0. -1.
    9900012    2    1    2    0    0 -0.97074088604E+01  0.36918522541E+02  0.13998447663E+02  0.50528835837E+02  0.29999927011E+02 0.  0.
         12    1    1    2    0    0  0.97074088604E+01 -0.36918522541E+02 -0.13998447663E+02  0.40659164163E+02  0.00000000000E+00 0. -1.
         11    1    3    3    0    0 -0.86044779865E+01  0.14893038904E+02  0.12044962781E+01  0.17242113001E+02  0.51100000000E-03 0. -1.
        -11    1    3    3    0    0  0.14207508250E+01  0.21319704715E+02  0.17685990315E+02  0.27737025719E+02  0.51100000000E-03 0.  1.
        -12    1    3    3    0    0 -0.25236816989E+01  0.70577892265E+00 -0.48920389297E+01  0.55496971174E+01  0.00000000000E+00 0.  1.
</event>
<event>
 7    1  0.4836188E-013  0.5052886E+02  0.7816164E-02  0.1300439E+00
        -11   -1    0    0    0    0  0.00000000000E+00  0.00000000000E+00  0.45593999997E+02  0.45594000000E+02  0.51100000000E-03 0.  1.
         11   -1    0    0    0    0 -0.00000000000E+00 -0.00000000000E+00 -0.45593999997E+02  0.45594000000E+02  0.51100000000E-03 0. -1.
    9900012    2    1    2    0    0 -0.36338915769E+02 -0.24653869786E+01  0.18071271784E+02  0.50528858394E+02  0.29999995576E+02 0.  0.
         12    1    1    2    0    0  0.36338915769E+02  0.24653869786E+01 -0.18071271784E+02  0.40659141606E+02  0.00000000000E+00 0. -1.
         11    1    3    3    0    0  0.80504860984E+00  0.15108861971E+01 -0.13371775878E+01  0.21723085709E+01  0.51100000000E-03 0. -1.
        -11    1    3    3    0    0 -0.20279007999E+02  0.92354798614E+01  0.13802552433E+02  0.26211499531E+02  0.51100000000E-03 0.  1.
        -12    1    3    3    0    0 -0.16864956379E+02 -0.13211753037E+02  0.56058969387E+01  0.22145050293E+02  0.00000000000E+00 0.  1.
</event>
<event>
 7    1  0.4836188E-013  0.5052876E+02  0.7816164E-02  0.1300439E+00
        -11   -1    0    0    0    0  0.00000000000E+00  0.00000000000E+00  0.45593999997E+02  0.45594000000E+02  0.51100000000E-03 0.  1.
         11   -1    0    0    0    0 -0.00000000000E+00 -0.00000000000E+00 -0.45593999997E+02  0.45594000000E+02  0.51100000000E-03 0. -1.
    9900012    2    1    2    0    0  0.28037894132E+02 -0.11458814302E+02  0.27124641969E+02  0.50528755854E+02  0.29999683892E+02 0.  0.
         12    1    1    2    0    0 -0.28037894132E+02  0.11458814302E+02 -0.27124641969E+02  0.40659244146E+02  0.00000000000E+00 0. -1.
         11    1    3    3    0    0  0.36597556679E+01 -0.35539339528E+00 -0.34278584474E+01  0.50269602953E+01  0.51100000000E-03 0. -1.
        -11    1    3    3    0    0  0.17908602330E+02 -0.13694500497E+02  0.11694435192E+02  0.25397188742E+02  0.51100000000E-03 0.  1.
        -12    1    3    3    0    0  0.64695361336E+01  0.25910795900E+01  0.18858065225E+02  0.20104606816E+02  0.00000000000E+00 0.  1.
</event>
<event>
 7    1  0.4836188E-013  0.5052886E+02  0.7816164E-02  0.1300439E+00
        -11   -1    0    0    0    0  0.00000000000E+00  0.00000000000E+00  0.45593999997E+02  0.45594000000E+02  0.51100000000E-03 0.  1.
         11   -1    0    0    0    0 -0.00000000000E+00 -0.00000000000E+00 -0.45593999997E+02  0.45594000000E+02  0.51100000000E-03 0. -1.
    9900012    2    1    2    0    0  0.50994773898E+01 -0.40002105660E+02  0.51954488086E+01  0.50528858159E+02  0.29999994861E+02 0.  0.
         12    1    1    2    0    0 -0.50994773898E+01  0.40002105660E+02 -0.51954488086E+01  0.40659141841E+02  0.00000000000E+00 0. -1.
         11    1    3    3    0    0 -0.27768686933E+01 -0.79166813669E+01 -0.58891735255E+01  0.10250229689E+02  0.51100000000E-03 0. -1.
        -11    1    3    3    0    0  0.13019978898E+02 -0.14176813657E+02  0.98056480214E+01  0.21602144092E+02  0.51100000000E-03 0.  1.
         12    1    3    3    0    0 -0.51436328147E+01 -0.17908610636E+02  0.12789743127E+01  0.18676484379E+02  0.00000000000E+00 0. -1.
</event>
<event>
 7    1  0.4836188E-013  0.5052886E+02  0.7816164E-02  0.1300439E+00
        -11   -1    0    0    0    0  0.00000000000E+00  0.00000000000E+00  0.45593999997E+02  0.45594000000E+02  0.51100000000E-03 0. -1.
         11   -1    0    0    0    0 -0.00000000000E+00 -0.00000000000E+00 -0.45593999997E+02  0.45594000000E+02  0.51100000000E-03 0.  1.
    9900012    2    1    2    0    0  0.38826988943E+02 -0.11725398399E+02 -0.28540618121E+01  0.50528859493E+02  0.29999998914E+02 0.  0.
         12    1    1    2    0    0 -0.38826988943E+02  0.11725398399E+02  0.28540618121E+01  0.40659140507E+02  0.00000000000E+00 0. -1.
         11    1    3    3    0    0  0.17982399227E+02 -0.13648714120E+02  0.22851495032E+01  0.22690878952E+02  0.51100000000E-03 0. -1.
        -11    1    3    3    0    0  0.16155407020E+02 -0.61713149695E+01 -0.63122477599E+01  0.18409964054E+02  0.51100000000E-03 0.  1.
         12    1    3    3    0    0  0.46891826954E+01  0.80946306906E+01  0.11730364445E+01  0.94280164864E+01  0.00000000000E+00 0. -1.
</event>
<event>
 7    1  0.4836188E-013  0.5052886E+02  0.7816164E-02  0.1300439E+00
        -11   -1    0    0    0    0  0.00000000000E+00  0.00000000000E+00  0.45593999997E+02  0.45594000000E+02  0.51100000000E-03 0. -1.
         11   -1    0    0    0    0 -0.00000000000E+00 -0.00000000000E+00 -0.45593999997E+02  0.45594000000E+02  0.51100000000E-03 0.  1.
    9900012    2    1    2    0    0 -0.34189687399E+02 -0.92892202611E+01 -0.19948466294E+02  0.50528860253E+02  0.30000001225E+02 0.  0.
         12    1    1    2    0    0  0.34189687399E+02  0.92892202611E+01  0.19948466294E+02  0.40659139747E+02  0.00000000000E+00 0. -1.
         11    1    3    3    0    0 -0.94903741046E+01  0.27561402189E+01 -0.14653172943E+02  0.17674246437E+02  0.51100000000E-03 0. -1.
        -11    1    3    3    0    0 -0.18745761390E+02 -0.34245410156E+01  0.32545549312E+01  0.19331921253E+02  0.51100000000E-03 0.  1.
         12    1    3    3    0    0 -0.59535519042E+01 -0.86208194644E+01 -0.85498482816E+01  0.13522692563E+02  0.00000000000E+00 0. -1.
</event>
<event>
 7    1  0.4836188E-013  0.5052886E+02  0.7816164E-02  0.1300439E+00
        -11   -1    0    0    0    0  0.00000000000E+00  0.00000000000E+00  0.45593999997E+02  0.45594000000E+02  0.51100000000E-03 0. -1.
         11   -1    0    0    0    0 -0.00000000000E+00 -0.00000000000E+00 -0.45593999997E+02  0.45594000000E+02  0.51100000000E-03 0.  1.
    9900012    2    1    2    0    0 -0.37763465822E+02 -0.14739398660E+02 -0.31363298669E+01  0.50528858485E+02  0.29999995851E+02 0.  0.
         12    1    1    2    0    0  0.37763465822E+02  0.14739398660E+02  0.31363298669E+01  0.40659141515E+02  0.00000000000E+00 0. -1.
         11    1    3    3    0    0 -0.66624161887E+01 -0.12695353607E+02 -0.78303537308E+01  0.16336285762E+02  0.51100000000E-03 0. -1.
        -11    1    3    3    0    0 -0.11136882454E+02 -0.20828449059E+01 -0.45280533636E+01  0.12201297522E+02  0.51100000000E-03 0.  1.
         12    1    3    3    0    0 -0.19964167179E+02  0.38799853458E-01  0.92220772275E+01  0.21991275201E+02  0.00000000000E+00 0. -1.
</event>
<event>
 7    1  0.4836188E-013  0.5052883E+02  0.7816164E-02  0.1300439E+00
        -11   -1    0    0    0    0  0.00000000000E+00  0.00000000000E+00  0.45593999997E+02  0.45594000000E+02  0.51100000000E-03 0.  1.
         11   -1    0    0    0    0 -0.00000000000E+00 -0.00000000000E+00 -0.45593999997E+02  0.45594000000E+02  0.51100000000E-03 0. -1.
    9900012    2    1    2    0    0  0.10581702520E+02 -0.35682840630E+02  0.16368574585E+02  0.50528834027E+02  0.29999921510E+02 0.  0.
         12    1    1    2    0    0 -0.10581702520E+02  0.35682840630E+02 -0.16368574585E+02  0.40659165973E+02  0.00000000000E+00 0. -1.
         11    1    3    3    0    0 -0.13865573117E+01 -0.11166653465E+02  0.19732932449E+01  0.11424122604E+02  0.51100000000E-03 0. -1.
        -11    1    3    3    0    0  0.31830149309E+01 -0.49315062378E+01 -0.67698334398E+01  0.89600213665E+01  0.51100000000E-03 0.  1.
        -12    1    3    3    0    0  0.87852449005E+01 -0.19584680928E+02  0.21165114780E+02  0.30144690057E+02  0.00000000000E+00 0.  1.
</event>
<event>
 7    1  0.4836188E-013  0.5052886E+02  0.7816164E-02  0.1300439E+00
        -11   -1    0    0    0    0  0.00000000000E+00  0.00000000000E+00  0.45593999997E+02  0.45594000000E+02  0.51100000000E-03 0.  1.
         11   -1    0    0    0    0 -0.00000000000E+00 -0.00000000000E+00 -0.45593999997E+02  0.45594000000E+02  0.51100000000E-03 0. -1.
    9900012    2    1    2    0    0 -0.30049062079E+02 -0.26809954411E+02  0.56076889968E+01  0.50528856339E+02  0.29999989329E+02 0.  0.
         12    1    1    2    0    0  0.30049062079E+02  0.26809954411E+02 -0.56076889968E+01  0.40659143661E+02  0.00000000000E+00 0. -1.
         11    1    3    3    0    0 -0.58185648729E+01  0.94010140367E+00 -0.80868938656E+00  0.59492408436E+01  0.51100000000E-03 0. -1.
        -11    1    3    3    0    0 -0.10996583411E+02 -0.10237459089E+02  0.14793346031E+02  0.21084911723E+02  0.51100000000E-03 0.  1.
         12    1    3    3    0    0 -0.13233913795E+02 -0.17512596726E+02 -0.83769676473E+01  0.23494703773E+02  0.00000000000E+00 0. -1.
</event>
<event>
 7    1  0.4836188E-013  0.5052886E+02  0.7816164E-02  0.1300439E+00
        -11   -1    0    0    0    0  0.00000000000E+00  0.00000000000E+00  0.45593999997E+02  0.45594000000E+02  0.51100000000E-03 0.  1.
         11   -1    0    0    0    0 -0.00000000000E+00 -0.00000000000E+00 -0.45593999997E+02  0.45594000000E+02  0.51100000000E-03 0. -1.
    9900012    2    1    2    0    0 -0.11840087611E+02 -0.32497898040E+02  0.21374394652E+02  0.50528858366E+02  0.29999995490E+02 0.  0.
         12    1    1    2    0    0  0.11840087611E+02  0.32497898040E+02 -0.21374394652E+02  0.40659141634E+02  0.00000000000E+00 0. -1.
         11    1    3    3    0    0  0.63352344926E+01 -0.65022560922E+01  0.61782699480E+01  0.10981145212E+02  0.51100000000E-03 0. -1.
        -11    1    3    3    0    0 -0.20605635622E+01 -0.18691568247E+02  0.72813817892E+01  0.20165296099E+02  0.51100000000E-03 0.  1.
        -12    1    3    3    0    0 -0.16114758542E+02 -0.73040737000E+01  0.79147429152E+01  0.19382417055E+02  0.00000000000E+00 0.  1.
</event>
<event>
 7    1  0.4836188E-013  0.5052887E+02  0.7816164E-02  0.1300439E+00
        -11   -1    0    0    0    0  0.00000000000E+00  0.00000000000E+00  0.45593999997E+02  0.45594000000E+02  0.51100000000E-03 0.  1.
         11   -1    0    0    0    0 -0.00000000000E+00 -0.00000000000E+00 -0.45593999997E+02  0.45594000000E+02  0.51100000000E-03 0. -1.
    9900012    2    1    2    0    0  0.11486224150E+02 -0.15202608578E+02  0.35918133618E+02  0.50528868487E+02  0.30000026253E+02 0.  0.
         12    1    1    2    0    0 -0.11486224150E+02  0.15202608578E+02 -0.35918133618E+02  0.40659131513E+02  0.00000000000E+00 0. -1.
         11    1    3    3    0    0  0.41132919741E+00 -0.18012733548E+02  0.10949636045E+02  0.21083697288E+02  0.51100000000E-03 0. -1.
        -11    1    3    3    0    0 -0.12103637834E+01 -0.12399342683E+01  0.75643465686E+01  0.77602678272E+01  0.51100000000E-03 0.  1.
         12    1    3    3    0    0  0.12285258736E+02  0.40500592383E+01  0.17404151004E+02  0.21684903371E+02  0.00000000000E+00 0. -1.
</event>
<event>
 7    1  0.4836188E-013  0.5052886E+02  0.7816164E-02  0.1300439E+00
        -11   -1    0    0    0    0  0.00000000000E+00  0.00000000000E+00  0.45593999997E+02  0.45594000000E+02  0.51100000000E-03 0.  1.
         11   -1    0    0    0    0 -0.00000000000E+00 -0.00000000000E+00 -0.45593999997E+02  0.45594000000E+02  0.51100000000E-03 0. -1.
    9900012    2    1    2    0    0 -0.21899829126E+02  0.31458340804E+02  0.13562311253E+02  0.50528855784E+02  0.29999987640E+02 0.  0.
         12    1    1    2    0    0  0.21899829126E+02 -0.31458340804E+02 -0.13562311253E+02  0.40659144216E+02  0.00000000000E+00 0. -1.
         11    1    3    3    0    0 -0.30984626743E+01  0.19029836636E+02  0.46421600929E+01  0.19831409530E+02  0.51100000000E-03 0.  1.
        -11    1    3    3    0    0 -0.63292800144E+01  0.14333862994E+00 -0.52106754099E+01  0.81994798586E+01  0.51100000000E-03 0. -1.
         12    1    3    3    0    0 -0.12472086437E+02  0.12285165538E+02  0.14130826569E+02  0.22497966395E+02  0.00000000000E+00 0. -1.
</event>
<event>
 7    1  0.4836188E-013  0.5052888E+02  0.7816164E-02  0.1300439E+00
        -11   -1    0    0    0    0  0.00000000000E+00  0.00000000000E+00  0.45593999997E+02  0.45594000000E+02  0.51100000000E-03 0.  1.
         11   -1    0    0    0    0 -0.00000000000E+00 -0.00000000000E+00 -0.45593999997E+02  0.45594000000E+02  0.51100000000E-03 0. -1.
    9900012    2    1    2    0    0 -0.17468371405E+02  0.35958176399E+02 -0.74181826189E+01  0.50528881923E+02  0.30000067092E+02 0.  0.
         12    1    1    2    0    0  0.17468371405E+02 -0.35958176399E+02  0.74181826189E+01  0.40659118077E+02  0.00000000000E+00 0. -1.
         11    1    3    3    0    0  0.15022322196E+01  0.78863751672E+01  0.34021801067E+01  0.87193144603E+01  0.51100000000E-03 0. -1.
        -11    1    3    3    0    0 -0.56525767641E+01  0.97763777683E+00  0.51025236951E+01  0.76774441071E+01  0.51100000000E-03 0.  1.
         12    1    3    3    0    0 -0.13318026861E+02  0.27094163455E+02 -0.15922886421E+02  0.34132123355E+02  0.00000000000E+00 0. -1.
</event>
<event>
 7    1  0.4836188E-013  0.5052884E+02  0.7816164E-02  0.1300439E+00
        -11   -1    0    0    0    0  0.00000000000E+00  0.00000000000E+00  0.45593999997E+02  0.45594000000E+02  0.51100000000E-03 0. -1.
         11   -1    0    0    0    0 -0.00000000000E+00 -0.00000000000E+00 -0.45593999997E+02  0.45594000000E+02  0.51100000000E-03 0.  1.
    9900012    2    1    2    0    0  0.67170036264E+01 -0.40081335367E+02 -0.12393153747E+01  0.50528837624E+02  0.29999932442E+02 0.  0.
         12    1    1    2    0    0 -0.67170036264E+01  0.40081335367E+02  0.12393153747E+01  0.40659162376E+02  0.00000000000E+00 0. -1.
         11    1    3    3    0    0 -0.56515247002E+01 -0.21467988096E+02 -0.31744825477E+01  0.22425244347E+02  0.51100000000E-03 0.  1.
        -11    1    3    3    0    0 -0.18361551984E+01  0.50246080522E+00  0.37637664430E+01  0.42178040343E+01  0.51100000000E-03 0. -1.
        -12    1    3    3    0    0  0.14204683525E+02 -0.19115808076E+02 -0.18285992700E+01  0.23885789242E+02  0.00000000000E+00 0.  1.
</event>
<event>
 7    1  0.4836188E-013  0.5052886E+02  0.7816164E-02  0.1300439E+00
        -11   -1    0    0    0    0  0.00000000000E+00  0.00000000000E+00  0.45593999997E+02  0.45594000000E+02  0.51100000000E-03 0.  1.
         11   -1    0    0    0    0 -0.00000000000E+00 -0.00000000000E+00 -0.45593999997E+02  0.45594000000E+02  0.51100000000E-03 0. -1.
    9900012    2    1    2    0    0  0.17306841172E+02  0.27954463888E+02  0.23920432014E+02  0.50528857481E+02  0.29999992800E+02 0.  0.
         12    1    1    2    0    0 -0.17306841172E+02 -0.27954463888E+02 -0.23920432014E+02  0.40659142519E+02  0.00000000000E+00 0. -1.
         11    1    3    3    0    0 -0.14472448043E+01  0.53433439918E+01  0.10722572015E+02  0.12067286084E+02  0.51100000000E-03 0. -1.
        -11    1    3    3    0    0  0.11968042867E+02  0.15059020395E+02  0.18773344871E+02  0.26878367199E+02  0.51100000000E-03 0.  1.
        -12    1    3    3    0    0  0.67860431089E+01  0.75520995011E+01 -0.55754848729E+01  0.11583204199E+02  0.00000000000E+00 0.  1.
</event>
<event>
 7    1  0.4836188E-013  0.5052885E+02  0.7816164E-02  0.1300439E+00
        -11   -1    0    0    0    0  0.00000000000E+00  0.00000000000E+00  0.45593999997E+02  0.45594000000E+02  0.51100000000E-03 0. -1.
         11   -1    0    0    0    0 -0.00000000000E+00 -0.00000000000E+00 -0.45593999997E+02  0.45594000000E+02  0.51100000000E-03 0.  1.
    9900012    2    1    2    0    0 -0.18405924467E+01  0.40175155186E+02 -0.59778977625E+01  0.50528854209E+02  0.29999982854E+02 0.  0.
         12    1    1    2    0    0  0.18405924467E+01 -0.40175155186E+02  0.59778977625E+01  0.40659145791E+02  0.00000000000E+00 0. -1.
         11    1    3    3    0    0 -0.54628641258E+01  0.11266949692E+01 -0.22723898521E+01  0.60229628848E+01  0.51100000000E-03 0. -1.
        -11    1    3    3    0    0 -0.60693959703E+01  0.14978691512E+02  0.53489363621E+01  0.17023803550E+02  0.51100000000E-03 0.  1.
        -12    1    3    3    0    0  0.96916676495E+01  0.24069768705E+02 -0.90544442725E+01  0.27482087774E+02  0.00000000000E+00 0.  1.
</event>
<event>
 7    1  0.4836188E-013  0.5052881E+02  0.7816164E-02  0.1300439E+00
        -11   -1    0    0    0    0  0.00000000000E+00  0.00000000000E+00  0.45593999997E+02  0.45594000000E+02  0.51100000000E-03 0.  1.
         11   -1    0    0    0    0 -0.00000000000E+00 -0.00000000000E+00 -0.45593999997E+02  0.45594000000E+02  0.51100000000E-03 0. -1.
    9900012    2    1    2    0    0  0.17443004705E+02 -0.22136970444E+02  0.29306410541E+02  0.50528811956E+02  0.29999854422E+02 0.  0.
         12    1    1    2    0    0 -0.17443004705E+02  0.22136970444E+02 -0.29306410541E+02  0.40659188044E+02  0.00000000000E+00 0. -1.
         11    1    3    3    0    0  0.23382345476E+01 -0.42681146548E+01 -0.39878562483E+01  0.62918313093E+01  0.51100000000E-03 0. -1.
        -11    1    3    3    0    0 -0.17109215196E+01  0.21184779043E+01  0.15698417636E+01  0.31431838160E+01  0.51100000000E-03 0.  1.
        -12    1    3    3    0    0  0.16815691677E+02 -0.19987333694E+02  0.31724425026E+02  0.41093796831E+02  0.00000000000E+00 0.  1.
</event>
<event>
 7    1  0.4836188E-013  0.5052887E+02  0.7816164E-02  0.1300439E+00
        -11   -1    0    0    0    0  0.00000000000E+00  0.00000000000E+00  0.45593999997E+02  0.45594000000E+02  0.51100000000E-03 0. -1.
         11   -1    0    0    0    0 -0.00000000000E+00 -0.00000000000E+00 -0.45593999997E+02  0.45594000000E+02  0.51100000000E-03 0.  1.
    9900012    2    1    2    0    0  0.21589615704E+02  0.29771498558E+00 -0.34452353755E+02  0.50528870401E+02  0.30000032072E+02 0.  0.
         12    1    1    2    0    0 -0.21589615704E+02 -0.29771498558E+00  0.34452353755E+02  0.40659129599E+02  0.00000000000E+00 0. -1.
         11    1    3    3    0    0 -0.54624898391E+01 -0.22885581651E+01 -0.45210156066E+01  0.74508976703E+01  0.51100000000E-03 0. -1.
        -11    1    3    3    0    0  0.11881569608E+02 -0.57675253287E+01 -0.16654803113E+02  0.21256022952E+02  0.51100000000E-03 0.  1.
         12    1    3    3    0    0  0.15170535935E+02  0.83537984794E+01 -0.13276535035E+02  0.21821949779E+02  0.00000000000E+00 0. -1.
</event>
<event>
 7    1  0.4836188E-013  0.5052887E+02  0.7816164E-02  0.1300439E+00
        -11   -1    0    0    0    0  0.00000000000E+00  0.00000000000E+00  0.45593999997E+02  0.45594000000E+02  0.51100000000E-03 0. -1.
         11   -1    0    0    0    0 -0.00000000000E+00 -0.00000000000E+00 -0.45593999997E+02  0.45594000000E+02  0.51100000000E-03 0.  1.
    9900012    2    1    2    0    0  0.29662186310E+02 -0.48085854105E+01 -0.27389729973E+02  0.50528866975E+02  0.30000021657E+02 0.  0.
         12    1    1    2    0    0 -0.29662186310E+02  0.48085854105E+01  0.27389729973E+02  0.40659133025E+02  0.00000000000E+00 0. -1.
         11    1    3    3    0    0  0.47656675743E+01 -0.47086999718E+01 -0.10522392149E+02  0.12474140437E+02  0.51100000000E-03 0. -1.
        -11    1    3    3    0    0  0.12105034113E+02  0.82180637931E+01 -0.17466554715E+02  0.22784840514E+02  0.51100000000E-03 0.  1.
        -12    1    3    3    0    0  0.12791484623E+02 -0.83179492318E+01  0.59921689123E+00  0.15269886023E+02  0.00000000000E+00 0.  1.
</event>
<event>
 7    1  0.4836188E-013  0.5052886E+02  0.7816164E-02  0.1300439E+00
        -11   -1    0    0    0    0  0.00000000000E+00  0.00000000000E+00  0.45593999997E+02  0.45594000000E+02  0.51100000000E-03 0. -1.
         11   -1    0    0    0    0 -0.00000000000E+00 -0.00000000000E+00 -0.45593999997E+02  0.45594000000E+02  0.51100000000E-03 0.  1.
    9900012    2    1    2    0    0  0.12484975951E+02  0.28015521487E+02 -0.26691222151E+02  0.50528863160E+02  0.30000010061E+02 0.  0.
         12    1    1    2    0    0 -0.12484975951E+02 -0.28015521487E+02  0.26691222151E+02  0.40659136840E+02  0.00000000000E+00 0. -1.
         11    1    3    3    0    0  0.43348969347E+01 -0.21082217033E+01  0.37052663355E+01  0.60798790336E+01  0.51100000000E-03 0. -1.
        -11    1    3    3    0    0 -0.11668147178E+01  0.17692048352E+01 -0.43375568586E+01  0.48276228205E+01  0.51100000000E-03 0.  1.
        -12    1    3    3    0    0  0.93168937336E+01  0.28354538355E+02 -0.26058931628E+02  0.39621361306E+02  0.00000000000E+00 0.  1.
</event>
<event>
 7    1  0.4836188E-013  0.5052886E+02  0.7816164E-02  0.1300439E+00
        -11   -1    0    0    0    0  0.00000000000E+00  0.00000000000E+00  0.45593999997E+02  0.45594000000E+02  0.51100000000E-03 0. -1.
         11   -1    0    0    0    0 -0.00000000000E+00 -0.00000000000E+00 -0.45593999997E+02  0.45594000000E+02  0.51100000000E-03 0.  1.
    9900012    2    1    2    0    0 -0.66292303434E+01  0.36772071164E+01 -0.39946177071E+02  0.50528860687E+02  0.30000002543E+02 0.  0.
         12    1    1    2    0    0  0.66292303434E+01 -0.36772071164E+01  0.39946177071E+02  0.40659139313E+02  0.00000000000E+00 0. -1.
         11    1    3    3    0    0 -0.10852327088E+02  0.46087747555E+01 -0.69601773705E+01  0.13691525746E+02  0.51100000000E-03 0. -1.
        -11    1    3    3    0    0  0.41641207572E+01  0.64963020651E+01 -0.96974181592E+01  0.12392810876E+02  0.51100000000E-03 0.  1.
        -12    1    3    3    0    0  0.58975987569E-01 -0.74278697042E+01 -0.23288581541E+02  0.24444524064E+02  0.00000000000E+00 0.  1.
</event>
<event>
 7    1  0.4836188E-013  0.5052885E+02  0.7816164E-02  0.1300439E+00
        -11   -1    0    0    0    0  0.00000000000E+00  0.00000000000E+00  0.45593999997E+02  0.45594000000E+02  0.51100000000E-03 0. -1.
         11   -1    0    0    0    0 -0.00000000000E+00 -0.00000000000E+00 -0.45593999997E+02  0.45594000000E+02  0.51100000000E-03 0.  1.
    9900012    2    1    2    0    0 -0.68668612495E+00  0.80068351825E+01 -0.39857059155E+02  0.50528854510E+02  0.29999983770E+02 0.  0.
         12    1    1    2    0    0  0.68668612495E+00 -0.80068351825E+01  0.39857059155E+02  0.40659145490E+02  0.00000000000E+00 0. -1.
         11    1    3    3    0    0  0.43676577895E+01 -0.57170718519E+01 -0.29233807560E+01  0.77657903933E+01  0.51100000000E-03 0. -1.
        -11    1    3    3    0    0  0.29289147459E+01 -0.29555437982E+00 -0.59394370328E+00  0.30031089498E+01  0.51100000000E-03 0.  1.
        -12    1    3    3    0    0 -0.79832586604E+01  0.14019461414E+02 -0.36339734695E+02  0.39759955167E+02  0.00000000000E+00 0.  1.
</event>
<event>
 7    1  0.4836188E-013  0.5052886E+02  0.7816164E-02  0.1300439E+00
        -11   -1    0    0    0    0  0.00000000000E+00  0.00000000000E+00  0.45593999997E+02  0.45594000000E+02  0.51100000000E-03 0.  1.
         11   -1    0    0    0    0 -0.00000000000E+00 -0.00000000000E+00 -0.45593999997E+02  0.45594000000E+02  0.51100000000E-03 0. -1.
    9900012    2    1    2    0    0 -0.18189963637E+02 -0.11251537648E+02  0.34578810204E+02  0.50528855989E+02  0.29999988265E+02 0.  0.
         12    1    1    2    0    0  0.18189963637E+02  0.11251537648E+02 -0.34578810204E+02  0.40659144011E+02  0.00000000000E+00 0. -1.
         11    1    3    3    0    0  0.28036379051E+01 -0.26801688898E+01  0.11543960022E+02  0.12178123994E+02  0.51100000000E-03 0.  1.
        -11    1    3    3    0    0 -0.20293977136E+02 -0.11490712972E+02  0.10705287394E+02  0.25660965902E+02  0.51100000000E-03 0. -1.
         12    1    3    3    0    0 -0.69962440614E+00  0.29193442133E+01  0.12329562788E+02  0.12689766093E+02  0.00000000000E+00 0. -1.
</event>
<event>
 7    1  0.4836188E-013  0.5052887E+02  0.7816164E-02  0.1300439E+00
        -11   -1    0    0    0    0  0.00000000000E+00  0.00000000000E+00  0.45593999997E+02  0.45594000000E+02  0.51100000000E-03 0.  1.
         11   -1    0    0    0    0 -0.00000000000E+00 -0.00000000000E+00 -0.45593999997E+02  0.45594000000E+02  0.51100000000E-03 0. -1.
    9900012    2    1    2    0    0 -0.39931363401E+01 -0.40348360249E+02  0.30380753803E+01  0.50528865545E+02  0.30000017311E+02 0.  0.
         12    1    1    2    0    0  0.39931363401E+01  0.40348360249E+02 -0.30380753803E+01  0.40659134455E+02  0.00000000000E+00 0. -1.
         11    1    3    3    0    0  0.91100920282E+01 -0.85976941772E+01 -0.19583845681E+01  0.12678698368E+02  0.51100000000E-03 0. -1.
        -11    1    3    3    0    0 -0.25133206970E+01 -0.91830633186E+01 -0.52793831048E+01  0.10886565991E+02  0.51100000000E-03 0.  1.
        -12    1    3    3    0    0 -0.10589907671E+02 -0.22567602753E+02  0.10275843053E+02  0.26963601187E+02  0.00000000000E+00 0.  1.
</event>
<event>
 7    1  0.4836188E-013  0.5052886E+02  0.7816164E-02  0.1300439E+00
        -11   -1    0    0    0    0  0.00000000000E+00  0.00000000000E+00  0.45593999997E+02  0.45594000000E+02  0.51100000000E-03 0.  1.
         11   -1    0    0    0    0 -0.00000000000E+00 -0.00000000000E+00 -0.45593999997E+02  0.45594000000E+02  0.51100000000E-03 0. -1.
    9900012    2    1    2    0    0  0.13275879615E+02 -0.20555427597E+02  0.32471384415E+02  0.50528863400E+02  0.30000010789E+02 0.  0.
         12    1    1    2    0    0 -0.13275879615E+02  0.20555427597E+02 -0.32471384415E+02  0.40659136600E+02  0.00000000000E+00 0. -1.
         11    1    3    3    0    0 -0.28942371331E+01 -0.12316447101E+02  0.20112280108E+02  0.23760793110E+02  0.51100000000E-03 0. -1.
        -11    1    3    3    0    0  0.72716026996E+01 -0.26760059285E+01  0.14139943169E+02  0.16123746669E+02  0.51100000000E-03 0.  1.
         12    1    3    3    0    0  0.88985140482E+01 -0.55629745674E+01 -0.17808388619E+01  0.10644323621E+02  0.00000000000E+00 0. -1.
</event>
<event>
 7    1  0.4836188E-013  0.5052886E+02  0.7816164E-02  0.1300439E+00
        -11   -1    0    0    0    0  0.00000000000E+00  0.00000000000E+00  0.45593999997E+02  0.45594000000E+02  0.51100000000E-03 0. -1.
         11   -1    0    0    0    0 -0.00000000000E+00 -0.00000000000E+00 -0.45593999997E+02  0.45594000000E+02  0.51100000000E-03 0.  1.
    9900012    2    1    2    0    0 -0.70103357241E+01  0.32459686850E+02 -0.23460382164E+02  0.50528860699E+02  0.30000002582E+02 0.  0.
         12    1    1    2    0    0  0.70103357241E+01 -0.32459686850E+02  0.23460382164E+02  0.40659139301E+02  0.00000000000E+00 0. -1.
         11    1    3    3    0    0 -0.10780096773E+02  0.15772059084E+02 -0.85850070220E+01  0.20944466572E+02  0.51100000000E-03 0.  1.
        -11    1    3    3    0    0 -0.17420985155E+01 -0.36960761276E+01 -0.68411177833E+00  0.41429331596E+01  0.51100000000E-03 0. -1.
         12    1    3    3    0    0  0.55118595643E+01  0.20383703894E+02 -0.14191263364E+02  0.25441460968E+02  0.00000000000E+00 0. -1.
</event>
<event>
 7    1  0.4836188E-013  0.5052886E+02  0.7816164E-02  0.1300439E+00
        -11   -1    0    0    0    0  0.00000000000E+00  0.00000000000E+00  0.45593999997E+02  0.45594000000E+02  0.51100000000E-03 0. -1.
         11   -1    0    0    0    0 -0.00000000000E+00 -0.00000000000E+00 -0.45593999997E+02  0.45594000000E+02  0.51100000000E-03 0.  1.
    9900012    2    1    2    0    0 -0.16528847694E+02 -0.33313353666E+02 -0.16437264847E+02  0.50528855712E+02  0.29999987423E+02 0.  0.
         12    1    1    2    0    0  0.16528847694E+02  0.33313353666E+02  0.16437264847E+02  0.40659144288E+02  0.00000000000E+00 0. -1.
         11    1    3    3    0    0 -0.10675889967E+02 -0.12735473866E+02 -0.17632744894E+02  0.24229746469E+02  0.51100000000E-03 0. -1.
        -11    1    3    3    0    0 -0.42091347106E+01 -0.18231676427E+02 -0.50903098142E+01  0.19391289142E+02  0.51100000000E-03 0.  1.
         12    1    3    3    0    0 -0.16438230168E+01 -0.23462033726E+01  0.62857898609E+01  0.69078201013E+01  0.00000000000E+00 0. -1.
</event>
<event>
 7    1  0.4836188E-013  0.5052886E+02  0.7816164E-02  0.1300439E+00
        -11   -1    0    0    0    0  0.00000000000E+00  0.00000000000E+00  0.45593999997E+02  0.45594000000E+02  0.51100000000E-03 0.  1.
         11   -1    0    0    0    0 -0.00000000000E+00 -0.00000000000E+00 -0.45593999997E+02  0.45594000000E+02  0.51100000000E-03 0. -1.
    9900012    2    1    2    0    0 -0.47077482320E+01  0.15654619210E+02  0.37228154850E+02  0.50528861919E+02  0.30000006288E+02 0.  0.
         12    1    1    2    0    0  0.47077482320E+01 -0.15654619210E+02 -0.37228154850E+02  0.40659138081E+02  0.00000000000E+00 0. -1.
         11    1    3    3    0    0  0.33470704182E+01 -0.28489215418E+01  0.10337089860E+02  0.11232749502E+02  0.51100000000E-03 0.  1.
        -11    1    3    3    0    0  0.23091661977E+01 -0.25161140845E+01  0.95498070870E+01  0.10142085302E+02  0.51100000000E-03 0. -1.
        -12    1    3    3    0    0 -0.10363984848E+02  0.21019654836E+02  0.17341257902E+02  0.29154027114E+02  0.00000000000E+00 0.  1.
</event>
<event>
 7    1  0.4836188E-013  0.5052887E+02  0.7816164E-02  0.1300439E+00
        -11   -1    0    0    0    0  0.00000000000E+00  0.00000000000E+00  0.45593999997E+02  0.45594000000E+02  0.51100000000E-03 0. -1.
         11   -1    0    0    0    0 -0.00000000000E+00 -0.00000000000E+00 -0.45593999997E+02  0.45594000000E+02  0.51100000000E-03 0.  1.
    9900012    2    1    2    0    0 -0.22607621929E+02 -0.30706362154E+02 -0.14113095925E+02  0.50528871595E+02  0.30000035700E+02 0.  0.
         12    1    1    2    0    0  0.22607621929E+02  0.30706362154E+02  0.14113095925E+02  0.40659128405E+02  0.00000000000E+00 0. -1.
         11    1    3    3    0    0  0.71952632363E+00  0.98024373686E+00 -0.72932328450E+01  0.73939057004E+01  0.51100000000E-03 0. -1.
        -11    1    3    3    0    0 -0.10841789789E+02 -0.29128077631E+01 -0.17224180871E+01  0.11357622076E+02  0.51100000000E-03 0.  1.
        -12    1    3    3    0    0 -0.12485358464E+02 -0.28773798128E+02 -0.50974449931E+01  0.31777343818E+02  0.00000000000E+00 0.  1.
</event>
<event>
 7    1  0.4836188E-013  0.5052887E+02  0.7816164E-02  0.1300439E+00
        -11   -1    0    0    0    0  0.00000000000E+00  0.00000000000E+00  0.45593999997E+02  0.45594000000E+02  0.51100000000E-03 0.  1.
         11   -1    0    0    0    0 -0.00000000000E+00 -0.00000000000E+00 -0.45593999997E+02  0.45594000000E+02  0.51100000000E-03 0. -1.
    9900012    2    1    2    0    0  0.92136827876E+01  0.39295856598E+02  0.49100077288E+01  0.50528874675E+02  0.30000045064E+02 0.  0.
         12    1    1    2    0    0 -0.92136827876E+01 -0.39295856598E+02 -0.49100077288E+01  0.40659125325E+02  0.00000000000E+00 0. -1.
         11    1    3    3    0    0  0.10494194783E+02  0.16508564656E+02 -0.40796303260E+01  0.19982597804E+02  0.51100000000E-03 0.  1.
        -11    1    3    3    0    0 -0.84418442904E+00  0.42235918007E+00 -0.43837795308E+01  0.44842566678E+01  0.51100000000E-03 0. -1.
        -12    1    3    3    0    0 -0.43632756603E+00  0.22364932761E+02  0.13373417586E+02  0.26062020203E+02  0.00000000000E+00 0.  1.
</event>
<event>
 7    1  0.4836188E-013  0.5052886E+02  0.7816164E-02  0.1300439E+00
        -11   -1    0    0    0    0  0.00000000000E+00  0.00000000000E+00  0.45593999997E+02  0.45594000000E+02  0.51100000000E-03 0.  1.
         11   -1    0    0    0    0 -0.00000000000E+00 -0.00000000000E+00 -0.45593999997E+02  0.45594000000E+02  0.51100000000E-03 0. -1.
    9900012    2    1    2    0    0  0.74267315367E+01 -0.25524120208E+02  0.30765698861E+02  0.50528864739E+02  0.30000014862E+02 0.  0.
         12    1    1    2    0    0 -0.74267315367E+01  0.25524120208E+02 -0.30765698861E+02  0.40659135261E+02  0.00000000000E+00 0. -1.
         11    1    3    3    0    0 -0.79133887229E+01 -0.87312453245E+01  0.40120647355E+01  0.12448013082E+02  0.51100000000E-03 0. -1.
        -11    1    3    3    0    0 -0.60390865540E+00 -0.14948538479E+01 -0.15073460219E+01  0.22071216509E+01  0.51100000000E-03 0.  1.
        -12    1    3    3    0    0  0.15944028915E+02 -0.15298021036E+02  0.28260980147E+02  0.35873730006E+02  0.00000000000E+00 0.  1.
</event>
<event>
 7    1  0.4836188E-013  0.5052886E+02  0.7816164E-02  0.1300439E+00
        -11   -1    0    0    0    0  0.00000000000E+00  0.00000000000E+00  0.45593999997E+02  0.45594000000E+02  0.51100000000E-03 0.  1.
         11   -1    0    0    0    0 -0.00000000000E+00 -0.00000000000E+00 -0.45593999997E+02  0.45594000000E+02  0.51100000000E-03 0. -1.
    9900012    2    1    2    0    0 -0.17908816479E+02 -0.26314760523E+02  0.25297693344E+02  0.50528860590E+02  0.30000002249E+02 0.  0.
         12    1    1    2    0    0  0.17908816479E+02  0.26314760523E+02 -0.25297693344E+02  0.40659139410E+02  0.00000000000E+00 0. -1.
         11    1    3    3    0    0 -0.11136755786E+02  0.12776126544E+01  0.42382511312E+01  0.11984256191E+02  0.51100000000E-03 0. -1.
        -11    1    3    3    0    0 -0.83381864270E+01 -0.12069877333E+02  0.16938874532E+02  0.22408319044E+02  0.51100000000E-03 0.  1.
        -12    1    3    3    0    0  0.15661257339E+01 -0.15522495844E+02  0.41205676807E+01  0.16136285355E+02  0.00000000000E+00 0.  1.
</event>
<event>
 7    1  0.4836188E-013  0.5052886E+02  0.7816164E-02  0.1300439E+00
        -11   -1    0    0    0    0  0.00000000000E+00  0.00000000000E+00  0.45593999997E+02  0.45594000000E+02  0.51100000000E-03 0. -1.
         11   -1    0    0    0    0 -0.00000000000E+00 -0.00000000000E+00 -0.45593999997E+02  0.45594000000E+02  0.51100000000E-03 0.  1.
    9900012    2    1    2    0    0  0.21596847544E+02  0.42632252745E+01 -0.34184306519E+02  0.50528859259E+02  0.29999998205E+02 0.  0.
         12    1    1    2    0    0 -0.21596847544E+02 -0.42632252745E+01  0.34184306519E+02  0.40659140741E+02  0.00000000000E+00 0. -1.
         11    1    3    3    0    0  0.12676467646E+02  0.15931652158E+02 -0.20939540279E+02  0.29205730941E+02  0.51100000000E-03 0.  1.
        -11    1    3    3    0    0 -0.11255411942E+01 -0.22288402289E+01 -0.49410667331E+00  0.25453316899E+01  0.51100000000E-03 0. -1.
        -12    1    3    3    0    0  0.10045921093E+02 -0.94395866549E+01 -0.12750659567E+02  0.18777796628E+02  0.00000000000E+00 0.  1.
</event>
<event>
 7    1  0.4836188E-013  0.5052885E+02  0.7816164E-02  0.1300439E+00
        -11   -1    0    0    0    0  0.00000000000E+00  0.00000000000E+00  0.45593999997E+02  0.45594000000E+02  0.51100000000E-03 0. -1.
         11   -1    0    0    0    0 -0.00000000000E+00 -0.00000000000E+00 -0.45593999997E+02  0.45594000000E+02  0.51100000000E-03 0.  1.
    9900012    2    1    2    0    0  0.37055215478E+02 -0.15074288059E+02 -0.72693657999E+01  0.50528845634E+02  0.29999956788E+02 0.  0.
         12    1    1    2    0    0 -0.37055215478E+02  0.15074288059E+02  0.72693657999E+01  0.40659154366E+02  0.00000000000E+00 0. -1.
         11    1    3    3    0    0  0.39313847024E+01  0.70054269820E+01 -0.36968856589E+01  0.88430060903E+01  0.51100000000E-03 0. -1.
        -11    1    3    3    0    0  0.33711516873E+01 -0.31790396581E+01  0.34090044156E+01  0.57525879579E+01  0.51100000000E-03 0.  1.
        -12    1    3    3    0    0  0.29752679089E+02 -0.18900675383E+02 -0.69814845566E+01  0.35933251586E+02  0.00000000000E+00 0.  1.
</event>
<event>
 7    1  0.4836188E-013  0.5052886E+02  0.7816164E-02  0.1300439E+00
        -11   -1    0    0    0    0  0.00000000000E+00  0.00000000000E+00  0.45593999997E+02  0.45594000000E+02  0.51100000000E-03 0. -1.
         11   -1    0    0    0    0 -0.00000000000E+00 -0.00000000000E+00 -0.45593999997E+02  0.45594000000E+02  0.51100000000E-03 0.  1.
    9900012    2    1    2    0    0  0.11360058719E+02  0.24377922458E+02  0.30493143505E+02  0.50528857876E+02  0.29999993999E+02 0.  0.
         12    1    1    2    0    0 -0.11360058719E+02 -0.24377922458E+02 -0.30493143505E+02  0.40659142124E+02  0.00000000000E+00 0. -1.
         11    1    3    3    0    0  0.66256072945E+01  0.76871282547E+01  0.43489530176E+01  0.11041014692E+02  0.51100000000E-03 0. -1.
        -11    1    3    3    0    0  0.14345342822E+02  0.11728936002E+02  0.13991443403E+02  0.23218899396E+02  0.51100000000E-03 0.  1.
         12    1    3    3    0    0 -0.96108913973E+01  0.49618582016E+01  0.12152747084E+02  0.16268943787E+02  0.00000000000E+00 0. -1.
</event>
<event>
 7    1  0.4836188E-013  0.5052889E+02  0.7816164E-02  0.1300439E+00
        -11   -1    0    0    0    0  0.00000000000E+00  0.00000000000E+00  0.45593999997E+02  0.45594000000E+02  0.51100000000E-03 0. -1.
         11   -1    0    0    0    0 -0.00000000000E+00 -0.00000000000E+00 -0.45593999997E+02  0.45594000000E+02  0.51100000000E-03 0.  1.
    9900012    2    1    2    0    0 -0.15515786552E+02 -0.37543617573E+02 -0.17031646973E+01  0.50528885121E+02  0.30000076812E+02 0.  0.
         12    1    1    2    0    0  0.15515786552E+02  0.37543617573E+02  0.17031646973E+01  0.40659114879E+02  0.00000000000E+00 0. -1.
         11    1    3    3    0    0  0.18596826179E+00 -0.13469050834E+02  0.77356242443E+00  0.13492528068E+02  0.51100000000E-03 0. -1.
        -11    1    3    3    0    0 -0.89086871077E+01 -0.15552419131E+02 -0.12800275585E+02  0.22024747493E+02  0.51100000000E-03 0.  1.
         12    1    3    3    0    0 -0.67930677064E+01 -0.85221476083E+01  0.10323548463E+02  0.15011609560E+02  0.00000000000E+00 0. -1.
</event>
<event>
 7    1  0.4836188E-013  0.5052886E+02  0.7816164E-02  0.1300439E+00
        -11   -1    0    0    0    0  0.00000000000E+00  0.00000000000E+00  0.45593999997E+02  0.45594000000E+02  0.51100000000E-03 0.  1.
         11   -1    0    0    0    0 -0.00000000000E+00 -0.00000000000E+00 -0.45593999997E+02  0.45594000000E+02  0.51100000000E-03 0. -1.
    9900012    2    1    2    0    0  0.42158028052E+01 -0.33334048310E+02  0.22896149844E+02  0.50528862679E+02  0.30000008599E+02 0.  0.
         12    1    1    2    0    0 -0.42158028052E+01  0.33334048310E+02 -0.22896149844E+02  0.40659137321E+02  0.00000000000E+00 0. -1.
         11    1    3    3    0    0 -0.14598788989E+01 -0.17489881398E+02 -0.21235720921E+01  0.17678709128E+02  0.51100000000E-03 0. -1.
        -11    1    3    3    0    0  0.96754367934E+01 -0.94203878261E+01  0.13721964934E+02  0.19252275342E+02  0.51100000000E-03 0.  1.
        -12    1    3    3    0    0 -0.39997550893E+01 -0.64237790855E+01  0.11297757001E+02  0.13597878209E+02  0.00000000000E+00 0.  1.
</event>
<event>
 7    1  0.4836188E-013  0.5052887E+02  0.7816164E-02  0.1300439E+00
        -11   -1    0    0    0    0  0.00000000000E+00  0.00000000000E+00  0.45593999997E+02  0.45594000000E+02  0.51100000000E-03 0. -1.
         11   -1    0    0    0    0 -0.00000000000E+00 -0.00000000000E+00 -0.45593999997E+02  0.45594000000E+02  0.51100000000E-03 0.  1.
    9900012    2    1    2    0    0  0.19494304492E+02  0.72406768503E+01 -0.34938653410E+02  0.50528870508E+02  0.30000032397E+02 0.  0.
         12    1    1    2    0    0 -0.19494304492E+02 -0.72406768503E+01  0.34938653410E+02  0.40659129492E+02  0.00000000000E+00 0. -1.
         11    1    3    3    0    0  0.10651623855E+02  0.49962021269E+01  0.11576161258E+01  0.11821979606E+02  0.51100000000E-03 0. -1.
        -11    1    3    3    0    0  0.67879663303E+01  0.47746792926E+01 -0.13286441895E+02  0.15665362675E+02  0.51100000000E-03 0.  1.
        -12    1    3    3    0    0  0.20547143068E+01 -0.25302045693E+01 -0.22809827641E+02  0.23041528228E+02  0.00000000000E+00 0.  1.
</event>
<event>
 7    1  0.4836188E-013  0.5052885E+02  0.7816164E-02  0.1300439E+00
        -11   -1    0    0    0    0  0.00000000000E+00  0.00000000000E+00  0.45593999997E+02  0.45594000000E+02  0.51100000000E-03 0. -1.
         11   -1    0    0    0    0 -0.00000000000E+00 -0.00000000000E+00 -0.45593999997E+02  0.45594000000E+02  0.51100000000E-03 0.  1.
    9900012    2    1    2    0    0  0.10326332113E+02  0.39049209802E+01 -0.39131635180E+02  0.50528850788E+02  0.29999972455E+02 0.  0.
         12    1    1    2    0    0 -0.10326332113E+02 -0.39049209802E+01  0.39131635180E+02  0.40659149212E+02  0.00000000000E+00 0. -1.
         11    1    3    3    0    0  0.20731352535E+01  0.10184962684E+02 -0.38770533654E+01  0.11093371792E+02  0.51100000000E-03 0. -1.
        -11    1    3    3    0    0  0.28070875459E+01  0.42246385024E+01 -0.16483506064E+02  0.17246254184E+02  0.51100000000E-03 0.  1.
         12    1    3    3    0    0  0.54461093133E+01 -0.10504680206E+02 -0.18771075751E+02  0.22189224812E+02  0.00000000000E+00 0. -1.
</event>
<event>
 7    1  0.4836188E-013  0.5052885E+02  0.7816164E-02  0.1300439E+00
        -11   -1    0    0    0    0  0.00000000000E+00  0.00000000000E+00  0.45593999997E+02  0.45594000000E+02  0.51100000000E-03 0. -1.
         11   -1    0    0    0    0 -0.00000000000E+00 -0.00000000000E+00 -0.45593999997E+02  0.45594000000E+02  0.51100000000E-03 0.  1.
    9900012    2    1    2    0    0  0.17689823606E+02  0.24248023461E+02 -0.27427537859E+02  0.50528851780E+02  0.29999975470E+02 0.  0.
         12    1    1    2    0    0 -0.17689823606E+02 -0.24248023461E+02  0.27427537859E+02  0.40659148220E+02  0.00000000000E+00 0. -1.
         11    1    3    3    0    0  0.10693433695E+02  0.45099916005E+01  0.10107769353E+01  0.11649515814E+02  0.51100000000E-03 0. -1.
        -11    1    3    3    0    0  0.11705715218E+02  0.89563269414E+01 -0.15362653594E+02  0.21289684985E+02  0.51100000000E-03 0.  1.
        -12    1    3    3    0    0 -0.47093253066E+01  0.10781704919E+02 -0.13075661200E+02  0.17589650981E+02  0.00000000000E+00 0.  1.
</event>
<event>
 7    1  0.4836188E-013  0.5052886E+02  0.7816164E-02  0.1300439E+00
        -11   -1    0    0    0    0  0.00000000000E+00  0.00000000000E+00  0.45593999997E+02  0.45594000000E+02  0.51100000000E-03 0. -1.
         11   -1    0    0    0    0 -0.00000000000E+00 -0.00000000000E+00 -0.45593999997E+02  0.45594000000E+02  0.51100000000E-03 0.  1.
    9900012    2    1    2    0    0 -0.18045735705E+02 -0.32033464734E+02  0.17360140191E+02  0.50528857025E+02  0.29999991414E+02 0.  0.
         12    1    1    2    0    0  0.18045735705E+02  0.32033464734E+02 -0.17360140191E+02  0.40659142975E+02  0.00000000000E+00 0. -1.
         11    1    3    3    0    0 -0.10156490449E+02 -0.20562666289E+02  0.84049551041E+01  0.24425822683E+02  0.51100000000E-03 0. -1.
        -11    1    3    3    0    0 -0.11712785880E+00 -0.65949157952E+01  0.14112556135E+02  0.15577896977E+02  0.51100000000E-03 0.  1.
         12    1    3    3    0    0 -0.77721173972E+01 -0.48758826492E+01 -0.51573710481E+01  0.10525137366E+02  0.00000000000E+00 0. -1.
</event>
<event>
 7    1  0.4836188E-013  0.5052886E+02  0.7816164E-02  0.1300439E+00
        -11   -1    0    0    0    0  0.00000000000E+00  0.00000000000E+00  0.45593999997E+02  0.45594000000E+02  0.51100000000E-03 0. -1.
         11   -1    0    0    0    0 -0.00000000000E+00 -0.00000000000E+00 -0.45593999997E+02  0.45594000000E+02  0.51100000000E-03 0.  1.
    9900012    2    1    2    0    0  0.37953319535E+02 -0.14264431806E+02  0.30392604590E+01  0.50528861020E+02  0.30000003555E+02 0.  0.
         12    1    1    2    0    0 -0.37953319535E+02  0.14264431806E+02 -0.30392604590E+01  0.40659138980E+02  0.00000000000E+00 0. -1.
         11    1    3    3    0    0  0.10437960734E+02 -0.11634413511E+02 -0.58548664433E+01  0.16691017445E+02  0.51100000000E-03 0. -1.
        -11    1    3    3    0    0  0.52265548281E+00  0.25524081655E+01 -0.29264086789E+01  0.39181404026E+01  0.51100000000E-03 0.  1.
         12    1    3    3    0    0  0.26992703318E+02 -0.51824264600E+01  0.11820535581E+02  0.29919703172E+02  0.00000000000E+00 0. -1.
</event>
<event>
 7    1  0.4836188E-013  0.5052885E+02  0.7816164E-02  0.1300439E+00
        -11   -1    0    0    0    0  0.00000000000E+00  0.00000000000E+00  0.45593999997E+02  0.45594000000E+02  0.51100000000E-03 0. -1.
         11   -1    0    0    0    0 -0.00000000000E+00 -0.00000000000E+00 -0.45593999997E+02  0.45594000000E+02  0.51100000000E-03 0.  1.
    9900012    2    1    2    0    0  0.23188317664E+02  0.96258686305E+01 -0.31981412805E+02  0.50528853575E+02  0.29999980927E+02 0.  0.
         12    1    1    2    0    0 -0.23188317664E+02 -0.96258686305E+01  0.31981412805E+02  0.40659146425E+02  0.00000000000E+00 0. -1.
         11    1    3    3    0    0 -0.17889308368E+01 -0.36032168724E+01 -0.64511451025E+01  0.76026783940E+01  0.51100000000E-03 0. -1.
        -11    1    3    3    0    0  0.10239617716E+02  0.30523192495E+00 -0.20142053639E+02  0.22597461418E+02  0.51100000000E-03 0.  1.
         12    1    3    3    0    0  0.14737630785E+02  0.12923853578E+02 -0.53882140638E+01  0.20328713763E+02  0.00000000000E+00 0. -1.
</event>
<event>
 7    1  0.4836188E-013  0.5052886E+02  0.7816164E-02  0.1300439E+00
        -11   -1    0    0    0    0  0.00000000000E+00  0.00000000000E+00  0.45593999997E+02  0.45594000000E+02  0.51100000000E-03 0.  1.
         11   -1    0    0    0    0 -0.00000000000E+00 -0.00000000000E+00 -0.45593999997E+02  0.45594000000E+02  0.51100000000E-03 0. -1.
    9900012    2    1    2    0    0  0.10150566899E+02 -0.20082621128E+02  0.33864733284E+02  0.50528857853E+02  0.29999993931E+02 0.  0.
         12    1    1    2    0    0 -0.10150566899E+02  0.20082621128E+02 -0.33864733284E+02  0.40659142147E+02  0.00000000000E+00 0. -1.
         11    1    3    3    0    0  0.60696897101E+01 -0.67918822393E+01 -0.24754677545E+01  0.94392128059E+01  0.51100000000E-03 0. -1.
        -11    1    3    3    0    0 -0.11237362305E+01 -0.81750300830E+01  0.68944317728E+01  0.10753003753E+02  0.51100000000E-03 0.  1.
         12    1    3    3    0    0  0.52046134193E+01 -0.51157088055E+01  0.29445769265E+02  0.30336641295E+02  0.00000000000E+00 0. -1.
</event>
<event>
 7    1  0.4836188E-013  0.5052885E+02  0.7816164E-02  0.1300439E+00
        -11   -1    0    0    0    0  0.00000000000E+00  0.00000000000E+00  0.45593999997E+02  0.45594000000E+02  0.51100000000E-03 0. -1.
         11   -1    0    0    0    0 -0.00000000000E+00 -0.00000000000E+00 -0.45593999997E+02  0.45594000000E+02  0.51100000000E-03 0.  1.
    9900012    2    1    2    0    0 -0.33781766777E+02 -0.35271142000E+01 -0.22349901254E+02  0.50528851125E+02  0.29999973480E+02 0.  0.
         12    1    1    2    0    0  0.33781766777E+02  0.35271142000E+01  0.22349901254E+02  0.40659148875E+02  0.00000000000E+00 0. -1.
         11    1    3    3    0    0 -0.53664355672E+01 -0.31500553977E+01 -0.11287162559E+02  0.12888813700E+02  0.51100000000E-03 0. -1.
        -11    1    3    3    0    0 -0.88143502070E+01 -0.10641826600E+02 -0.34667948160E+01  0.14246399879E+02  0.51100000000E-03 0.  1.
         12    1    3    3    0    0 -0.19600981003E+02  0.10264767798E+02 -0.75959438784E+01  0.23393637546E+02  0.00000000000E+00 0. -1.
</event>
<event>
 7    1  0.4836188E-013  0.5052885E+02  0.7816164E-02  0.1300439E+00
        -11   -1    0    0    0    0  0.00000000000E+00  0.00000000000E+00  0.45593999997E+02  0.45594000000E+02  0.51100000000E-03 0.  1.
         11   -1    0    0    0    0 -0.00000000000E+00 -0.00000000000E+00 -0.45593999997E+02  0.45594000000E+02  0.51100000000E-03 0. -1.
    9900012    2    1    2    0    0  0.18333186333E+02  0.11260116879E+02  0.34500293504E+02  0.50528853365E+02  0.29999980287E+02 0.  0.
         12    1    1    2    0    0 -0.18333186333E+02 -0.11260116879E+02 -0.34500293504E+02  0.40659146635E+02  0.00000000000E+00 0. -1.
         11    1    3    3    0    0  0.66006124279E+01  0.90824674543E+01  0.29871979328E+01  0.11618203443E+02  0.51100000000E-03 0. -1.
        -11    1    3    3    0    0 -0.21845214480E+01 -0.40129145740E+01  0.81459265723E+00  0.46410320828E+01  0.51100000000E-03 0.  1.
        -12    1    3    3    0    0  0.13917095354E+02  0.61905639984E+01  0.30698502914E+02  0.34269617839E+02  0.00000000000E+00 0.  1.
</event>
<event>
 7    1  0.4836188E-013  0.5052885E+02  0.7816164E-02  0.1300439E+00
        -11   -1    0    0    0    0  0.00000000000E+00  0.00000000000E+00  0.45593999997E+02  0.45594000000E+02  0.51100000000E-03 0.  1.
         11   -1    0    0    0    0 -0.00000000000E+00 -0.00000000000E+00 -0.45593999997E+02  0.45594000000E+02  0.51100000000E-03 0. -1.
    9900012    2    1    2    0    0 -0.26864488009E+02  0.30300051233E+02  0.36568388588E+01  0.50528852307E+02  0.29999977072E+02 0.  0.
         12    1    1    2    0    0  0.26864488009E+02 -0.30300051233E+02 -0.36568388588E+01  0.40659147693E+02  0.00000000000E+00 0. -1.
         11    1    3    3    0    0 -0.15074859368E+02  0.17158706348E+02  0.95999444937E+01  0.24775623565E+02  0.51100000000E-03 0. -1.
        -11    1    3    3    0    0  0.20682643401E+01  0.24457171814E+01  0.43834399070E+01  0.54289773983E+01  0.51100000000E-03 0.  1.
         12    1    3    3    0    0 -0.13857892981E+02  0.10695627703E+02 -0.10326545542E+02  0.20324251343E+02  0.00000000000E+00 0. -1.
</event>
<event>
 7    1  0.4836188E-013  0.5052895E+02  0.7816164E-02  0.1300438E+00
        -11   -1    0    0    0    0  0.00000000000E+00  0.00000000000E+00  0.45593999997E+02  0.45594000000E+02  0.51100000000E-03 0.  1.
         11   -1    0    0    0    0 -0.00000000000E+00 -0.00000000000E+00 -0.45593999997E+02  0.45594000000E+02  0.51100000000E-03 0. -1.
    9900012    2    1    2    0    0  0.25722910422E+02 -0.16139017847E+02  0.27037420811E+02  0.50528952523E+02  0.30000281689E+02 0.  0.
         12    1    1    2    0    0 -0.25722910422E+02  0.16139017847E+02 -0.27037420811E+02  0.40659047477E+02  0.00000000000E+00 0. -1.
         11    1    3    3    0    0 -0.10009055975E+01 -0.14260596212E+01  0.62735894973E-01  0.17433858184E+01  0.51100000000E-03 0. -1.
        -11    1    3    3    0    0  0.23900377168E+02 -0.28736929867E+00  0.89399845667E+01  0.25519285534E+02  0.51100000000E-03 0.  1.
        -12    1    3    3    0    0  0.28234388515E+01 -0.14425588927E+02  0.18034700349E+02  0.23266281171E+02  0.00000000000E+00 0.  1.
</event>
<event>
 7    1  0.4836188E-013  0.5052878E+02  0.7816164E-02  0.1300439E+00
        -11   -1    0    0    0    0  0.00000000000E+00  0.00000000000E+00  0.45593999997E+02  0.45594000000E+02  0.51100000000E-03 0.  1.
         11   -1    0    0    0    0 -0.00000000000E+00 -0.00000000000E+00 -0.45593999997E+02  0.45594000000E+02  0.51100000000E-03 0. -1.
    9900012    2    1    2    0    0  0.17685520897E+02 -0.47742180452E+01  0.36298784006E+02  0.50528775614E+02  0.29999743955E+02 0.  0.
         12    1    1    2    0    0 -0.17685520897E+02  0.47742180452E+01 -0.36298784006E+02  0.40659224386E+02  0.00000000000E+00 0. -1.
         11    1    3    3    0    0  0.10707696227E+02 -0.92205530417E+01  0.72377918518E+01  0.15876365706E+02  0.51100000000E-03 0. -1.
        -11    1    3    3    0    0  0.61984481301E+01 -0.10954829004E+01  0.28315411816E+02  0.29006609395E+02  0.51100000000E-03 0.  1.
         12    1    3    3    0    0  0.77937653996E+00  0.55418178969E+01  0.74558033840E+00  0.56458005132E+01  0.00000000000E+00 0. -1.
</event>
<event>
 7    1  0.4836188E-013  0.5052887E+02  0.7816164E-02  0.1300439E+00
        -11   -1    0    0    0    0  0.00000000000E+00  0.00000000000E+00  0.45593999997E+02  0.45594000000E+02  0.51100000000E-03 0. -1.
         11   -1    0    0    0    0 -0.00000000000E+00 -0.00000000000E+00 -0.45593999997E+02  0.45594000000E+02  0.51100000000E-03 0.  1.
    9900012    2    1    2    0    0 -0.33668461958E+02 -0.16836611864E+02 -0.15366459677E+02  0.50528869258E+02  0.30000028597E+02 0.  0.
         12    1    1    2    0    0  0.33668461958E+02  0.16836611864E+02  0.15366459677E+02  0.40659130742E+02  0.00000000000E+00 0. -1.
         11    1    3    3    0    0 -0.12525882543E+02 -0.11027162116E+02 -0.10516360216E+02  0.19725361094E+02  0.51100000000E-03 0. -1.
        -11    1    3    3    0    0 -0.20104735085E+02  0.12896542033E-01 -0.10450378458E+02  0.22658573418E+02  0.51100000000E-03 0.  1.
         12    1    3    3    0    0 -0.10378443295E+01 -0.58223462901E+01  0.56002789975E+01  0.81449347465E+01  0.00000000000E+00 0. -1.
</event>
<event>
 7    1  0.4836188E-013  0.5052885E+02  0.7816164E-02  0.1300439E+00
        -11   -1    0    0    0    0  0.00000000000E+00  0.00000000000E+00  0.45593999997E+02  0.45594000000E+02  0.51100000000E-03 0. -1.
         11   -1    0    0    0    0 -0.00000000000E+00 -0.00000000000E+00 -0.45593999997E+02  0.45594000000E+02  0.51100000000E-03 0.  1.
    9900012    2    1    2    0    0  0.11347402598E+02  0.12778315651E+01 -0.39022687877E+02  0.50528848898E+02  0.29999966709E+02 0.  0.
         12    1    1    2    0    0 -0.11347402598E+02 -0.12778315651E+01  0.39022687877E+02  0.40659151102E+02  0.00000000000E+00 0. -1.
         11    1    3    3    0    0  0.13181001892E+02 -0.41470202246E+01 -0.26672793822E+02  0.30039549234E+02  0.51100000000E-03 0. -1.
        -11    1    3    3    0    0  0.33242506270E+01  0.15665033467E+01 -0.13460358016E+02  0.13952985815E+02  0.51100000000E-03 0.  1.
         12    1    3    3    0    0 -0.51578499212E+01  0.38583484431E+01  0.11104639618E+01  0.65363138487E+01  0.00000000000E+00 0. -1.
</event>
<event>
 7    1  0.4836188E-013  0.5052886E+02  0.7816164E-02  0.1300439E+00
        -11   -1    0    0    0    0  0.00000000000E+00  0.00000000000E+00  0.45593999997E+02  0.45594000000E+02  0.51100000000E-03 0. -1.
         11   -1    0    0    0    0 -0.00000000000E+00 -0.00000000000E+00 -0.45593999997E+02  0.45594000000E+02  0.51100000000E-03 0.  1.
    9900012    2    1    2    0    0  0.25017013811E+02  0.32029903119E+02  0.11831184470E+01  0.50528862735E+02  0.30000008770E+02 0.  0.
         12    1    1    2    0    0 -0.25017013811E+02 -0.32029903119E+02 -0.11831184470E+01  0.40659137265E+02  0.00000000000E+00 0. -1.
         11    1    3    3    0    0  0.15880292820E+02  0.28728572006E+01  0.21665931529E+00  0.16139515174E+02  0.51100000000E-03 0. -1.
        -11    1    3    3    0    0  0.47709045233E+01  0.82005515424E+01 -0.67402109484E+01  0.11637913020E+02  0.51100000000E-03 0.  1.
        -12    1    3    3    0    0  0.43658164680E+01  0.20956494376E+02  0.77066700800E+01  0.22751434542E+02  0.00000000000E+00 0.  1.
</event>
<event>
 7    1  0.4836188E-013  0.5052885E+02  0.7816164E-02  0.1300439E+00
        -11   -1    0    0    0    0  0.00000000000E+00  0.00000000000E+00  0.45593999997E+02  0.45594000000E+02  0.51100000000E-03 0.  1.
         11   -1    0    0    0    0 -0.00000000000E+00 -0.00000000000E+00 -0.45593999997E+02  0.45594000000E+02  0.51100000000E-03 0. -1.
    9900012    2    1    2    0    0  0.27836328955E+02  0.29487086385E+02  0.29692940987E+01  0.50528853666E+02  0.29999981203E+02 0.  0.
         12    1    1    2    0    0 -0.27836328955E+02 -0.29487086385E+02 -0.29692940987E+01  0.40659146334E+02  0.00000000000E+00 0. -1.
         11    1    3    3    0    0  0.20881037752E+02  0.30336477980E+02  0.71844792175E+01  0.37522478273E+02  0.51100000000E-03 0.  1.
        -11    1    3    3    0    0  0.85880904133E+01 -0.24601657145E+01 -0.90502178663E+00  0.89792414482E+01  0.51100000000E-03 0. -1.
        -12    1    3    3    0    0 -0.16327992106E+01  0.16107741190E+01 -0.33101633321E+01  0.40271339449E+01  0.00000000000E+00 0.  1.
</event>
<event>
 7    1  0.4836188E-013  0.5052886E+02  0.7816164E-02  0.1300439E+00
        -11   -1    0    0    0    0  0.00000000000E+00  0.00000000000E+00  0.45593999997E+02  0.45594000000E+02  0.51100000000E-03 0.  1.
         11   -1    0    0    0    0 -0.00000000000E+00 -0.00000000000E+00 -0.45593999997E+02  0.45594000000E+02  0.51100000000E-03 0. -1.
    9900012    2    1    2    0    0 -0.38081756288E+02  0.13363904333E+02 -0.49347238124E+01  0.50528860805E+02  0.30000002903E+02 0.  0.
         12    1    1    2    0    0  0.38081756288E+02 -0.13363904333E+02  0.49347238124E+01  0.40659139195E+02  0.00000000000E+00 0. -1.
         11    1    3    3    0    0 -0.23242956013E+02 -0.16733770864E+01 -0.95300151551E+01  0.25176504606E+02  0.51100000000E-03 0. -1.
        -11    1    3    3    0    0 -0.10646433445E+02  0.44168065766E+01  0.72671288420E+01  0.13625927026E+02  0.51100000000E-03 0.  1.
        -12    1    3    3    0    0 -0.41923668297E+01  0.10620474843E+02 -0.26718374993E+01  0.11726429173E+02  0.00000000000E+00 0.  1.
</event>
<event>
 7    1  0.4836188E-013  0.5052886E+02  0.7816164E-02  0.1300439E+00
        -11   -1    0    0    0    0  0.00000000000E+00  0.00000000000E+00  0.45593999997E+02  0.45594000000E+02  0.51100000000E-03 0. -1.
         11   -1    0    0    0    0 -0.00000000000E+00 -0.00000000000E+00 -0.45593999997E+02  0.45594000000E+02  0.51100000000E-03 0.  1.
    9900012    2    1    2    0    0  0.23579917555E+02 -0.22948822028E+02 -0.23885240079E+02  0.50528860339E+02  0.30000001485E+02 0.  0.
         12    1    1    2    0    0 -0.23579917555E+02  0.22948822028E+02  0.23885240079E+02  0.40659139661E+02  0.00000000000E+00 0. -1.
         11    1    3    3    0    0  0.19616262961E+02 -0.20735248356E+02 -0.76900544826E+01  0.29561549945E+02  0.51100000000E-03 0. -1.
        -11    1    3    3    0    0 -0.19429743181E+01  0.14410193196E+01  0.84780706648E+00  0.25632914316E+01  0.51100000000E-03 0.  1.
        -12    1    3    3    0    0  0.59066289121E+01 -0.36545929909E+01 -0.17042992663E+02  0.18404018962E+02  0.00000000000E+00 0.  1.
</event>
<event>
 7    1  0.4836188E-013  0.5052885E+02  0.7816164E-02  0.1300439E+00
        -11   -1    0    0    0    0  0.00000000000E+00  0.00000000000E+00  0.45593999997E+02  0.45594000000E+02  0.51100000000E-03 0. -1.
         11   -1    0    0    0    0 -0.00000000000E+00 -0.00000000000E+00 -0.45593999997E+02  0.45594000000E+02  0.51100000000E-03 0.  1.
    9900012    2    1    2    0    0  0.78634160439E+01  0.36485733569E+02 -0.16128369463E+02  0.50528851367E+02  0.29999974217E+02 0.  0.
         12    1    1    2    0    0 -0.78634160439E+01 -0.36485733569E+02  0.16128369463E+02  0.40659148633E+02  0.00000000000E+00 0. -1.
         11    1    3    3    0    0 -0.78137140693E+01  0.43407927146E+01 -0.23605766086E+01  0.92449408400E+01  0.51100000000E-03 0. -1.
        -11    1    3    3    0    0  0.83972551140E+01  0.63626069274E+01  0.11869768014E+01  0.10602149525E+02  0.51100000000E-03 0.  1.
        -12    1    3    3    0    0  0.72798749992E+01  0.25782333927E+02 -0.14954769656E+02  0.30681761003E+02  0.00000000000E+00 0.  1.
</event>
<event>
 7    1  0.4836188E-013  0.5052885E+02  0.7816164E-02  0.1300439E+00
        -11   -1    0    0    0    0  0.00000000000E+00  0.00000000000E+00  0.45593999997E+02  0.45594000000E+02  0.51100000000E-03 0.  1.
         11   -1    0    0    0    0 -0.00000000000E+00 -0.00000000000E+00 -0.45593999997E+02  0.45594000000E+02  0.51100000000E-03 0. -1.
    9900012    2    1    2    0    0 -0.39914235583E+02 -0.75784455832E+01 -0.16084947654E+01  0.50528852259E+02  0.29999976927E+02 0.  0.
         12    1    1    2    0    0  0.39914235583E+02  0.75784455832E+01  0.16084947654E+01  0.40659147741E+02  0.00000000000E+00 0. -1.
         11    1    3    3    0    0 -0.19538040058E+02 -0.20809755255E+01 -0.13397776196E+02  0.23781628954E+02  0.51100000000E-03 0. -1.
        -11    1    3    3    0    0  0.86064650945E+00 -0.11358803090E+00  0.30308731943E+01  0.31527459834E+01  0.51100000000E-03 0.  1.
        -12    1    3    3    0    0 -0.21236842034E+02 -0.53838820267E+01  0.87584082361E+01  0.23594477322E+02  0.00000000000E+00 0.  1.
</event>
<event>
 7    1  0.4836188E-013  0.5052887E+02  0.7816164E-02  0.1300439E+00
        -11   -1    0    0    0    0  0.00000000000E+00  0.00000000000E+00  0.45593999997E+02  0.45594000000E+02  0.51100000000E-03 0.  1.
         11   -1    0    0    0    0 -0.00000000000E+00 -0.00000000000E+00 -0.45593999997E+02  0.45594000000E+02  0.51100000000E-03 0. -1.
    9900012    2    1    2    0    0 -0.99099269421E+01 -0.37877235678E+02  0.10966897012E+02  0.50528874768E+02  0.30000045343E+02 0.  0.
         12    1    1    2    0    0  0.99099269421E+01  0.37877235678E+02 -0.10966897012E+02  0.40659125232E+02  0.00000000000E+00 0. -1.
         11    1    3    3    0    0 -0.35451704526E+01 -0.57010633577E+01 -0.54243141385E+01  0.86309640875E+01  0.51100000000E-03 0. -1.
        -11    1    3    3    0    0 -0.56941584926E+01 -0.29607656203E+02  0.54494783435E+01  0.30638759134E+02  0.51100000000E-03 0.  1.
         12    1    3    3    0    0 -0.67059799688E+00 -0.25685161172E+01  0.10941732807E+02  0.11259151546E+02  0.00000000000E+00 0. -1.
</event>
<event>
 7    1  0.4836188E-013  0.5052886E+02  0.7816164E-02  0.1300439E+00
        -11   -1    0    0    0    0  0.00000000000E+00  0.00000000000E+00  0.45593999997E+02  0.45594000000E+02  0.51100000000E-03 0.  1.
         11   -1    0    0    0    0 -0.00000000000E+00 -0.00000000000E+00 -0.45593999997E+02  0.45594000000E+02  0.51100000000E-03 0. -1.
    9900012    2    1    2    0    0 -0.76029788336E+01 -0.16533692167E+02  0.36359278139E+02  0.50528863627E+02  0.30000011479E+02 0.  0.
         12    1    1    2    0    0  0.76029788336E+01  0.16533692167E+02 -0.36359278139E+02  0.40659136373E+02  0.00000000000E+00 0. -1.
         11    1    3    3    0    0 -0.17075912196E+01  0.60879075789E+01  0.15075676274E+02  0.16347920414E+02  0.51100000000E-03 0. -1.
        -11    1    3    3    0    0 -0.38710566480E+00 -0.15230676863E+01 -0.18250017241E+01  0.24083640769E+01  0.51100000000E-03 0.  1.
        -12    1    3    3    0    0 -0.55082819493E+01 -0.21098532060E+02  0.23108603589E+02  0.31772579136E+02  0.00000000000E+00 0.  1.
</event>
<event>
 7    1  0.4836188E-013  0.5052885E+02  0.7816164E-02  0.1300439E+00
        -11   -1    0    0    0    0  0.00000000000E+00  0.00000000000E+00  0.45593999997E+02  0.45594000000E+02  0.51100000000E-03 0.  1.
         11   -1    0    0    0    0 -0.00000000000E+00 -0.00000000000E+00 -0.45593999997E+02  0.45594000000E+02  0.51100000000E-03 0. -1.
    9900012    2    1    2    0    0 -0.90804804231E+01  0.19830076790E+02  0.34314418449E+02  0.50528851169E+02  0.29999973613E+02 0.  0.
         12    1    1    2    0    0  0.90804804231E+01 -0.19830076790E+02 -0.34314418449E+02  0.40659148831E+02  0.00000000000E+00 0. -1.
         11    1    3    3    0    0  0.70009481409E+00  0.10202247345E+02  0.90207967845E+00  0.10265950110E+02  0.51100000000E-03 0. -1.
        -11    1    3    3    0    0  0.20600427663E+01  0.10127314400E+02  0.18754054000E+02  0.21413099142E+02  0.51100000000E-03 0.  1.
        -12    1    3    3    0    0 -0.11840618003E+02 -0.49948495550E+00  0.14658284770E+02  0.18849801917E+02  0.00000000000E+00 0.  1.
</event>
<event>
 7    1  0.4836188E-013  0.5052885E+02  0.7816164E-02  0.1300439E+00
        -11   -1    0    0    0    0  0.00000000000E+00  0.00000000000E+00  0.45593999997E+02  0.45594000000E+02  0.51100000000E-03 0.  1.
         11   -1    0    0    0    0 -0.00000000000E+00 -0.00000000000E+00 -0.45593999997E+02  0.45594000000E+02  0.51100000000E-03 0. -1.
    9900012    2    1    2    0    0 -0.14491156985E+02 -0.42102416045E+01  0.37755086954E+02  0.50528851509E+02  0.29999974647E+02 0.  0.
         12    1    1    2    0    0  0.14491156985E+02  0.42102416045E+01 -0.37755086954E+02  0.40659148491E+02  0.00000000000E+00 0. -1.
         11    1    3    3    0    0  0.46619056657E+00  0.47735869278E+01  0.16860997345E+01  0.50840336720E+01  0.51100000000E-03 0. -1.
        -11    1    3    3    0    0 -0.36993882636E+01  0.23792261423E+01  0.26378693844E+02  0.26742880917E+02  0.51100000000E-03 0.  1.
        -12    1    3    3    0    0 -0.11257959288E+02 -0.11363054675E+02  0.96902933755E+01  0.18701936920E+02  0.00000000000E+00 0.  1.
</event>
<event>
 7    1  0.4836188E-013  0.5052878E+02  0.7816164E-02  0.1300439E+00
        -11   -1    0    0    0    0  0.00000000000E+00  0.00000000000E+00  0.45593999997E+02  0.45594000000E+02  0.51100000000E-03 0.  1.
         11   -1    0    0    0    0 -0.00000000000E+00 -0.00000000000E+00 -0.45593999997E+02  0.45594000000E+02  0.51100000000E-03 0. -1.
    9900012    2    1    2    0    0 -0.32725870051E+02  0.20024388645E+02  0.13461562433E+02  0.50528777500E+02  0.29999749687E+02 0.  0.
         12    1    1    2    0    0  0.32725870051E+02 -0.20024388645E+02 -0.13461562433E+02  0.40659222500E+02  0.00000000000E+00 0. -1.
         11    1    3    3    0    0 -0.18242345047E+02  0.57635241066E+00  0.26436385491E+01  0.18441913132E+02  0.51100000000E-03 0. -1.
        -11    1    3    3    0    0  0.70658260426E+00 -0.30079108195E+01  0.89310822547E+00  0.32162756471E+01  0.51100000000E-03 0.  1.
        -12    1    3    3    0    0 -0.15190107608E+02  0.22455947054E+02  0.99248156587E+01  0.28870588720E+02  0.00000000000E+00 0.  1.
</event>
<event>
 7    1  0.4836188E-013  0.5052886E+02  0.7816164E-02  0.1300439E+00
        -11   -1    0    0    0    0  0.00000000000E+00  0.00000000000E+00  0.45593999997E+02  0.45594000000E+02  0.51100000000E-03 0.  1.
         11   -1    0    0    0    0 -0.00000000000E+00 -0.00000000000E+00 -0.45593999997E+02  0.45594000000E+02  0.51100000000E-03 0. -1.
    9900012    2    1    2    0    0  0.15755767328E+02 -0.82014000462E+01  0.36574011338E+02  0.50528862378E+02  0.30000007683E+02 0.  0.
         12    1    1    2    0    0 -0.15755767328E+02  0.82014000462E+01 -0.36574011338E+02  0.40659137622E+02  0.00000000000E+00 0. -1.
         11    1    3    3    0    0  0.80727586158E+01  0.77878123275E+01  0.61134541671E+01  0.12774731881E+02  0.51100000000E-03 0. -1.
        -11    1    3    3    0    0  0.51648600406E+01 -0.11950593131E+00  0.13185177700E+02  0.14161178346E+02  0.51100000000E-03 0.  1.
         12    1    3    3    0    0  0.25181486715E+01 -0.15869706442E+02  0.17275379472E+02  0.23592952151E+02  0.00000000000E+00 0. -1.
</event>
<event>
 7    1  0.4836188E-013  0.5052889E+02  0.7816164E-02  0.1300439E+00
        -11   -1    0    0    0    0  0.00000000000E+00  0.00000000000E+00  0.45593999997E+02  0.45594000000E+02  0.51100000000E-03 0.  1.
         11   -1    0    0    0    0 -0.00000000000E+00 -0.00000000000E+00 -0.45593999997E+02  0.45594000000E+02  0.51100000000E-03 0. -1.
    9900012    2    1    2    0    0 -0.33475504409E+02  0.14652025067E+02  0.17828958489E+02  0.50528892843E+02  0.30000100285E+02 0.  0.
         12    1    1    2    0    0  0.33475504409E+02 -0.14652025067E+02 -0.17828958489E+02  0.40659107157E+02  0.00000000000E+00 0. -1.
         11    1    3    3    0    0 -0.97276481636E+01  0.30406849205E+01  0.16556630695E+02  0.19442091549E+02  0.51100000000E-03 0. -1.
        -11    1    3    3    0    0  0.12960161612E+01  0.27522055971E-01  0.31737136384E+01  0.34282464721E+01  0.51100000000E-03 0.  1.
        -12    1    3    3    0    0 -0.25043872407E+02  0.11583818091E+02 -0.19013858444E+01  0.27658554821E+02  0.00000000000E+00 0.  1.
</event>
<event>
 7    1  0.4836188E-013  0.5052887E+02  0.7816164E-02  0.1300439E+00
        -11   -1    0    0    0    0  0.00000000000E+00  0.00000000000E+00  0.45593999997E+02  0.45594000000E+02  0.51100000000E-03 0.  1.
         11   -1    0    0    0    0 -0.00000000000E+00 -0.00000000000E+00 -0.45593999997E+02  0.45594000000E+02  0.51100000000E-03 0. -1.
    9900012    2    1    2    0    0 -0.19620143195E+02 -0.14990631376E+02  0.32303183847E+02  0.50528871447E+02  0.30000035249E+02 0.  0.
         12    1    1    2    0    0  0.19620143195E+02  0.14990631376E+02 -0.32303183847E+02  0.40659128553E+02  0.00000000000E+00 0. -1.
         11    1    3    3    0    0 -0.82819489097E+01  0.19117806212E+01  0.22938529523E+02  0.24462659705E+02  0.51100000000E-03 0. -1.
        -11    1    3    3    0    0  0.28770810772E+01 -0.46950236016E+01  0.12470487983E+01  0.56458810748E+01  0.51100000000E-03 0.  1.
        -12    1    3    3    0    0 -0.14215275362E+02 -0.12207388396E+02  0.81176055260E+01  0.20420330667E+02  0.00000000000E+00 0.  1.
</event>
<event>
 7    1  0.4836188E-013  0.5052886E+02  0.7816164E-02  0.1300439E+00
        -11   -1    0    0    0    0  0.00000000000E+00  0.00000000000E+00  0.45593999997E+02  0.45594000000E+02  0.51100000000E-03 0. -1.
         11   -1    0    0    0    0 -0.00000000000E+00 -0.00000000000E+00 -0.45593999997E+02  0.45594000000E+02  0.51100000000E-03 0.  1.
    9900012    2    1    2    0    0  0.11147395607E+02 -0.32284168483E+02 -0.22059783271E+02  0.50528855869E+02  0.29999987899E+02 0.  0.
         12    1    1    2    0    0 -0.11147395607E+02  0.32284168483E+02  0.22059783271E+02  0.40659144131E+02  0.00000000000E+00 0. -1.
         11    1    3    3    0    0  0.11013762773E+02 -0.23620887838E+02 -0.21958501896E+01  0.26154752360E+02  0.51100000000E-03 0. -1.
        -11    1    3    3    0    0 -0.57602799271E+00 -0.85390950492E+01 -0.59081122010E+01  0.10399699157E+02  0.51100000000E-03 0.  1.
         12    1    3    3    0    0  0.70966082649E+00 -0.12418559597E+00 -0.13955820881E+02  0.13974404352E+02  0.00000000000E+00 0. -1.
</event>
<event>
 7    1  0.4836188E-013  0.5052887E+02  0.7816164E-02  0.1300439E+00
        -11   -1    0    0    0    0  0.00000000000E+00  0.00000000000E+00  0.45593999997E+02  0.45594000000E+02  0.51100000000E-03 0.  1.
         11   -1    0    0    0    0 -0.00000000000E+00 -0.00000000000E+00 -0.45593999997E+02  0.45594000000E+02  0.51100000000E-03 0. -1.
    9900012    2    1    2    0    0  0.28069067210E+02  0.22280578260E+02  0.19205941878E+02  0.50528869352E+02  0.30000028882E+02 0.  0.
         12    1    1    2    0    0 -0.28069067210E+02 -0.22280578260E+02 -0.19205941878E+02  0.40659130648E+02  0.00000000000E+00 0. -1.
         11    1    3    3    0    0  0.12247828380E+02  0.17093458277E+01  0.11529684034E+02  0.16907536112E+02  0.51100000000E-03 0. -1.
        -11    1    3    3    0    0  0.12617182576E+02  0.19422500661E+01 -0.10358119427E+01  0.12807753047E+02  0.51100000000E-03 0.  1.
         12    1    3    3    0    0  0.32040562535E+01  0.18628982366E+02  0.87120697864E+01  0.20813580193E+02  0.00000000000E+00 0. -1.
</event>
<event>
 7    1  0.4836188E-013  0.5052886E+02  0.7816164E-02  0.1300439E+00
        -11   -1    0    0    0    0  0.00000000000E+00  0.00000000000E+00  0.45593999997E+02  0.45594000000E+02  0.51100000000E-03 0.  1.
         11   -1    0    0    0    0 -0.00000000000E+00 -0.00000000000E+00 -0.45593999997E+02  0.45594000000E+02  0.51100000000E-03 0. -1.
    9900012    2    1    2    0    0  0.33127150973E+02  0.92634855800E+01 -0.21678228284E+02  0.50528857385E+02  0.29999992508E+02 0.  0.
         12    1    1    2    0    0 -0.33127150973E+02 -0.92634855800E+01  0.21678228284E+02  0.40659142615E+02  0.00000000000E+00 0. -1.
         11    1    3    3    0    0 -0.15136701429E+01  0.25536613556E+01  0.19854109751E+01  0.35713079707E+01  0.51100000000E-03 0. -1.
        -11    1    3    3    0    0  0.99203260190E+01 -0.26854652348E+01 -0.16702270738E+02  0.19610977536E+02  0.51100000000E-03 0.  1.
        -12    1    3    3    0    0  0.24720495097E+02  0.93952894593E+01 -0.69613685209E+01  0.27346571879E+02  0.00000000000E+00 0.  1.
</event>
<event>
 7    1  0.4836188E-013  0.5052888E+02  0.7816164E-02  0.1300439E+00
        -11   -1    0    0    0    0  0.00000000000E+00  0.00000000000E+00  0.45593999997E+02  0.45594000000E+02  0.51100000000E-03 0.  1.
         11   -1    0    0    0    0 -0.00000000000E+00 -0.00000000000E+00 -0.45593999997E+02  0.45594000000E+02  0.51100000000E-03 0. -1.
    9900012    2    1    2    0    0 -0.30775704401E+02  0.65369889734E+00  0.26562994323E+02  0.50528880838E+02  0.30000063796E+02 0.  0.
         12    1    1    2    0    0  0.30775704401E+02 -0.65369889734E+00 -0.26562994323E+02  0.40659119162E+02  0.00000000000E+00 0. -1.
         11    1    3    3    0    0 -0.19676497929E+02  0.14430703763E+02  0.16049681991E+02  0.29206199241E+02  0.51100000000E-03 0. -1.
        -11    1    3    3    0    0 -0.44002724924E+00 -0.17857936788E+01  0.31992613639E+01  0.36902515604E+01  0.51100000000E-03 0.  1.
         12    1    3    3    0    0 -0.10659179223E+02 -0.11991211187E+02  0.73140509679E+01  0.17632430037E+02  0.00000000000E+00 0. -1.
</event>
<event>
 7    1  0.4836188E-013  0.5052886E+02  0.7816164E-02  0.1300439E+00
        -11   -1    0    0    0    0  0.00000000000E+00  0.00000000000E+00  0.45593999997E+02  0.45594000000E+02  0.51100000000E-03 0.  1.
         11   -1    0    0    0    0 -0.00000000000E+00 -0.00000000000E+00 -0.45593999997E+02  0.45594000000E+02  0.51100000000E-03 0. -1.
    9900012    2    1    2    0    0 -0.30121900067E+02 -0.59138026267E+01  0.26662026112E+02  0.50528861279E+02  0.30000004344E+02 0.  0.
         12    1    1    2    0    0  0.30121900067E+02  0.59138026267E+01 -0.26662026112E+02  0.40659138721E+02  0.00000000000E+00 0. -1.
         11    1    3    3    0    0  0.13393582256E+01  0.10884272251E+01 -0.28947829967E+01  0.33702111417E+01  0.51100000000E-03 0. -1.
        -11    1    3    3    0    0 -0.71716380303E+01  0.46558544945E+00  0.17726880351E+02  0.19128289236E+02  0.51100000000E-03 0.  1.
         12    1    3    3    0    0 -0.24289620262E+02 -0.74678153012E+01  0.11829928757E+02  0.28030360901E+02  0.00000000000E+00 0. -1.
</event>
<event>
 7    1  0.4836188E-013  0.5052886E+02  0.7816164E-02  0.1300439E+00
        -11   -1    0    0    0    0  0.00000000000E+00  0.00000000000E+00  0.45593999997E+02  0.45594000000E+02  0.51100000000E-03 0.  1.
         11   -1    0    0    0    0 -0.00000000000E+00 -0.00000000000E+00 -0.45593999997E+02  0.45594000000E+02  0.51100000000E-03 0. -1.
    9900012    2    1    2    0    0 -0.16839674035E+02  0.34601598913E+02 -0.13127071377E+02  0.50528864841E+02  0.30000015171E+02 0.  0.
         12    1    1    2    0    0  0.16839674035E+02 -0.34601598913E+02  0.13127071377E+02  0.40659135159E+02  0.00000000000E+00 0. -1.
         11    1    3    3    0    0  0.33551311531E+01  0.12146268483E+02 -0.56420402919E+01  0.13806569524E+02  0.51100000000E-03 0. -1.
        -11    1    3    3    0    0 -0.22172611719E+02  0.23377540115E+02 -0.38051373488E+01  0.32444000413E+02  0.51100000000E-03 0.  1.
         12    1    3    3    0    0  0.19778065310E+01 -0.92220968478E+00 -0.36798937362E+01  0.42782949041E+01  0.00000000000E+00 0. -1.
</event>
<event>
 7    1  0.4836188E-013  0.5052886E+02  0.7816164E-02  0.1300439E+00
        -11   -1    0    0    0    0  0.00000000000E+00  0.00000000000E+00  0.45593999997E+02  0.45594000000E+02  0.51100000000E-03 0.  1.
         11   -1    0    0    0    0 -0.00000000000E+00 -0.00000000000E+00 -0.45593999997E+02  0.45594000000E+02  0.51100000000E-03 0. -1.
    9900012    2    1    2    0    0  0.28915763070E+02 -0.23530231876E+02 -0.16228756915E+02  0.50528859366E+02  0.29999998530E+02 0.  0.
         12    1    1    2    0    0 -0.28915763070E+02  0.23530231876E+02  0.16228756915E+02  0.40659140634E+02  0.00000000000E+00 0. -1.
         11    1    3    3    0    0  0.27136066597E+02 -0.29338814491E+02 -0.15068675718E+02  0.42710620860E+02  0.51100000000E-03 0. -1.
        -11    1    3    3    0    0  0.15667958048E+01  0.92231585195E+00 -0.21629524034E+01  0.28255758678E+01  0.51100000000E-03 0.  1.
         12    1    3    3    0    0  0.21290066801E+00  0.48862667625E+01  0.10028712064E+01  0.49926626389E+01  0.00000000000E+00 0. -1.
</event>
<event>
 7    1  0.4836188E-013  0.5052887E+02  0.7816164E-02  0.1300439E+00
        -11   -1    0    0    0    0  0.00000000000E+00  0.00000000000E+00  0.45593999997E+02  0.45594000000E+02  0.51100000000E-03 0. -1.
         11   -1    0    0    0    0 -0.00000000000E+00 -0.00000000000E+00 -0.45593999997E+02  0.45594000000E+02  0.51100000000E-03 0.  1.
    9900012    2    1    2    0    0  0.34814824576E+02  0.11158468938E+02 -0.17792742931E+02  0.50528866459E+02  0.30000020090E+02 0.  0.
         12    1    1    2    0    0 -0.34814824576E+02 -0.11158468938E+02  0.17792742931E+02  0.40659133541E+02  0.00000000000E+00 0. -1.
         11    1    3    3    0    0  0.12164042691E+01 -0.26649759724E+01 -0.10034716104E+02  0.10453576604E+02  0.51100000000E-03 0. -1.
        -11    1    3    3    0    0  0.23284418438E+02  0.11065609612E+02 -0.12188505152E+02  0.28516162368E+02  0.51100000000E-03 0.  1.
        -12    1    3    3    0    0  0.10314001869E+02  0.27578352991E+01  0.44304783253E+01  0.11559127488E+02  0.00000000000E+00 0.  1.
</event>
<event>
 7    1  0.4836188E-013  0.5052886E+02  0.7816164E-02  0.1300439E+00
        -11   -1    0    0    0    0  0.00000000000E+00  0.00000000000E+00  0.45593999997E+02  0.45594000000E+02  0.51100000000E-03 0. -1.
         11   -1    0    0    0    0 -0.00000000000E+00 -0.00000000000E+00 -0.45593999997E+02  0.45594000000E+02  0.51100000000E-03 0.  1.
    9900012    2    1    2    0    0 -0.75365815156E+01 -0.28976579244E+02 -0.27508603920E+02  0.50528862094E+02  0.30000006820E+02 0.  0.
         12    1    1    2    0    0  0.75365815156E+01  0.28976579244E+02  0.27508603920E+02  0.40659137906E+02  0.00000000000E+00 0. -1.
         11    1    3    3    0    0 -0.53151082519E+01 -0.37187824027E+01 -0.11347507327E+02  0.13070793438E+02  0.51100000000E-03 0. -1.
        -11    1    3    3    0    0  0.14895903033E+01 -0.18243282097E+02 -0.21238039693E+02  0.28037306419E+02  0.51100000000E-03 0.  1.
         12    1    3    3    0    0 -0.37110635670E+01 -0.70145147442E+01  0.50769431000E+01  0.94207622375E+01  0.00000000000E+00 0. -1.
</event>
<event>
 7    1  0.4836188E-013  0.5052884E+02  0.7816164E-02  0.1300439E+00
        -11   -1    0    0    0    0  0.00000000000E+00  0.00000000000E+00  0.45593999997E+02  0.45594000000E+02  0.51100000000E-03 0.  1.
         11   -1    0    0    0    0 -0.00000000000E+00 -0.00000000000E+00 -0.45593999997E+02  0.45594000000E+02  0.51100000000E-03 0. -1.
    9900012    2    1    2    0    0  0.28935567076E+02 -0.24645403704E+02  0.14439671909E+02  0.50528842476E+02  0.29999947189E+02 0.  0.
         12    1    1    2    0    0 -0.28935567076E+02  0.24645403704E+02 -0.14439671909E+02  0.40659157524E+02  0.00000000000E+00 0. -1.
         11    1    3    3    0    0  0.10257655840E+01 -0.81794510987E+01  0.98039229835E+01  0.12809079648E+02  0.51100000000E-03 0. -1.
        -11    1    3    3    0    0  0.19324014436E+02 -0.16885539144E+02  0.10051060699E+02  0.27560166682E+02  0.51100000000E-03 0.  1.
         12    1    3    3    0    0  0.85857870557E+01  0.41958653870E+00 -0.54153117730E+01  0.10159596145E+02  0.00000000000E+00 0. -1.
</event>
<event>
 7    1  0.4836188E-013  0.5052886E+02  0.7816164E-02  0.1300439E+00
        -11   -1    0    0    0    0  0.00000000000E+00  0.00000000000E+00  0.45593999997E+02  0.45594000000E+02  0.51100000000E-03 0.  1.
         11   -1    0    0    0    0 -0.00000000000E+00 -0.00000000000E+00 -0.45593999997E+02  0.45594000000E+02  0.51100000000E-03 0. -1.
    9900012    2    1    2    0    0  0.25024855395E+02  0.31668276370E+02  0.49033265857E+01  0.50528859240E+02  0.29999998145E+02 0.  0.
         12    1    1    2    0    0 -0.25024855395E+02 -0.31668276370E+02 -0.49033265857E+01  0.40659140760E+02  0.00000000000E+00 0. -1.
         11    1    3    3    0    0  0.81515342000E+01  0.12406205833E+02  0.63761203262E+00  0.14858263773E+02  0.51100000000E-03 0. -1.
        -11    1    3    3    0    0  0.12710787442E+02  0.93840371797E+01  0.14060706463E+02  0.21150123823E+02  0.51100000000E-03 0.  1.
         12    1    3    3    0    0  0.41625337521E+01  0.98780333571E+01 -0.97949919104E+01  0.14520471644E+02  0.00000000000E+00 0. -1.
</event>
<event>
 7    1  0.4836188E-013  0.5052887E+02  0.7816164E-02  0.1300439E+00
        -11   -1    0    0    0    0  0.00000000000E+00  0.00000000000E+00  0.45593999997E+02  0.45594000000E+02  0.51100000000E-03 0.  1.
         11   -1    0    0    0    0 -0.00000000000E+00 -0.00000000000E+00 -0.45593999997E+02  0.45594000000E+02  0.51100000000E-03 0. -1.
    9900012    2    1    2    0    0  0.20759085530E+02  0.22724194633E+02  0.26567583158E+02  0.50528866603E+02  0.30000020526E+02 0.  0.
         12    1    1    2    0    0 -0.20759085530E+02 -0.22724194633E+02 -0.26567583158E+02  0.40659133397E+02  0.00000000000E+00 0. -1.
         11    1    3    3    0    0  0.72011825658E+01  0.59466039074E+01 -0.19755278718E+01  0.95457759774E+01  0.51100000000E-03 0. -1.
        -11    1    3    3    0    0 -0.42308742058E+01  0.28182197590E+01  0.72646686678E+00  0.51352130944E+01  0.51100000000E-03 0.  1.
        -12    1    3    3    0    0  0.17788777170E+02  0.13959370967E+02  0.27816644163E+02  0.35847877531E+02  0.00000000000E+00 0.  1.
</event>
<event>
 7    1  0.4836188E-013  0.5052885E+02  0.7816164E-02  0.1300439E+00
        -11   -1    0    0    0    0  0.00000000000E+00  0.00000000000E+00  0.45593999997E+02  0.45594000000E+02  0.51100000000E-03 0.  1.
         11   -1    0    0    0    0 -0.00000000000E+00 -0.00000000000E+00 -0.45593999997E+02  0.45594000000E+02  0.51100000000E-03 0. -1.
    9900012    2    1    2    0    0 -0.32565205245E+02  0.24322650863E+02  0.10403703298E+01  0.50528852098E+02  0.29999976438E+02 0.  0.
         12    1    1    2    0    0  0.32565205245E+02 -0.24322650863E+02 -0.10403703298E+01  0.40659147902E+02  0.00000000000E+00 0. -1.
         11    1    3    3    0    0 -0.11884203526E+01  0.10354511336E+02  0.11231162596E+01  0.10482825876E+02  0.51100000000E-03 0.  1.
        -11    1    3    3    0    0 -0.47406610751E+01 -0.19126486540E+01  0.65749670847E+01  0.83284022915E+01  0.51100000000E-03 0. -1.
         12    1    3    3    0    0 -0.26636123818E+02  0.15880788180E+02 -0.66577130145E+01  0.31717623931E+02  0.00000000000E+00 0. -1.
</event>
<event>
 7    1  0.4836188E-013  0.5052885E+02  0.7816164E-02  0.1300439E+00
        -11   -1    0    0    0    0  0.00000000000E+00  0.00000000000E+00  0.45593999997E+02  0.45594000000E+02  0.51100000000E-03 0. -1.
         11   -1    0    0    0    0 -0.00000000000E+00 -0.00000000000E+00 -0.45593999997E+02  0.45594000000E+02  0.51100000000E-03 0.  1.
    9900012    2    1    2    0    0  0.98756076633E+01  0.34923493666E+02 -0.18329976476E+02  0.50528854975E+02  0.29999985183E+02 0.  0.
         12    1    1    2    0    0 -0.98756076633E+01 -0.34923493666E+02  0.18329976476E+02  0.40659145025E+02  0.00000000000E+00 0. -1.
         11    1    3    3    0    0  0.18286081710E+01 -0.13133272976E+01 -0.69969283330E+01  0.73502137923E+01  0.51100000000E-03 0. -1.
        -11    1    3    3    0    0  0.35134843971E+01  0.24199986173E+02 -0.16302533820E+02  0.29389734816E+02  0.51100000000E-03 0.  1.
         12    1    3    3    0    0  0.45335150952E+01  0.12036834790E+02  0.49694856771E+01  0.13788906367E+02  0.00000000000E+00 0. -1.
</event>
<event>
 7    1  0.4836188E-013  0.5052886E+02  0.7816164E-02  0.1300439E+00
        -11   -1    0    0    0    0  0.00000000000E+00  0.00000000000E+00  0.45593999997E+02  0.45594000000E+02  0.51100000000E-03 0. -1.
         11   -1    0    0    0    0 -0.00000000000E+00 -0.00000000000E+00 -0.45593999997E+02  0.45594000000E+02  0.51100000000E-03 0.  1.
    9900012    2    1    2    0    0  0.25816880609E+02 -0.44059314977E+01 -0.31100516068E+02  0.50528860112E+02  0.30000000797E+02 0.  0.
         12    1    1    2    0    0 -0.25816880609E+02  0.44059314977E+01  0.31100516068E+02  0.40659139888E+02  0.00000000000E+00 0. -1.
         11    1    3    3    0    0  0.32711789203E+00 -0.57157641542E+01 -0.12745028380E+01  0.58652641652E+01  0.51100000000E-03 0. -1.
        -11    1    3    3    0    0  0.22531625422E+02 -0.68805617494E+01 -0.16567471157E+02  0.28800996075E+02  0.51100000000E-03 0.  1.
         12    1    3    3    0    0  0.29581372949E+01  0.81903944060E+01 -0.13258542073E+02  0.15862599872E+02  0.00000000000E+00 0. -1.
</event>
<event>
 7    1  0.4836188E-013  0.5052887E+02  0.7816164E-02  0.1300439E+00
        -11   -1    0    0    0    0  0.00000000000E+00  0.00000000000E+00  0.45593999997E+02  0.45594000000E+02  0.51100000000E-03 0. -1.
         11   -1    0    0    0    0 -0.00000000000E+00 -0.00000000000E+00 -0.45593999997E+02  0.45594000000E+02  0.51100000000E-03 0.  1.
    9900012    2    1    2    0    0 -0.34328707328E+02  0.15100708390E+02 -0.15705827442E+02  0.50528873640E+02  0.30000041917E+02 0.  0.
         12    1    1    2    0    0  0.34328707328E+02 -0.15100708390E+02  0.15705827442E+02  0.40659126360E+02  0.00000000000E+00 0. -1.
         11    1    3    3    0    0  0.39377816763E+01  0.28403002950E+01 -0.15253775149E+01  0.50892246089E+01  0.51100000000E-03 0. -1.
        -11    1    3    3    0    0 -0.80659265474E+01  0.65150941680E+01  0.22094504840E+01  0.10601287412E+02  0.51100000000E-03 0.  1.
         12    1    3    3    0    0 -0.30200562457E+02  0.57453139266E+01 -0.16389900411E+02  0.34838361619E+02  0.00000000000E+00 0. -1.
</event>
<event>
 7    1  0.4836188E-013  0.5052886E+02  0.7816164E-02  0.1300439E+00
        -11   -1    0    0    0    0  0.00000000000E+00  0.00000000000E+00  0.45593999997E+02  0.45594000000E+02  0.51100000000E-03 0.  1.
         11   -1    0    0    0    0 -0.00000000000E+00 -0.00000000000E+00 -0.45593999997E+02  0.45594000000E+02  0.51100000000E-03 0. -1.
    9900012    2    1    2    0    0  0.13370552479E+02 -0.33843258214E+02  0.18139132656E+02  0.50528856703E+02  0.29999990434E+02 0.  0.
         12    1    1    2    0    0 -0.13370552479E+02  0.33843258214E+02 -0.18139132656E+02  0.40659143297E+02  0.00000000000E+00 0. -1.
         11    1    3    3    0    0  0.68224718103E+01 -0.20739146336E+02 -0.11485629899E+01  0.21862696759E+02  0.51100000000E-03 0. -1.
        -11    1    3    3    0    0  0.10960712049E+01  0.18726071243E+01 -0.13764360755E+01  0.25695536692E+01  0.51100000000E-03 0.  1.
        -12    1    3    3    0    0  0.54520094640E+01 -0.14976719002E+02  0.20664131722E+02  0.26096606275E+02  0.00000000000E+00 0.  1.
</event>
<event>
 7    1  0.4836188E-013  0.5052886E+02  0.7816164E-02  0.1300439E+00
        -11   -1    0    0    0    0  0.00000000000E+00  0.00000000000E+00  0.45593999997E+02  0.45594000000E+02  0.51100000000E-03 0.  1.
         11   -1    0    0    0    0 -0.00000000000E+00 -0.00000000000E+00 -0.45593999997E+02  0.45594000000E+02  0.51100000000E-03 0. -1.
    9900012    2    1    2    0    0 -0.32283817320E+02  0.15221427280E+02  0.19473811192E+02  0.50528855499E+02  0.29999986775E+02 0.  0.
         12    1    1    2    0    0  0.32283817320E+02 -0.15221427280E+02 -0.19473811192E+02  0.40659144501E+02  0.00000000000E+00 0. -1.
         11    1    3    3    0    0  0.24669801790E-01  0.18654435186E+01  0.69604362025E+01  0.72061196570E+01  0.51100000000E-03 0. -1.
        -11    1    3    3    0    0 -0.15119218006E+02 -0.30547034008E+01  0.12015569506E+02  0.19552388007E+02  0.51100000000E-03 0.  1.
        -12    1    3    3    0    0 -0.17189269116E+02  0.16410687162E+02  0.49780548394E+00  0.23770347835E+02  0.00000000000E+00 0.  1.
</event>
<event>
 7    1  0.4836188E-013  0.5052886E+02  0.7816164E-02  0.1300439E+00
        -11   -1    0    0    0    0  0.00000000000E+00  0.00000000000E+00  0.45593999997E+02  0.45594000000E+02  0.51100000000E-03 0. -1.
         11   -1    0    0    0    0 -0.00000000000E+00 -0.00000000000E+00 -0.45593999997E+02  0.45594000000E+02  0.51100000000E-03 0.  1.
    9900012    2    1    2    0    0 -0.26761616643E+02 -0.64188901224E+00 -0.30603425317E+02  0.50528858495E+02  0.29999995881E+02 0.  0.
         12    1    1    2    0    0  0.26761616643E+02  0.64188901224E+00  0.30603425317E+02  0.40659141505E+02  0.00000000000E+00 0. -1.
         11    1    3    3    0    0 -0.76040801777E+01  0.95614662942E+01 -0.94927417207E+01  0.15471128552E+02  0.51100000000E-03 0. -1.
        -11    1    3    3    0    0 -0.13475486570E+02 -0.64537966295E+00 -0.30228614178E+01  0.13825445549E+02  0.51100000000E-03 0.  1.
         12    1    3    3    0    0 -0.56820498943E+01 -0.95579756435E+01 -0.18087822178E+02  0.21232284393E+02  0.00000000000E+00 0. -1.
</event>
<event>
 7    1  0.4836188E-013  0.5052885E+02  0.7816164E-02  0.1300439E+00
        -11   -1    0    0    0    0  0.00000000000E+00  0.00000000000E+00  0.45593999997E+02  0.45594000000E+02  0.51100000000E-03 0. -1.
         11   -1    0    0    0    0 -0.00000000000E+00 -0.00000000000E+00 -0.45593999997E+02  0.45594000000E+02  0.51100000000E-03 0.  1.
    9900012    2    1    2    0    0 -0.32480229091E+02  0.82290634039E+01  0.23032226203E+02  0.50528853302E+02  0.29999980098E+02 0.  0.
         12    1    1    2    0    0  0.32480229091E+02 -0.82290634039E+01 -0.23032226203E+02  0.40659146698E+02  0.00000000000E+00 0. -1.
         11    1    3    3    0    0  0.16604360013E+01 -0.43681211109E+01 -0.22586594954E+00  0.46785195780E+01  0.51100000000E-03 0. -1.
        -11    1    3    3    0    0 -0.16931069443E+02  0.59953016496E+01  0.20429069536E+02  0.27202052068E+02  0.51100000000E-03 0.  1.
         12    1    3    3    0    0 -0.17209595649E+02  0.66018828652E+01  0.28290226172E+01  0.18648281657E+02  0.00000000000E+00 0. -1.
</event>
<event>
 7    1  0.4836188E-013  0.5052883E+02  0.7816164E-02  0.1300439E+00
        -11   -1    0    0    0    0  0.00000000000E+00  0.00000000000E+00  0.45593999997E+02  0.45594000000E+02  0.51100000000E-03 0.  1.
         11   -1    0    0    0    0 -0.00000000000E+00 -0.00000000000E+00 -0.45593999997E+02  0.45594000000E+02  0.51100000000E-03 0. -1.
    9900012    2    1    2    0    0 -0.39881482740E+02 -0.29019192538E+01  0.73630454536E+01  0.50528828351E+02  0.29999904254E+02 0.  0.
         12    1    1    2    0    0  0.39881482740E+02  0.29019192538E+01 -0.73630454536E+01  0.40659171649E+02  0.00000000000E+00 0. -1.
         11    1    3    3    0    0  0.71521822812E-01  0.17208313271E+01  0.82053257546E-02  0.17223366152E+01  0.51100000000E-03 0. -1.
        -11    1    3    3    0    0 -0.32410975394E+02 -0.59797598340E+01 -0.59134072402E+01  0.33484283464E+02  0.51100000000E-03 0.  1.
        -12    1    3    3    0    0 -0.75420291688E+01  0.13570092531E+01  0.13268247368E+02  0.15322208271E+02  0.00000000000E+00 0.  1.
</event>
<event>
 7    1  0.4836188E-013  0.5052887E+02  0.7816164E-02  0.1300439E+00
        -11   -1    0    0    0    0  0.00000000000E+00  0.00000000000E+00  0.45593999997E+02  0.45594000000E+02  0.51100000000E-03 0.  1.
         11   -1    0    0    0    0 -0.00000000000E+00 -0.00000000000E+00 -0.45593999997E+02  0.45594000000E+02  0.51100000000E-03 0. -1.
    9900012    2    1    2    0    0  0.22673865054E+02 -0.20591088559E+02  0.26740744992E+02  0.50528873998E+02  0.30000043004E+02 0.  0.
         12    1    1    2    0    0 -0.22673865054E+02  0.20591088559E+02 -0.26740744992E+02  0.40659126002E+02  0.00000000000E+00 0. -1.
         11    1    3    3    0    0 -0.34777102011E+01 -0.40455191834E+01 -0.16958108166E+01  0.55978985604E+01  0.51100000000E-03 0.  1.
        -11    1    3    3    0    0  0.64442766381E+01 -0.12527909077E+01 -0.66849057710E+00  0.65988685666E+01  0.51100000000E-03 0. -1.
        -12    1    3    3    0    0  0.19707298617E+02 -0.15292778468E+02  0.29105046386E+02  0.38332106871E+02  0.00000000000E+00 0.  1.
</event>
<event>
 7    1  0.4836188E-013  0.5052886E+02  0.7816164E-02  0.1300439E+00
        -11   -1    0    0    0    0  0.00000000000E+00  0.00000000000E+00  0.45593999997E+02  0.45594000000E+02  0.51100000000E-03 0. -1.
         11   -1    0    0    0    0 -0.00000000000E+00 -0.00000000000E+00 -0.45593999997E+02  0.45594000000E+02  0.51100000000E-03 0.  1.
    9900012    2    1    2    0    0  0.11871447568E+02 -0.41823260363E+01 -0.38661895841E+02  0.50528864392E+02  0.30000013805E+02 0.  0.
         12    1    1    2    0    0 -0.11871447568E+02  0.41823260363E+01  0.38661895841E+02  0.40659135608E+02  0.00000000000E+00 0. -1.
         11    1    3    3    0    0 -0.57996773164E+00  0.16792693004E+00  0.30405754674E+01  0.30999453959E+01  0.51100000000E-03 0. -1.
        -11    1    3    3    0    0 -0.28371004626E+01 -0.60685658816E+01 -0.17633252910E+02  0.18862879932E+02  0.51100000000E-03 0.  1.
        -12    1    3    3    0    0  0.15288515762E+02  0.17183129152E+01 -0.24069218398E+02  0.28566039063E+02  0.00000000000E+00 0.  1.
</event>
<event>
 7    1  0.4836188E-013  0.5052886E+02  0.7816164E-02  0.1300439E+00
        -11   -1    0    0    0    0  0.00000000000E+00  0.00000000000E+00  0.45593999997E+02  0.45594000000E+02  0.51100000000E-03 0.  1.
         11   -1    0    0    0    0 -0.00000000000E+00 -0.00000000000E+00 -0.45593999997E+02  0.45594000000E+02  0.51100000000E-03 0. -1.
    9900012    2    1    2    0    0  0.24999213231E+02 -0.32011101415E+02 -0.18692389614E+01  0.50528864123E+02  0.30000012989E+02 0.  0.
         12    1    1    2    0    0 -0.24999213231E+02  0.32011101415E+02  0.18692389614E+01  0.40659135877E+02  0.00000000000E+00 0. -1.
         11    1    3    3    0    0  0.34457093305E+01 -0.27682655981E+01 -0.42272040694E+01  0.61160004675E+01  0.51100000000E-03 0. -1.
        -11    1    3    3    0    0 -0.28336798652E+01 -0.88485986431E+00 -0.54486189209E+01  0.62048502773E+01  0.51100000000E-03 0.  1.
        -12    1    3    3    0    0  0.24387183766E+02 -0.28357975952E+02  0.78065840288E+01  0.38208013378E+02  0.00000000000E+00 0.  1.
</event>
<event>
 7    1  0.4836188E-013  0.5052886E+02  0.7816164E-02  0.1300439E+00
        -11   -1    0    0    0    0  0.00000000000E+00  0.00000000000E+00  0.45593999997E+02  0.45594000000E+02  0.51100000000E-03 0. -1.
         11   -1    0    0    0    0 -0.00000000000E+00 -0.00000000000E+00 -0.45593999997E+02  0.45594000000E+02  0.51100000000E-03 0.  1.
    9900012    2    1    2    0    0 -0.32945325984E+02 -0.90832940499E+01 -0.22028722494E+02  0.50528863884E+02  0.30000012261E+02 0.  0.
         12    1    1    2    0    0  0.32945325984E+02  0.90832940499E+01  0.22028722494E+02  0.40659136116E+02  0.00000000000E+00 0. -1.
         11    1    3    3    0    0 -0.21366185473E+02 -0.38948950776E+01 -0.11427126347E+02  0.24541053485E+02  0.51100000000E-03 0. -1.
        -11    1    3    3    0    0 -0.12005313471E+02  0.50526024255E+01 -0.34022703763E+01  0.13462235579E+02  0.51100000000E-03 0.  1.
        -12    1    3    3    0    0  0.42617296010E+00 -0.10241001398E+02 -0.71993257706E+01  0.12525574820E+02  0.00000000000E+00 0.  1.
</event>
<event>
 7    1  0.4836188E-013  0.5052886E+02  0.7816164E-02  0.1300439E+00
        -11   -1    0    0    0    0  0.00000000000E+00  0.00000000000E+00  0.45593999997E+02  0.45594000000E+02  0.51100000000E-03 0.  1.
         11   -1    0    0    0    0 -0.00000000000E+00 -0.00000000000E+00 -0.45593999997E+02  0.45594000000E+02  0.51100000000E-03 0. -1.
    9900012    2    1    2    0    0 -0.99417741926E+01  0.38642995559E+02  0.78131478580E+01  0.50528864996E+02  0.30000015641E+02 0.  0.
         12    1    1    2    0    0  0.99417741926E+01 -0.38642995559E+02 -0.78131478580E+01  0.40659135004E+02  0.00000000000E+00 0. -1.
         11    1    3    3    0    0 -0.42664056388E+01  0.17279113147E+02  0.54284972537E-01  0.17798115500E+02  0.51100000000E-03 0.  1.
        -11    1    3    3    0    0 -0.38264460896E+01  0.18749372048E+02  0.15324245162E+02  0.24515569174E+02  0.51100000000E-03 0. -1.
         12    1    3    3    0    0 -0.18489224642E+01  0.26145103633E+01 -0.75653822769E+01  0.82151803215E+01  0.00000000000E+00 0. -1.
</event>
<event>
 7    1  0.4836188E-013  0.5052886E+02  0.7816164E-02  0.1300439E+00
        -11   -1    0    0    0    0  0.00000000000E+00  0.00000000000E+00  0.45593999997E+02  0.45594000000E+02  0.51100000000E-03 0. -1.
         11   -1    0    0    0    0 -0.00000000000E+00 -0.00000000000E+00 -0.45593999997E+02  0.45594000000E+02  0.51100000000E-03 0.  1.
    9900012    2    1    2    0    0 -0.34328259717E+02 -0.64389873768E+01 -0.20815270259E+02  0.50528862656E+02  0.30000008528E+02 0.  0.
         12    1    1    2    0    0  0.34328259717E+02  0.64389873768E+01  0.20815270259E+02  0.40659137344E+02  0.00000000000E+00 0. -1.
         11    1    3    3    0    0 -0.63975815655E+00 -0.96224121798E+01 -0.70495547257E+01  0.11945556862E+02  0.51100000000E-03 0. -1.
        -11    1    3    3    0    0 -0.11235468979E+02 -0.42846382390E+01 -0.72457626227E+01  0.14039051402E+02  0.51100000000E-03 0.  1.
         12    1    3    3    0    0 -0.22453032581E+02  0.74680630420E+01 -0.65199529110E+01  0.24544254392E+02  0.00000000000E+00 0. -1.
</event>
<event>
 7    1  0.4836188E-013  0.5052885E+02  0.7816164E-02  0.1300439E+00
        -11   -1    0    0    0    0  0.00000000000E+00  0.00000000000E+00  0.45593999997E+02  0.45594000000E+02  0.51100000000E-03 0. -1.
         11   -1    0    0    0    0 -0.00000000000E+00 -0.00000000000E+00 -0.45593999997E+02  0.45594000000E+02  0.51100000000E-03 0.  1.
    9900012    2    1    2    0    0 -0.36695920879E+02  0.17505802961E+02  0.35018384986E+00  0.50528851273E+02  0.29999973929E+02 0.  0.
         12    1    1    2    0    0  0.36695920879E+02 -0.17505802961E+02 -0.35018384986E+00  0.40659148727E+02  0.00000000000E+00 0. -1.
         11    1    3    3    0    0 -0.38125902769E+01  0.13681826657E+02 -0.25120011692E+01  0.14423535469E+02  0.51100000000E-03 0. -1.
        -11    1    3    3    0    0 -0.17274218221E+02  0.80510716141E+01 -0.21398130837E+01  0.19178038731E+02  0.51100000000E-03 0.  1.
         12    1    3    3    0    0 -0.15609112381E+02 -0.42270953097E+01  0.50019981028E+01  0.16927277073E+02  0.00000000000E+00 0. -1.
</event>
<event>
 7    1  0.4836188E-013  0.5052886E+02  0.7816164E-02  0.1300439E+00
        -11   -1    0    0    0    0  0.00000000000E+00  0.00000000000E+00  0.45593999997E+02  0.45594000000E+02  0.51100000000E-03 0.  1.
         11   -1    0    0    0    0 -0.00000000000E+00 -0.00000000000E+00 -0.45593999997E+02  0.45594000000E+02  0.51100000000E-03 0. -1.
    9900012    2    1    2    0    0  0.44867582986E+01  0.36383886759E+01  0.40246703693E+02  0.50528855514E+02  0.29999986820E+02 0.  0.
         12    1    1    2    0    0 -0.44867582986E+01 -0.36383886759E+01 -0.40246703693E+02  0.40659144486E+02  0.00000000000E+00 0. -1.
         11    1    3    3    0    0  0.65014196809E+00  0.10097889304E+02  0.26714235886E+02  0.28566421761E+02  0.51100000000E-03 0. -1.
        -11    1    3    3    0    0  0.73502486894E+01  0.21505886037E+01  0.39796753402E+01  0.86307012005E+01  0.51100000000E-03 0.  1.
         12    1    3    3    0    0 -0.35136323589E+01 -0.86100892321E+01  0.95527924668E+01  0.13331732553E+02  0.00000000000E+00 0. -1.
</event>
<event>
 7    1  0.4836188E-013  0.5052886E+02  0.7816164E-02  0.1300439E+00
        -11   -1    0    0    0    0  0.00000000000E+00  0.00000000000E+00  0.45593999997E+02  0.45594000000E+02  0.51100000000E-03 0.  1.
         11   -1    0    0    0    0 -0.00000000000E+00 -0.00000000000E+00 -0.45593999997E+02  0.45594000000E+02  0.51100000000E-03 0. -1.
    9900012    2    1    2    0    0 -0.52254260918E+01  0.92785205699E+01  0.39239898626E+02  0.50528859994E+02  0.30000000439E+02 0.  0.
         12    1    1    2    0    0  0.52254260918E+01 -0.92785205699E+01 -0.39239898626E+02  0.40659140006E+02  0.00000000000E+00 0. -1.
         11    1    3    3    0    0  0.69076896827E+01 -0.53090126631E+01  0.66655942424E+01  0.10969591564E+02  0.51100000000E-03 0. -1.
        -11    1    3    3    0    0 -0.25014290201E+01  0.10730894044E+02  0.10747739804E+02  0.15392307991E+02  0.51100000000E-03 0.  1.
        -12    1    3    3    0    0 -0.96316867543E+01  0.38566391893E+01  0.21826564580E+02  0.24166960440E+02  0.00000000000E+00 0.  1.
</event>
<event>
 7    1  0.4836188E-013  0.5052885E+02  0.7816164E-02  0.1300439E+00
        -11   -1    0    0    0    0  0.00000000000E+00  0.00000000000E+00  0.45593999997E+02  0.45594000000E+02  0.51100000000E-03 0.  1.
         11   -1    0    0    0    0 -0.00000000000E+00 -0.00000000000E+00 -0.45593999997E+02  0.45594000000E+02  0.51100000000E-03 0. -1.
    9900012    2    1    2    0    0  0.23449925439E+02  0.13494091429E+02  0.30350902359E+02  0.50528846288E+02  0.29999958776E+02 0.  0.
         12    1    1    2    0    0 -0.23449925439E+02 -0.13494091429E+02 -0.30350902359E+02  0.40659153712E+02  0.00000000000E+00 0. -1.
         11    1    3    3    0    0  0.13883115357E+02  0.13444189803E+02  0.22130407956E+02  0.29380981740E+02  0.51100000000E-03 0. -1.
        -11    1    3    3    0    0  0.10774126832E+02  0.63076329324E+01  0.28316212651E+01  0.12801801492E+02  0.51100000000E-03 0.  1.
         12    1    3    3    0    0 -0.12073167500E+01 -0.62577313056E+01  0.53888731377E+01  0.83460630552E+01  0.00000000000E+00 0. -1.
</event>
<event>
 7    1  0.4836188E-013  0.5052885E+02  0.7816164E-02  0.1300439E+00
        -11   -1    0    0    0    0  0.00000000000E+00  0.00000000000E+00  0.45593999997E+02  0.45594000000E+02  0.51100000000E-03 0.  1.
         11   -1    0    0    0    0 -0.00000000000E+00 -0.00000000000E+00 -0.45593999997E+02  0.45594000000E+02  0.51100000000E-03 0. -1.
    9900012    2    1    2    0    0 -0.12625911537E+02 -0.37787442113E+02  0.81155268573E+01  0.50528853431E+02  0.29999980488E+02 0.  0.
         12    1    1    2    0    0  0.12625911537E+02  0.37787442113E+02 -0.81155268573E+01  0.40659146569E+02  0.00000000000E+00 0. -1.
         11    1    3    3    0    0  0.51493380725E+00  0.81734068226E+00 -0.24914924921E+01  0.26722158813E+01  0.51100000000E-03 0. -1.
        -11    1    3    3    0    0  0.11900245972E+01 -0.20636462963E+02 -0.33895653275E+01  0.20946811584E+02  0.51100000000E-03 0.  1.
        -12    1    3    3    0    0 -0.14330869942E+02 -0.17968319832E+02  0.13996584677E+02  0.26909825966E+02  0.00000000000E+00 0.  1.
</event>
<event>
 7    1  0.4836188E-013  0.5052886E+02  0.7816164E-02  0.1300439E+00
        -11   -1    0    0    0    0  0.00000000000E+00  0.00000000000E+00  0.45593999997E+02  0.45594000000E+02  0.51100000000E-03 0.  1.
         11   -1    0    0    0    0 -0.00000000000E+00 -0.00000000000E+00 -0.45593999997E+02  0.45594000000E+02  0.51100000000E-03 0. -1.
    9900012    2    1    2    0    0  0.18896188038E+01 -0.19521546957E+02  0.35616067071E+02  0.50528859719E+02  0.29999999602E+02 0.  0.
         12    1    1    2    0    0 -0.18896188038E+01  0.19521546957E+02 -0.35616067071E+02  0.40659140281E+02  0.00000000000E+00 0. -1.
         11    1    3    3    0    0 -0.50096176655E+01 -0.58986284540E+01 -0.60832510758E+00  0.77627409135E+01  0.51100000000E-03 0. -1.
        -11    1    3    3    0    0  0.13563190378E+01 -0.11790762243E+02  0.89258593056E+01  0.14850341417E+02  0.51100000000E-03 0.  1.
         12    1    3    3    0    0  0.55429174315E+01 -0.18321562602E+01  0.27298532872E+02  0.27915777389E+02  0.00000000000E+00 0. -1.
</event>
<event>
 7    1  0.4836188E-013  0.5052877E+02  0.7816164E-02  0.1300439E+00
        -11   -1    0    0    0    0  0.00000000000E+00  0.00000000000E+00  0.45593999997E+02  0.45594000000E+02  0.51100000000E-03 0.  1.
         11   -1    0    0    0    0 -0.00000000000E+00 -0.00000000000E+00 -0.45593999997E+02  0.45594000000E+02  0.51100000000E-03 0. -1.
    9900012    2    1    2    0    0 -0.10204895562E+02 -0.30543056506E+02  0.24822471492E+02  0.50528766299E+02  0.29999715641E+02 0.  0.
         12    1    1    2    0    0  0.10204895562E+02  0.30543056506E+02 -0.24822471492E+02  0.40659233701E+02  0.00000000000E+00 0. -1.
         11    1    3    3    0    0  0.18342361338E+01 -0.87973031919E+01  0.92761826650E+01  0.12915282836E+02  0.51100000000E-03 0. -1.
        -11    1    3    3    0    0  0.11808035558E+01 -0.94371638629E+01  0.17013216268E+02  0.19491123284E+02  0.51100000000E-03 0.  1.
        -12    1    3    3    0    0 -0.13219935252E+02 -0.12308589451E+02 -0.14669274410E+01  0.18122360179E+02  0.00000000000E+00 0.  1.
</event>
<event>
 7    1  0.4836188E-013  0.5052885E+02  0.7816164E-02  0.1300439E+00
        -11   -1    0    0    0    0  0.00000000000E+00  0.00000000000E+00  0.45593999997E+02  0.45594000000E+02  0.51100000000E-03 0.  1.
         11   -1    0    0    0    0 -0.00000000000E+00 -0.00000000000E+00 -0.45593999997E+02  0.45594000000E+02  0.51100000000E-03 0. -1.
    9900012    2    1    2    0    0 -0.95321056099E+01 -0.36051767031E+02  0.16204181854E+02  0.50528850317E+02  0.29999971022E+02 0.  0.
         12    1    1    2    0    0  0.95321056099E+01  0.36051767031E+02 -0.16204181854E+02  0.40659149683E+02  0.00000000000E+00 0. -1.
         11    1    3    3    0    0  0.32624161992E+01 -0.70621199819E+01 -0.39046225798E+01  0.87041930038E+01  0.51100000000E-03 0. -1.
        -11    1    3    3    0    0 -0.47408031724E+01  0.14275335606E+01  0.11287763815E+01  0.50781101964E+01  0.51100000000E-03 0.  1.
        -12    1    3    3    0    0 -0.80537186368E+01 -0.30417180610E+02  0.18980028052E+02  0.36746547117E+02  0.00000000000E+00 0.  1.
</event>
<event>
 7    1  0.4836188E-013  0.5052886E+02  0.7816164E-02  0.1300439E+00
        -11   -1    0    0    0    0  0.00000000000E+00  0.00000000000E+00  0.45593999997E+02  0.45594000000E+02  0.51100000000E-03 0.  1.
         11   -1    0    0    0    0 -0.00000000000E+00 -0.00000000000E+00 -0.45593999997E+02  0.45594000000E+02  0.51100000000E-03 0. -1.
    9900012    2    1    2    0    0  0.11059996880E+02  0.22622882030E+02  0.31922515718E+02  0.50528864101E+02  0.30000012920E+02 0.  0.
         12    1    1    2    0    0 -0.11059996880E+02 -0.22622882030E+02 -0.31922515718E+02  0.40659135899E+02  0.00000000000E+00 0. -1.
         11    1    3    3    0    0  0.81692951948E+01  0.62373801968E+01  0.17817631664E+01  0.10431537564E+02  0.51100000000E-03 0.  1.
        -11    1    3    3    0    0  0.41108119269E+00  0.16792123441E+02  0.94866833033E+01  0.19290970887E+02  0.51100000000E-03 0. -1.
         12    1    3    3    0    0  0.24796204921E+01 -0.40662160759E+00  0.20654069249E+02  0.20806355650E+02  0.00000000000E+00 0. -1.
</event>
<event>
 7    1  0.4836188E-013  0.5052886E+02  0.7816164E-02  0.1300439E+00
        -11   -1    0    0    0    0  0.00000000000E+00  0.00000000000E+00  0.45593999997E+02  0.45594000000E+02  0.51100000000E-03 0. -1.
         11   -1    0    0    0    0 -0.00000000000E+00 -0.00000000000E+00 -0.45593999997E+02  0.45594000000E+02  0.51100000000E-03 0.  1.
    9900012    2    1    2    0    0  0.30577276278E+01 -0.38587430097E+02  0.12442913210E+02  0.50528861435E+02  0.30000004817E+02 0.  0.
         12    1    1    2    0    0 -0.30577276278E+01  0.38587430097E+02 -0.12442913210E+02  0.40659138565E+02  0.00000000000E+00 0. -1.
         11    1    3    3    0    0  0.11938345321E+01 -0.11548311482E+02  0.18409123310E+01  0.11754900997E+02  0.51100000000E-03 0. -1.
        -11    1    3    3    0    0 -0.58618213166E+01 -0.12475798419E+02  0.16285607172E+02  0.21336060943E+02  0.51100000000E-03 0.  1.
         12    1    3    3    0    0  0.77257144123E+01 -0.14563320196E+02 -0.56836062926E+01  0.17437899495E+02  0.00000000000E+00 0. -1.
</event>
<event>
 7    1  0.4836188E-013  0.5052886E+02  0.7816164E-02  0.1300439E+00
        -11   -1    0    0    0    0  0.00000000000E+00  0.00000000000E+00  0.45593999997E+02  0.45594000000E+02  0.51100000000E-03 0. -1.
         11   -1    0    0    0    0 -0.00000000000E+00 -0.00000000000E+00 -0.45593999997E+02  0.45594000000E+02  0.51100000000E-03 0.  1.
    9900012    2    1    2    0    0  0.49899944543E+01  0.15917474669E+01 -0.40320368443E+02  0.50528858149E+02  0.29999994830E+02 0.  0.
         12    1    1    2    0    0 -0.49899944543E+01 -0.15917474669E+01  0.40320368443E+02  0.40659141851E+02  0.00000000000E+00 0. -1.
         11    1    3    3    0    0  0.27616903291E+01  0.54234850036E+01 -0.10151917604E+01  0.61702299495E+01  0.51100000000E-03 0. -1.
        -11    1    3    3    0    0  0.47980889674E+01  0.72589448888E+01 -0.21851577402E+02  0.23520318320E+02  0.51100000000E-03 0.  1.
         12    1    3    3    0    0 -0.25697848422E+01 -0.11090682425E+02 -0.17453599281E+02  0.20838309880E+02  0.00000000000E+00 0. -1.
</event>
<event>
 7    1  0.4836188E-013  0.5052886E+02  0.7816164E-02  0.1300439E+00
        -11   -1    0    0    0    0  0.00000000000E+00  0.00000000000E+00  0.45593999997E+02  0.45594000000E+02  0.51100000000E-03 0. -1.
         11   -1    0    0    0    0 -0.00000000000E+00 -0.00000000000E+00 -0.45593999997E+02  0.45594000000E+02  0.51100000000E-03 0.  1.
    9900012    2    1    2    0    0 -0.26590553048E+02  0.29582505731E+02  0.84251499628E+01  0.50528864389E+02  0.30000013795E+02 0.  0.
         12    1    1    2    0    0  0.26590553048E+02 -0.29582505731E+02 -0.84251499628E+01  0.40659135611E+02  0.00000000000E+00 0. -1.
         11    1    3    3    0    0 -0.43344217397E+01  0.33808853024E+01  0.82888782158E+01  0.99460092290E+01  0.51100000000E-03 0. -1.
        -11    1    3    3    0    0 -0.23284846242E+02  0.29235426656E+02 -0.30197035631E-01  0.37375060513E+02  0.51100000000E-03 0.  1.
         12    1    3    3    0    0  0.10287149333E+01 -0.30338062268E+01  0.16646878257E+00  0.32077946461E+01  0.00000000000E+00 0. -1.
</event>
<event>
 7    1  0.4836188E-013  0.5052883E+02  0.7816164E-02  0.1300439E+00
        -11   -1    0    0    0    0  0.00000000000E+00  0.00000000000E+00  0.45593999997E+02  0.45594000000E+02  0.51100000000E-03 0. -1.
         11   -1    0    0    0    0 -0.00000000000E+00 -0.00000000000E+00 -0.45593999997E+02  0.45594000000E+02  0.51100000000E-03 0.  1.
    9900012    2    1    2    0    0 -0.95828482877E+01  0.39461588294E+02 -0.20297610285E+01  0.50528832992E+02  0.29999918362E+02 0.  0.
         12    1    1    2    0    0  0.95828482877E+01 -0.39461588294E+02  0.20297610285E+01  0.40659167008E+02  0.00000000000E+00 0. -1.
         11    1    3    3    0    0 -0.44867723694E+01  0.88162253704E+01  0.17618820849E+01  0.10047944308E+02  0.51100000000E-03 0.  1.
        -11    1    3    3    0    0 -0.14804970933E+02  0.21191155211E+02 -0.65138323345E+01  0.26658624035E+02  0.51100000000E-03 0. -1.
         12    1    3    3    0    0  0.97088950143E+01  0.94542077121E+01  0.27221892210E+01  0.13822264649E+02  0.00000000000E+00 0. -1.
</event>
<event>
 7    1  0.4836188E-013  0.5052886E+02  0.7816164E-02  0.1300439E+00
        -11   -1    0    0    0    0  0.00000000000E+00  0.00000000000E+00  0.45593999997E+02  0.45594000000E+02  0.51100000000E-03 0. -1.
         11   -1    0    0    0    0 -0.00000000000E+00 -0.00000000000E+00 -0.45593999997E+02  0.45594000000E+02  0.51100000000E-03 0.  1.
    9900012    2    1    2    0    0 -0.35618261894E+02  0.43393471558E+01 -0.19122641430E+02  0.50528856756E+02  0.29999990594E+02 0.  0.
         12    1    1    2    0    0  0.35618261894E+02 -0.43393471558E+01  0.19122641430E+02  0.40659143244E+02  0.00000000000E+00 0. -1.
         11    1    3    3    0    0 -0.25998272017E+01  0.28952598976E+01  0.21502563536E+01  0.44458108373E+01  0.51100000000E-03 0. -1.
        -11    1    3    3    0    0 -0.29791863069E+02  0.57154160956E+01 -0.74165125102E+01  0.31228604585E+02  0.51100000000E-03 0.  1.
         12    1    3    3    0    0 -0.32265716239E+01 -0.42713288375E+01 -0.13856385273E+02  0.14854441333E+02  0.00000000000E+00 0. -1.
</event>
<event>
 7    1  0.4836188E-013  0.5052886E+02  0.7816164E-02  0.1300439E+00
        -11   -1    0    0    0    0  0.00000000000E+00  0.00000000000E+00  0.45593999997E+02  0.45594000000E+02  0.51100000000E-03 0.  1.
         11   -1    0    0    0    0 -0.00000000000E+00 -0.00000000000E+00 -0.45593999997E+02  0.45594000000E+02  0.51100000000E-03 0. -1.
    9900012    2    1    2    0    0  0.31935524723E+02 -0.13988163134E+02  0.20919355208E+02  0.50528857492E+02  0.29999992831E+02 0.  0.
         12    1    1    2    0    0 -0.31935524723E+02  0.13988163134E+02 -0.20919355208E+02  0.40659142508E+02  0.00000000000E+00 0. -1.
         11    1    3    3    0    0  0.22804016484E+01 -0.10048385302E+02  0.66514356489E+01  0.12264251926E+02  0.51100000000E-03 0. -1.
        -11    1    3    3    0    0  0.17845363517E+02 -0.10879362660E+02  0.12751880232E+02  0.24483218348E+02  0.51100000000E-03 0.  1.
        -12    1    3    3    0    0  0.11809759558E+02  0.69395848281E+01  0.15160393266E+01  0.13781387217E+02  0.00000000000E+00 0.  1.
</event>
<event>
 7    1  0.4836188E-013  0.5052886E+02  0.7816164E-02  0.1300439E+00
        -11   -1    0    0    0    0  0.00000000000E+00  0.00000000000E+00  0.45593999997E+02  0.45594000000E+02  0.51100000000E-03 0. -1.
         11   -1    0    0    0    0 -0.00000000000E+00 -0.00000000000E+00 -0.45593999997E+02  0.45594000000E+02  0.51100000000E-03 0.  1.
    9900012    2    1    2    0    0  0.15122364495E+01 -0.32677078094E+02 -0.24147197715E+02  0.50528862659E+02  0.30000008539E+02 0.  0.
         12    1    1    2    0    0 -0.15122364495E+01  0.32677078094E+02  0.24147197715E+02  0.40659137341E+02  0.00000000000E+00 0. -1.
         11    1    3    3    0    0 -0.10501379422E+02 -0.10790161086E+02 -0.20884481143E+01  0.15200926347E+02  0.51100000000E-03 0. -1.
        -11    1    3    3    0    0  0.31691468546E+01 -0.80419632781E+01 -0.15280068558E+02  0.17555545008E+02  0.51100000000E-03 0.  1.
        -12    1    3    3    0    0  0.88444690170E+01 -0.13844953729E+02 -0.67786810434E+01  0.17772391303E+02  0.00000000000E+00 0.  1.
</event>
<event>
 7    1  0.4836188E-013  0.5052887E+02  0.7816164E-02  0.1300439E+00
        -11   -1    0    0    0    0  0.00000000000E+00  0.00000000000E+00  0.45593999997E+02  0.45594000000E+02  0.51100000000E-03 0.  1.
         11   -1    0    0    0    0 -0.00000000000E+00 -0.00000000000E+00 -0.45593999997E+02  0.45594000000E+02  0.51100000000E-03 0. -1.
    9900012    2    1    2    0    0  0.10059420105E+02 -0.16516873822E+02  0.35765431514E+02  0.50528866400E+02  0.30000019911E+02 0.  0.
         12    1    1    2    0    0 -0.10059420105E+02  0.16516873822E+02 -0.35765431514E+02  0.40659133600E+02  0.00000000000E+00 0. -1.
         11    1    3    3    0    0 -0.27005077910E+01 -0.41206701822E+01 -0.39653260064E+01  0.63242766921E+01  0.51100000000E-03 0. -1.
        -11    1    3    3    0    0  0.71000538634E+01 -0.40964141019E+01  0.10661291864E+02  0.13448216158E+02  0.51100000000E-03 0.  1.
        -12    1    3    3    0    0  0.56598740325E+01 -0.82997895383E+01  0.29069465656E+02  0.30756373551E+02  0.00000000000E+00 0.  1.
</event>
<event>
 7    1  0.4836188E-013  0.5052886E+02  0.7816164E-02  0.1300439E+00
        -11   -1    0    0    0    0  0.00000000000E+00  0.00000000000E+00  0.45593999997E+02  0.45594000000E+02  0.51100000000E-03 0.  1.
         11   -1    0    0    0    0 -0.00000000000E+00 -0.00000000000E+00 -0.45593999997E+02  0.45594000000E+02  0.51100000000E-03 0. -1.
    9900012    2    1    2    0    0  0.20965969462E+02 -0.34580113354E+02 -0.42200902533E+01  0.50528864780E+02  0.30000014986E+02 0.  0.
         12    1    1    2    0    0 -0.20965969462E+02  0.34580113354E+02  0.42200902533E+01  0.40659135220E+02  0.00000000000E+00 0. -1.
         11    1    3    3    0    0  0.46498917870E+01  0.35699715925E+00 -0.19387620273E+01  0.50505186924E+01  0.51100000000E-03 0. -1.
        -11    1    3    3    0    0  0.28922164577E+01 -0.18017943556E+02  0.98184412301E+01  0.20722282559E+02  0.51100000000E-03 0.  1.
         12    1    3    3    0    0  0.13423861218E+02 -0.16919166958E+02 -0.12099769456E+02  0.24756063528E+02  0.00000000000E+00 0. -1.
</event>
<event>
 7    1  0.4836188E-013  0.5052887E+02  0.7816164E-02  0.1300439E+00
        -11   -1    0    0    0    0  0.00000000000E+00  0.00000000000E+00  0.45593999997E+02  0.45594000000E+02  0.51100000000E-03 0. -1.
         11   -1    0    0    0    0 -0.00000000000E+00 -0.00000000000E+00 -0.45593999997E+02  0.45594000000E+02  0.51100000000E-03 0.  1.
    9900012    2    1    2    0    0  0.12030681880E+02  0.31059396673E+02  0.23318272060E+02  0.50528865232E+02  0.30000016359E+02 0.  0.
         12    1    1    2    0    0 -0.12030681880E+02 -0.31059396673E+02 -0.23318272060E+02  0.40659134768E+02  0.00000000000E+00 0. -1.
         11    1    3    3    0    0  0.10926807445E+01  0.14241048891E+02  0.49871096554E+01  0.15128538849E+02  0.51100000000E-03 0.  1.
        -11    1    3    3    0    0  0.12340980453E+02  0.10964934542E+02  0.22624318202E+02  0.28006952037E+02  0.51100000000E-03 0. -1.
         12    1    3    3    0    0 -0.14029793169E+01  0.58534132402E+01 -0.42931557972E+01  0.73933743462E+01  0.00000000000E+00 0. -1.
</event>
<event>
 7    1  0.4836188E-013  0.5052886E+02  0.7816164E-02  0.1300439E+00
        -11   -1    0    0    0    0  0.00000000000E+00  0.00000000000E+00  0.45593999997E+02  0.45594000000E+02  0.51100000000E-03 0. -1.
         11   -1    0    0    0    0 -0.00000000000E+00 -0.00000000000E+00 -0.45593999997E+02  0.45594000000E+02  0.51100000000E-03 0.  1.
    9900012    2    1    2    0    0 -0.12592533654E+02 -0.31860502394E+02 -0.21897546445E+02  0.50528855187E+02  0.29999985825E+02 0.  0.
         12    1    1    2    0    0  0.12592533654E+02  0.31860502394E+02  0.21897546445E+02  0.40659144813E+02  0.00000000000E+00 0. -1.
         11    1    3    3    0    0 -0.46377535727E+01 -0.15657152310E+02 -0.24651193456E+02  0.29569181857E+02  0.51100000000E-03 0. -1.
        -11    1    3    3    0    0 -0.35242586153E+01 -0.99973786701E+01 -0.34308450913E+01  0.11141753783E+02  0.51100000000E-03 0.  1.
         12    1    3    3    0    0 -0.44305214657E+01 -0.62059714144E+01  0.61844921021E+01  0.98179195462E+01  0.00000000000E+00 0. -1.
</event>
<event>
 7    1  0.4836188E-013  0.5052886E+02  0.7816164E-02  0.1300439E+00
        -11   -1    0    0    0    0  0.00000000000E+00  0.00000000000E+00  0.45593999997E+02  0.45594000000E+02  0.51100000000E-03 0. -1.
         11   -1    0    0    0    0 -0.00000000000E+00 -0.00000000000E+00 -0.45593999997E+02  0.45594000000E+02  0.51100000000E-03 0.  1.
    9900012    2    1    2    0    0  0.46433603509E+01  0.14756532201E+02 -0.37601187028E+02  0.50528864447E+02  0.30000013974E+02 0.  0.
         12    1    1    2    0    0 -0.46433603509E+01 -0.14756532201E+02  0.37601187028E+02  0.40659135553E+02  0.00000000000E+00 0. -1.
         11    1    3    3    0    0 -0.86919934955E+01 -0.77842730972E+00 -0.13835132379E+02  0.16357493335E+02  0.51100000000E-03 0. -1.
        -11    1    3    3    0    0  0.47121984925E+01  0.41761772714E+01 -0.17492703275E+02  0.18591394229E+02  0.51100000000E-03 0.  1.
        -12    1    3    3    0    0  0.86231553538E+01  0.11358782240E+02 -0.62733513735E+01  0.15579976883E+02  0.00000000000E+00 0.  1.
</event>
<event>
 7    1  0.4836188E-013  0.5052886E+02  0.7816164E-02  0.1300439E+00
        -11   -1    0    0    0    0  0.00000000000E+00  0.00000000000E+00  0.45593999997E+02  0.45594000000E+02  0.51100000000E-03 0. -1.
         11   -1    0    0    0    0 -0.00000000000E+00 -0.00000000000E+00 -0.45593999997E+02  0.45594000000E+02  0.51100000000E-03 0.  1.
    9900012    2    1    2    0    0 -0.54831636306E+01  0.21994791391E+02 -0.33753955730E+02  0.50528862538E+02  0.30000008169E+02 0.  0.
         12    1    1    2    0    0  0.54831636306E+01 -0.21994791391E+02  0.33753955730E+02  0.40659137462E+02  0.00000000000E+00 0. -1.
         11    1    3    3    0    0 -0.28097914800E+01  0.29537115244E+01 -0.20890346737E+02  0.21284405723E+02  0.51100000000E-03 0. -1.
        -11    1    3    3    0    0 -0.64970481924E+01  0.18290034273E+02 -0.15242155774E+02  0.24679147105E+02  0.51100000000E-03 0.  1.
         12    1    3    3    0    0  0.38236760418E+01  0.75104559363E+00  0.23785467807E+01  0.45653097096E+01  0.00000000000E+00 0. -1.
</event>
<event>
 7    1  0.4836188E-013  0.5052886E+02  0.7816164E-02  0.1300439E+00
        -11   -1    0    0    0    0  0.00000000000E+00  0.00000000000E+00  0.45593999997E+02  0.45594000000E+02  0.51100000000E-03 0. -1.
         11   -1    0    0    0    0 -0.00000000000E+00 -0.00000000000E+00 -0.45593999997E+02  0.45594000000E+02  0.51100000000E-03 0.  1.
    9900012    2    1    2    0    0 -0.92139765335E+01 -0.34121322680E+02 -0.20099840143E+02  0.50528860821E+02  0.30000002952E+02 0.  0.
         12    1    1    2    0    0  0.92139765335E+01  0.34121322680E+02  0.20099840143E+02  0.40659139179E+02  0.00000000000E+00 0. -1.
         11    1    3    3    0    0 -0.10903820662E+02 -0.15920732773E+01 -0.10752158222E+02  0.15396003021E+02  0.51100000000E-03 0. -1.
        -11    1    3    3    0    0  0.31734628746E+01 -0.12920205392E+02 -0.77643146573E+01  0.15404127900E+02  0.51100000000E-03 0.  1.
        -12    1    3    3    0    0 -0.14836187461E+01 -0.19609044010E+02 -0.15833672641E+01  0.19728729900E+02  0.00000000000E+00 0.  1.
</event>
<event>
 7    1  0.4836188E-013  0.5052886E+02  0.7816164E-02  0.1300439E+00
        -11   -1    0    0    0    0  0.00000000000E+00  0.00000000000E+00  0.45593999997E+02  0.45594000000E+02  0.51100000000E-03 0.  1.
         11   -1    0    0    0    0 -0.00000000000E+00 -0.00000000000E+00 -0.45593999997E+02  0.45594000000E+02  0.51100000000E-03 0. -1.
    9900012    2    1    2    0    0 -0.15118646202E+02 -0.65213035450E+01 -0.37176130052E+02  0.50528861931E+02  0.30000006325E+02 0.  0.
         12    1    1    2    0    0  0.15118646202E+02  0.65213035450E+01  0.37176130052E+02  0.40659138069E+02  0.00000000000E+00 0. -1.
         11    1    3    3    0    0  0.27221342001E+01  0.49684952192E+01 -0.30686483751E+01  0.64430243254E+01  0.51100000000E-03 0. -1.
        -11    1    3    3    0    0 -0.15842313455E+02 -0.62744965666E+00 -0.25733311455E+02  0.30225418234E+02  0.51100000000E-03 0.  1.
         12    1    3    3    0    0 -0.19984669468E+01 -0.10862349108E+02 -0.83741702213E+01  0.13860419372E+02  0.00000000000E+00 0. -1.
</event>
<event>
 7    1  0.4836188E-013  0.5052886E+02  0.7816164E-02  0.1300439E+00
        -11   -1    0    0    0    0  0.00000000000E+00  0.00000000000E+00  0.45593999997E+02  0.45594000000E+02  0.51100000000E-03 0. -1.
         11   -1    0    0    0    0 -0.00000000000E+00 -0.00000000000E+00 -0.45593999997E+02  0.45594000000E+02  0.51100000000E-03 0.  1.
    9900012    2    1    2    0    0 -0.14332432597E+02 -0.33615787724E+02 -0.17824858826E+02  0.50528863257E+02  0.30000010357E+02 0.  0.
         12    1    1    2    0    0  0.14332432597E+02  0.33615787724E+02  0.17824858826E+02  0.40659136743E+02  0.00000000000E+00 0. -1.
         11    1    3    3    0    0 -0.23307040998E+00 -0.12309074744E+02  0.37485847018E+01  0.12869325172E+02  0.51100000000E-03 0. -1.
        -11    1    3    3    0    0 -0.93229101794E+01 -0.13719897059E+02 -0.27553530543E+01  0.16814999264E+02  0.51100000000E-03 0.  1.
        -12    1    3    3    0    0 -0.47764520080E+01 -0.75868159214E+01 -0.18818090473E+02  0.20844538821E+02  0.00000000000E+00 0.  1.
</event>
<event>
 7    1  0.4836188E-013  0.5052886E+02  0.7816164E-02  0.1300439E+00
        -11   -1    0    0    0    0  0.00000000000E+00  0.00000000000E+00  0.45593999997E+02  0.45594000000E+02  0.51100000000E-03 0.  1.
         11   -1    0    0    0    0 -0.00000000000E+00 -0.00000000000E+00 -0.45593999997E+02  0.45594000000E+02  0.51100000000E-03 0. -1.
    9900012    2    1    2    0    0 -0.21322702892E+02 -0.74885409532E+01  0.33799852158E+02  0.50528856992E+02  0.29999991314E+02 0.  0.
         12    1    1    2    0    0  0.21322702892E+02  0.74885409532E+01 -0.33799852158E+02  0.40659143008E+02  0.00000000000E+00 0. -1.
         11    1    3    3    0    0 -0.37366454939E+00 -0.27052002025E+00 -0.23895110966E+01  0.24336330493E+01  0.51100000000E-03 0. -1.
        -11    1    3    3    0    0 -0.10615446733E+02  0.75173725178E+01  0.10437656119E+02  0.16677627662E+02  0.51100000000E-03 0.  1.
         12    1    3    3    0    0 -0.10333591609E+02 -0.14735393451E+02  0.25751707135E+02  0.31417596281E+02  0.00000000000E+00 0. -1.
</event>
<event>
 7    1  0.4836188E-013  0.5052886E+02  0.7816164E-02  0.1300439E+00
        -11   -1    0    0    0    0  0.00000000000E+00  0.00000000000E+00  0.45593999997E+02  0.45594000000E+02  0.51100000000E-03 0. -1.
         11   -1    0    0    0    0 -0.00000000000E+00 -0.00000000000E+00 -0.45593999997E+02  0.45594000000E+02  0.51100000000E-03 0.  1.
    9900012    2    1    2    0    0  0.33583480815E+02 -0.22669311921E+02 -0.33790382140E+01  0.50528858520E+02  0.29999995957E+02 0.  0.
         12    1    1    2    0    0 -0.33583480815E+02  0.22669311921E+02  0.33790382140E+01  0.40659141480E+02  0.00000000000E+00 0. -1.
         11    1    3    3    0    0  0.20033938780E+02 -0.22554366384E+02 -0.15269143681E+01  0.30205787753E+02  0.51100000000E-03 0. -1.
        -11    1    3    3    0    0  0.15238450474E+02 -0.23875099427E+01  0.19880239128E+01  0.15551939298E+02  0.51100000000E-03 0.  1.
         12    1    3    3    0    0 -0.16889084391E+01  0.22725644050E+01 -0.38401477586E+01  0.47711314695E+01  0.00000000000E+00 0. -1.
</event>
<event>
 7    1  0.4836188E-013  0.5052884E+02  0.7816164E-02  0.1300439E+00
        -11   -1    0    0    0    0  0.00000000000E+00  0.00000000000E+00  0.45593999997E+02  0.45594000000E+02  0.51100000000E-03 0. -1.
         11   -1    0    0    0    0 -0.00000000000E+00 -0.00000000000E+00 -0.45593999997E+02  0.45594000000E+02  0.51100000000E-03 0.  1.
    9900012    2    1    2    0    0 -0.17495037796E+02  0.36119771129E+02 -0.65156069883E+01  0.50528839307E+02  0.29999937556E+02 0.  0.
         12    1    1    2    0    0  0.17495037796E+02 -0.36119771129E+02  0.65156069883E+01  0.40659160693E+02  0.00000000000E+00 0. -1.
         11    1    3    3    0    0 -0.64183900604E+01  0.31681496174E+01  0.18187126999E+01  0.73851620911E+01  0.51100000000E-03 0. -1.
        -11    1    3    3    0    0 -0.56796940077E+01 -0.25857822558E+01 -0.25264318137E+01  0.67326110734E+01  0.51100000000E-03 0.  1.
        -12    1    3    3    0    0 -0.53969537280E+01  0.35537403767E+02 -0.58078878746E+01  0.36411066142E+02  0.00000000000E+00 0.  1.
</event>
<event>
 7    1  0.4836188E-013  0.5052890E+02  0.7816164E-02  0.1300439E+00
        -11   -1    0    0    0    0  0.00000000000E+00  0.00000000000E+00  0.45593999997E+02  0.45594000000E+02  0.51100000000E-03 0.  1.
         11   -1    0    0    0    0 -0.00000000000E+00 -0.00000000000E+00 -0.45593999997E+02  0.45594000000E+02  0.51100000000E-03 0. -1.
    9900012    2    1    2    0    0  0.88390521129E+01 -0.20998536573E+01  0.39631096672E+02  0.50528904449E+02  0.30000135563E+02 0.  0.
         12    1    1    2    0    0 -0.88390521129E+01  0.20998536573E+01 -0.39631096672E+02  0.40659095551E+02  0.00000000000E+00 0. -1.
         11    1    3    3    0    0 -0.16341996175E+01 -0.10612427333E+02  0.10903139741E+02  0.15302701681E+02  0.51100000000E-03 0. -1.
        -11    1    3    3    0    0  0.65961045680E+01 -0.30028718701E+00  0.23205919695E+02  0.24127027936E+02  0.51100000000E-03 0.  1.
         12    1    3    3    0    0  0.38771471624E+01  0.88128608627E+01  0.55220372361E+01  0.11099174832E+02  0.00000000000E+00 0. -1.
</event>
<event>
 7    1  0.4836188E-013  0.5052886E+02  0.7816164E-02  0.1300439E+00
        -11   -1    0    0    0    0  0.00000000000E+00  0.00000000000E+00  0.45593999997E+02  0.45594000000E+02  0.51100000000E-03 0.  1.
         11   -1    0    0    0    0 -0.00000000000E+00 -0.00000000000E+00 -0.45593999997E+02  0.45594000000E+02  0.51100000000E-03 0. -1.
    9900012    2    1    2    0    0  0.25354294576E+02 -0.16263242668E+02  0.27309928015E+02  0.50528862236E+02  0.30000007252E+02 0.  0.
         12    1    1    2    0    0 -0.25354294576E+02  0.16263242668E+02 -0.27309928015E+02  0.40659137764E+02  0.00000000000E+00 0. -1.
         11    1    3    3    0    0  0.42785765370E+01 -0.12407492364E+01  0.31826454266E+00  0.44662029097E+01  0.51100000000E-03 0. -1.
        -11    1    3    3    0    0  0.23483645809E+02 -0.15820082899E+02  0.30574998922E+02  0.41672379375E+02  0.51100000000E-03 0.  1.
        -12    1    3    3    0    0 -0.24079277703E+01  0.79758946776E+00 -0.35833354494E+01  0.43902799511E+01  0.00000000000E+00 0.  1.
</event>
<event>
 7    1  0.4836188E-013  0.5052886E+02  0.7816164E-02  0.1300439E+00
        -11   -1    0    0    0    0  0.00000000000E+00  0.00000000000E+00  0.45593999997E+02  0.45594000000E+02  0.51100000000E-03 0.  1.
         11   -1    0    0    0    0 -0.00000000000E+00 -0.00000000000E+00 -0.45593999997E+02  0.45594000000E+02  0.51100000000E-03 0. -1.
    9900012    2    1    2    0    0 -0.23548276469E+00 -0.34105137053E+02  0.22134815430E+02  0.50528857367E+02  0.29999992453E+02 0.  0.
         12    1    1    2    0    0  0.23548276469E+00  0.34105137053E+02 -0.22134815430E+02  0.40659142633E+02  0.00000000000E+00 0. -1.
         11    1    3    3    0    0 -0.72737731343E+01 -0.15821267429E+02  0.16941088901E+02  0.24294459699E+02  0.51100000000E-03 0. -1.
        -11    1    3    3    0    0  0.41205725166E+01 -0.17043767181E+02  0.10217078398E+02  0.20294280200E+02  0.51100000000E-03 0.  1.
        -12    1    3    3    0    0  0.29177178531E+01 -0.12401024433E+01 -0.50233518685E+01  0.59401174681E+01  0.00000000000E+00 0.  1.
</event>
<event>
 7    1  0.4836188E-013  0.5052886E+02  0.7816164E-02  0.1300439E+00
        -11   -1    0    0    0    0  0.00000000000E+00  0.00000000000E+00  0.45593999997E+02  0.45594000000E+02  0.51100000000E-03 0.  1.
         11   -1    0    0    0    0 -0.00000000000E+00 -0.00000000000E+00 -0.45593999997E+02  0.45594000000E+02  0.51100000000E-03 0. -1.
    9900012    2    1    2    0    0 -0.12692656693E+02 -0.28196071967E+02  0.26401590020E+02  0.50528856331E+02  0.29999989305E+02 0.  0.
         12    1    1    2    0    0  0.12692656693E+02  0.28196071967E+02 -0.26401590020E+02  0.40659143669E+02  0.00000000000E+00 0. -1.
         11    1    3    3    0    0  0.31304830183E+01 -0.14025344503E+01  0.18053152740E+01  0.38763630263E+01  0.51100000000E-03 0. -1.
        -11    1    3    3    0    0 -0.44167572327E+01 -0.23479086846E+02  0.60777169062E+01  0.24651854020E+02  0.51100000000E-03 0.  1.
        -12    1    3    3    0    0 -0.11406382478E+02 -0.33144506711E+01  0.18518557840E+02  0.22000639285E+02  0.00000000000E+00 0.  1.
</event>
<event>
 7    1  0.4836188E-013  0.5052885E+02  0.7816164E-02  0.1300439E+00
        -11   -1    0    0    0    0  0.00000000000E+00  0.00000000000E+00  0.45593999997E+02  0.45594000000E+02  0.51100000000E-03 0. -1.
         11   -1    0    0    0    0 -0.00000000000E+00 -0.00000000000E+00 -0.45593999997E+02  0.45594000000E+02  0.51100000000E-03 0.  1.
    9900012    2    1    2    0    0 -0.12485007689E+02  0.38022113411E+02 -0.71840050164E+01  0.50528850313E+02  0.29999971010E+02 0.  0.
         12    1    1    2    0    0  0.12485007689E+02 -0.38022113411E+02  0.71840050164E+01  0.40659149687E+02  0.00000000000E+00 0. -1.
         11    1    3    3    0    0  0.47265833009E+01  0.13966741445E+02 -0.34457040511E+01  0.15142104641E+02  0.51100000000E-03 0.  1.
        -11    1    3    3    0    0 -0.52569204072E+01  0.15144355943E+02  0.65012592339E+01  0.17298933522E+02  0.51100000000E-03 0. -1.
         12    1    3    3    0    0 -0.11954670583E+02  0.89110160226E+01 -0.10239560199E+02  0.18087812150E+02  0.00000000000E+00 0. -1.
</event>
<event>
 7    1  0.4836188E-013  0.5052886E+02  0.7816164E-02  0.1300439E+00
        -11   -1    0    0    0    0  0.00000000000E+00  0.00000000000E+00  0.45593999997E+02  0.45594000000E+02  0.51100000000E-03 0.  1.
         11   -1    0    0    0    0 -0.00000000000E+00 -0.00000000000E+00 -0.45593999997E+02  0.45594000000E+02  0.51100000000E-03 0. -1.
    9900012    2    1    2    0    0  0.33924814878E+02  0.21920899962E+02  0.46633176397E+01  0.50528862638E+02  0.30000008473E+02 0.  0.
         12    1    1    2    0    0 -0.33924814878E+02 -0.21920899962E+02 -0.46633176397E+01  0.40659137362E+02  0.00000000000E+00 0. -1.
         11    1    3    3    0    0  0.76465196559E+01 -0.14263909175E+01 -0.19705652342E+01  0.80241498927E+01  0.51100000000E-03 0. -1.
        -11    1    3    3    0    0  0.31278057841E+01  0.45972242340E+01  0.11067242232E+02  0.12385535538E+02  0.51100000000E-03 0.  1.
        -12    1    3    3    0    0  0.23150489438E+02  0.18750066645E+02 -0.44333593581E+01  0.30119177207E+02  0.00000000000E+00 0.  1.
</event>
<event>
 7    1  0.4836188E-013  0.5052886E+02  0.7816164E-02  0.1300439E+00
        -11   -1    0    0    0    0  0.00000000000E+00  0.00000000000E+00  0.45593999997E+02  0.45594000000E+02  0.51100000000E-03 0. -1.
         11   -1    0    0    0    0 -0.00000000000E+00 -0.00000000000E+00 -0.45593999997E+02  0.45594000000E+02  0.51100000000E-03 0.  1.
    9900012    2    1    2    0    0  0.32039918886E+02  0.12344078008E+02  0.21776887476E+02  0.50528862131E+02  0.30000006933E+02 0.  0.
         12    1    1    2    0    0 -0.32039918886E+02 -0.12344078008E+02 -0.21776887476E+02  0.40659137869E+02  0.00000000000E+00 0. -1.
         11    1    3    3    0    0  0.16849487165E+02  0.14574611178E+01  0.11420436291E+02  0.20407248124E+02  0.51100000000E-03 0. -1.
        -11    1    3    3    0    0  0.17809952966E+02  0.11475825909E+02  0.19265045821E+01  0.21274407750E+02  0.51100000000E-03 0.  1.
         12    1    3    3    0    0 -0.26195212452E+01 -0.58920901918E+00  0.84299466035E+01  0.88472062574E+01  0.00000000000E+00 0. -1.
</event>
<event>
 7    1  0.4836188E-013  0.5052886E+02  0.7816164E-02  0.1300439E+00
        -11   -1    0    0    0    0  0.00000000000E+00  0.00000000000E+00  0.45593999997E+02  0.45594000000E+02  0.51100000000E-03 0.  1.
         11   -1    0    0    0    0 -0.00000000000E+00 -0.00000000000E+00 -0.45593999997E+02  0.45594000000E+02  0.51100000000E-03 0. -1.
    9900012    2    1    2    0    0  0.13393197100E+02 -0.29123997939E+02  0.25011617894E+02  0.50528855713E+02  0.29999987424E+02 0.  0.
         12    1    1    2    0    0 -0.13393197100E+02  0.29123997939E+02 -0.25011617894E+02  0.40659144287E+02  0.00000000000E+00 0. -1.
         11    1    3    3    0    0  0.70483636689E+01 -0.24752866129E+01  0.11597172576E+02  0.13794958726E+02  0.51100000000E-03 0. -1.
        -11    1    3    3    0    0  0.93604577668E+01 -0.18348138463E+02  0.17476629646E+02  0.27013051266E+02  0.51100000000E-03 0.  1.
         12    1    3    3    0    0 -0.30156243360E+01 -0.83005728638E+01 -0.40621843290E+01  0.97208457207E+01  0.00000000000E+00 0. -1.
</event>
<event>
 7    1  0.4836188E-013  0.5052884E+02  0.7816164E-02  0.1300439E+00
        -11   -1    0    0    0    0  0.00000000000E+00  0.00000000000E+00  0.45593999997E+02  0.45594000000E+02  0.51100000000E-03 0.  1.
         11   -1    0    0    0    0 -0.00000000000E+00 -0.00000000000E+00 -0.45593999997E+02  0.45594000000E+02  0.51100000000E-03 0. -1.
    9900012    2    1    2    0    0  0.20813948742E+02  0.21875637426E+02  0.27228717144E+02  0.50528843438E+02  0.29999950113E+02 0.  0.
         12    1    1    2    0    0 -0.20813948742E+02 -0.21875637426E+02 -0.27228717144E+02  0.40659156562E+02  0.00000000000E+00 0. -1.
         11    1    3    3    0    0 -0.27346264901E+01  0.15411379925E+01  0.66761702990E+01  0.73772988604E+01  0.51100000000E-03 0. -1.
        -11    1    3    3    0    0  0.17519194499E+02  0.27190091399E+01  0.38572141200E+01  0.18143684510E+02  0.51100000000E-03 0.  1.
         12    1    3    3    0    0  0.60293807333E+01  0.17615490294E+02  0.16695332725E+02  0.25007860067E+02  0.00000000000E+00 0. -1.
</event>
<event>
 7    1  0.4836188E-013  0.5052886E+02  0.7816164E-02  0.1300439E+00
        -11   -1    0    0    0    0  0.00000000000E+00  0.00000000000E+00  0.45593999997E+02  0.45594000000E+02  0.51100000000E-03 0. -1.
         11   -1    0    0    0    0 -0.00000000000E+00 -0.00000000000E+00 -0.45593999997E+02  0.45594000000E+02  0.51100000000E-03 0.  1.
    9900012    2    1    2    0    0  0.36294316577E+02  0.14416236300E+02 -0.11316384609E+02  0.50528857787E+02  0.29999993731E+02 0.  0.
         12    1    1    2    0    0 -0.36294316577E+02 -0.14416236300E+02  0.11316384609E+02  0.40659142213E+02  0.00000000000E+00 0. -1.
         11    1    3    3    0    0  0.34061178697E+01 -0.31276514693E+01 -0.23169003731E+00  0.46300672986E+01  0.51100000000E-03 0. -1.
        -11    1    3    3    0    0  0.12345995468E+01 -0.18145770083E+01 -0.84177376340E+01  0.86991512745E+01  0.51100000000E-03 0.  1.
        -12    1    3    3    0    0  0.31653599160E+02  0.19358464778E+02 -0.26669569378E+01  0.37199639214E+02  0.00000000000E+00 0.  1.
</event>
<event>
 7    1  0.4836188E-013  0.5052886E+02  0.7816164E-02  0.1300439E+00
        -11   -1    0    0    0    0  0.00000000000E+00  0.00000000000E+00  0.45593999997E+02  0.45594000000E+02  0.51100000000E-03 0. -1.
         11   -1    0    0    0    0 -0.00000000000E+00 -0.00000000000E+00 -0.45593999997E+02  0.45594000000E+02  0.51100000000E-03 0.  1.
    9900012    2    1    2    0    0  0.14734087788E+02 -0.28900777853E+02 -0.24511572209E+02  0.50528862336E+02  0.30000007556E+02 0.  0.
         12    1    1    2    0    0 -0.14734087788E+02  0.28900777853E+02  0.24511572209E+02  0.40659137664E+02  0.00000000000E+00 0. -1.
         11    1    3    3    0    0  0.82175856044E+01 -0.11013151822E+02 -0.32548147437E+01  0.14121332993E+02  0.51100000000E-03 0. -1.
        -11    1    3    3    0    0  0.69635208031E+01  0.80908971201E+00 -0.15217368797E+02  0.16754508692E+02  0.51100000000E-03 0.  1.
        -12    1    3    3    0    0 -0.44701861997E+00 -0.18696715743E+02 -0.60393886682E+01  0.19653020651E+02  0.00000000000E+00 0.  1.
</event>
<event>
 7    1  0.4836188E-013  0.5052888E+02  0.7816164E-02  0.1300439E+00
        -11   -1    0    0    0    0  0.00000000000E+00  0.00000000000E+00  0.45593999997E+02  0.45594000000E+02  0.51100000000E-03 0. -1.
         11   -1    0    0    0    0 -0.00000000000E+00 -0.00000000000E+00 -0.45593999997E+02  0.45594000000E+02  0.51100000000E-03 0.  1.
    9900012    2    1    2    0    0 -0.28136733341E+00  0.40328196479E+02  0.51693176327E+01  0.50528875026E+02  0.30000046130E+02 0.  0.
         12    1    1    2    0    0  0.28136733341E+00 -0.40328196479E+02 -0.51693176327E+01  0.40659124974E+02  0.00000000000E+00 0. -1.
         11    1    3    3    0    0  0.58642875313E+01  0.19215176953E+02 -0.20665361722E+01  0.20196125015E+02  0.51100000000E-03 0.  1.
        -11    1    3    3    0    0  0.27328465296E+01  0.11840118444E+02  0.11574217216E+02  0.16781518386E+02  0.51100000000E-03 0. -1.
        -12    1    3    3    0    0 -0.88785013943E+01  0.92729010817E+01 -0.43383634111E+01  0.13551231625E+02  0.00000000000E+00 0.  1.
</event>
<event>
 7    1  0.4836188E-013  0.5052886E+02  0.7816164E-02  0.1300439E+00
        -11   -1    0    0    0    0  0.00000000000E+00  0.00000000000E+00  0.45593999997E+02  0.45594000000E+02  0.51100000000E-03 0.  1.
         11   -1    0    0    0    0 -0.00000000000E+00 -0.00000000000E+00 -0.45593999997E+02  0.45594000000E+02  0.51100000000E-03 0. -1.
    9900012    2    1    2    0    0 -0.17938064597E+02 -0.33460504491E+02  0.14552879777E+02  0.50528857952E+02  0.29999994231E+02 0.  0.
         12    1    1    2    0    0  0.17938064597E+02  0.33460504491E+02 -0.14552879777E+02  0.40659142048E+02  0.00000000000E+00 0. -1.
         11    1    3    3    0    0  0.44548058723E+00  0.10441751238E+01 -0.43429064078E+00  0.12154683314E+01  0.51100000000E-03 0. -1.
        -11    1    3    3    0    0 -0.10981774966E+02 -0.11984469406E+02  0.19284742816E+02  0.25221581910E+02  0.51100000000E-03 0.  1.
         12    1    3    3    0    0 -0.74017702190E+01 -0.22520210209E+02 -0.42975723980E+01  0.24091807710E+02  0.00000000000E+00 0. -1.
</event>
<event>
 7    1  0.4836188E-013  0.5052887E+02  0.7816164E-02  0.1300439E+00
        -11   -1    0    0    0    0  0.00000000000E+00  0.00000000000E+00  0.45593999997E+02  0.45594000000E+02  0.51100000000E-03 0.  1.
         11   -1    0    0    0    0 -0.00000000000E+00 -0.00000000000E+00 -0.45593999997E+02  0.45594000000E+02  0.51100000000E-03 0. -1.
    9900012    2    1    2    0    0  0.71823315436E+01  0.32022175008E+02  0.24003325222E+02  0.50528865720E+02  0.30000017844E+02 0.  0.
         12    1    1    2    0    0 -0.71823315436E+01 -0.32022175008E+02 -0.24003325222E+02  0.40659134280E+02  0.00000000000E+00 0. -1.
         11    1    3    3    0    0 -0.72764875428E+01  0.26009030151E+01  0.10371724899E+02  0.12933856544E+02  0.51100000000E-03 0. -1.
        -11    1    3    3    0    0 -0.16271172086E+01  0.48190906719E+01  0.45641766845E+01  0.68339486670E+01  0.51100000000E-03 0.  1.
         12    1    3    3    0    0  0.16085936295E+02  0.24602181321E+02  0.90674236385E+01  0.30761060510E+02  0.00000000000E+00 0. -1.
</event>
<event>
 7    1  0.4836188E-013  0.5052885E+02  0.7816164E-02  0.1300439E+00
        -11   -1    0    0    0    0  0.00000000000E+00  0.00000000000E+00  0.45593999997E+02  0.45594000000E+02  0.51100000000E-03 0.  1.
         11   -1    0    0    0    0 -0.00000000000E+00 -0.00000000000E+00 -0.45593999997E+02  0.45594000000E+02  0.51100000000E-03 0. -1.
    9900012    2    1    2    0    0 -0.12321753845E+02  0.37410116033E+02  0.10090772775E+02  0.50528854724E+02  0.29999984418E+02 0.  0.
         12    1    1    2    0    0  0.12321753845E+02 -0.37410116033E+02 -0.10090772775E+02  0.40659145276E+02  0.00000000000E+00 0. -1.
         11    1    3    3    0    0 -0.10435934684E+02  0.79909960234E+01 -0.10102620223E+01  0.13182768290E+02  0.51100000000E-03 0. -1.
        -11    1    3    3    0    0 -0.41872879962E+01  0.74961843777E+01  0.12604779242E+02  0.15251446521E+02  0.51100000000E-03 0.  1.
        -12    1    3    3    0    0  0.23014688357E+01  0.21922935632E+02 -0.15037444440E+01  0.22094639912E+02  0.00000000000E+00 0.  1.
</event>
<event>
 7    1  0.4836188E-013  0.5052886E+02  0.7816164E-02  0.1300439E+00
        -11   -1    0    0    0    0  0.00000000000E+00  0.00000000000E+00  0.45593999997E+02  0.45594000000E+02  0.51100000000E-03 0.  1.
         11   -1    0    0    0    0 -0.00000000000E+00 -0.00000000000E+00 -0.45593999997E+02  0.45594000000E+02  0.51100000000E-03 0. -1.
    9900012    2    1    2    0    0  0.36339109479E+02  0.17185212137E+02 -0.61076123737E+01  0.50528864214E+02  0.30000013266E+02 0.  0.
         12    1    1    2    0    0 -0.36339109479E+02 -0.17185212137E+02  0.61076123737E+01  0.40659135786E+02  0.00000000000E+00 0. -1.
         11    1    3    3    0    0  0.46316501611E+01  0.12208816703E+02 -0.12060494375E+02  0.17775345660E+02  0.51100000000E-03 0. -1.
        -11    1    3    3    0    0  0.61950129973E+01  0.20630149161E+01  0.11527068952E+01  0.66304562459E+01  0.51100000000E-03 0.  1.
        -12    1    3    3    0    0  0.25512446321E+02  0.29133805176E+01  0.48001751065E+01  0.26123062308E+02  0.00000000000E+00 0.  1.
</event>
<event>
 7    1  0.4836188E-013  0.5052885E+02  0.7816164E-02  0.1300439E+00
        -11   -1    0    0    0    0  0.00000000000E+00  0.00000000000E+00  0.45593999997E+02  0.45594000000E+02  0.51100000000E-03 0.  1.
         11   -1    0    0    0    0 -0.00000000000E+00 -0.00000000000E+00 -0.45593999997E+02  0.45594000000E+02  0.51100000000E-03 0. -1.
    9900012    2    1    2    0    0 -0.32938252371E+02  0.59247700537E+01  0.23089717629E+02  0.50528850604E+02  0.29999971896E+02 0.  0.
         12    1    1    2    0    0  0.32938252371E+02 -0.59247700537E+01 -0.23089717629E+02  0.40659149396E+02  0.00000000000E+00 0. -1.
         11    1    3    3    0    0 -0.19217024449E+02 -0.36904765554E+01  0.75311333154E+01  0.20967394095E+02  0.51100000000E-03 0. -1.
        -11    1    3    3    0    0 -0.52885838339E+01  0.11261816335E+01  0.16688582216E+02  0.17542695935E+02  0.51100000000E-03 0.  1.
        -12    1    3    3    0    0 -0.84326440878E+01  0.84890649756E+01 -0.11299979022E+01  0.12018760574E+02  0.00000000000E+00 0.  1.
</event>
<event>
 7    1  0.4836188E-013  0.5052888E+02  0.7816164E-02  0.1300439E+00
        -11   -1    0    0    0    0  0.00000000000E+00  0.00000000000E+00  0.45593999997E+02  0.45594000000E+02  0.51100000000E-03 0.  1.
         11   -1    0    0    0    0 -0.00000000000E+00 -0.00000000000E+00 -0.45593999997E+02  0.45594000000E+02  0.51100000000E-03 0. -1.
    9900012    2    1    2    0    0 -0.21585666898E+02  0.27122870476E+02  0.21250253052E+02  0.50528875894E+02  0.30000048768E+02 0.  0.
         12    1    1    2    0    0  0.21585666898E+02 -0.27122870476E+02 -0.21250253052E+02  0.40659124106E+02  0.00000000000E+00 0. -1.
         11    1    3    3    0    0 -0.12278017165E+02  0.11103345271E+02  0.22155386292E+02  0.27656737402E+02  0.51100000000E-03 0. -1.
        -11    1    3    3    0    0 -0.33073959660E+01  0.11158585166E+02  0.54687460100E+01  0.12859240808E+02  0.51100000000E-03 0.  1.
         12    1    3    3    0    0 -0.60002537671E+01  0.48609400383E+01 -0.63738792502E+01  0.10012897684E+02  0.00000000000E+00 0. -1.
</event>
<event>
 7    1  0.4836188E-013  0.5052881E+02  0.7816164E-02  0.1300439E+00
        -11   -1    0    0    0    0  0.00000000000E+00  0.00000000000E+00  0.45593999997E+02  0.45594000000E+02  0.51100000000E-03 0. -1.
         11   -1    0    0    0    0 -0.00000000000E+00 -0.00000000000E+00 -0.45593999997E+02  0.45594000000E+02  0.51100000000E-03 0.  1.
    9900012    2    1    2    0    0 -0.19003217780E+02 -0.17153397221E+02 -0.31588103719E+02  0.50528811386E+02  0.29999852689E+02 0.  0.
         12    1    1    2    0    0  0.19003217780E+02  0.17153397221E+02  0.31588103719E+02  0.40659188614E+02  0.00000000000E+00 0. -1.
         11    1    3    3    0    0 -0.10880724882E+02  0.43868139394E+01 -0.15110170843E+02  0.19129860785E+02  0.51100000000E-03 0. -1.
        -11    1    3    3    0    0 -0.50866575844E+01 -0.90242982138E+01 -0.15285456781E+02  0.18465027292E+02  0.51100000000E-03 0.  1.
        -12    1    3    3    0    0 -0.30358353139E+01 -0.12515912946E+02 -0.11924760950E+01  0.12933923309E+02  0.00000000000E+00 0.  1.
</event>
<event>
 7    1  0.4836188E-013  0.5052887E+02  0.7816164E-02  0.1300439E+00
        -11   -1    0    0    0    0  0.00000000000E+00  0.00000000000E+00  0.45593999997E+02  0.45594000000E+02  0.51100000000E-03 0.  1.
         11   -1    0    0    0    0 -0.00000000000E+00 -0.00000000000E+00 -0.45593999997E+02  0.45594000000E+02  0.51100000000E-03 0. -1.
    9900012    2    1    2    0    0  0.16654286892E+02  0.21065791227E+02  0.30529206114E+02  0.50528865014E+02  0.30000015696E+02 0.  0.
         12    1    1    2    0    0 -0.16654286892E+02 -0.21065791227E+02 -0.30529206114E+02  0.40659134986E+02  0.00000000000E+00 0. -1.
         11    1    3    3    0    0  0.10002932577E+02  0.13873452695E+02  0.15085490894E+02  0.22805775269E+02  0.51100000000E-03 0. -1.
        -11    1    3    3    0    0 -0.34146594341E+01  0.11488244457E+02  0.68213715337E+01  0.13790241826E+02  0.51100000000E-03 0.  1.
         12    1    3    3    0    0  0.10066013749E+02 -0.42959059252E+01  0.86223436855E+01  0.13932847919E+02  0.00000000000E+00 0. -1.
</event>
<event>
 7    1  0.4836188E-013  0.5052886E+02  0.7816164E-02  0.1300439E+00
        -11   -1    0    0    0    0  0.00000000000E+00  0.00000000000E+00  0.45593999997E+02  0.45594000000E+02  0.51100000000E-03 0.  1.
         11   -1    0    0    0    0 -0.00000000000E+00 -0.00000000000E+00 -0.45593999997E+02  0.45594000000E+02  0.51100000000E-03 0. -1.
    9900012    2    1    2    0    0  0.21088628084E+02 -0.31858133040E+02  0.13910248353E+02  0.50528857308E+02  0.29999992272E+02 0.  0.
         12    1    1    2    0    0 -0.21088628084E+02  0.31858133040E+02 -0.13910248353E+02  0.40659142692E+02  0.00000000000E+00 0. -1.
         11    1    3    3    0    0  0.85590703565E+01 -0.18596480019E+02  0.15343198403E+02  0.25583207226E+02  0.51100000000E-03 0.  1.
        -11    1    3    3    0    0  0.12798360175E+02 -0.16859069212E+02 -0.21228902811E+01  0.21272820718E+02  0.51100000000E-03 0. -1.
        -12    1    3    3    0    0 -0.26880244797E+00  0.35974161918E+01  0.68994023096E+00  0.36728293638E+01  0.00000000000E+00 0.  1.
</event>
<event>
 7    1  0.4836188E-013  0.5052884E+02  0.7816164E-02  0.1300439E+00
        -11   -1    0    0    0    0  0.00000000000E+00  0.00000000000E+00  0.45593999997E+02  0.45594000000E+02  0.51100000000E-03 0.  1.
         11   -1    0    0    0    0 -0.00000000000E+00 -0.00000000000E+00 -0.45593999997E+02  0.45594000000E+02  0.51100000000E-03 0. -1.
    9900012    2    1    2    0    0 -0.32511281406E+02  0.34037292491E+01  0.24178470326E+02  0.50528840899E+02  0.29999942396E+02 0.  0.
         12    1    1    2    0    0  0.32511281406E+02 -0.34037292491E+01 -0.24178470326E+02  0.40659159101E+02  0.00000000000E+00 0. -1.
         11    1    3    3    0    0 -0.10326351630E+02  0.83081848567E+00 -0.63824217957E+01  0.12167954043E+02  0.51100000000E-03 0. -1.
        -11    1    3    3    0    0 -0.13372097058E+02  0.61904094544E+00  0.13234910337E+02  0.18824426772E+02  0.51100000000E-03 0.  1.
        -12    1    3    3    0    0 -0.88128327180E+01  0.19538698180E+01  0.17325981786E+02  0.19536460084E+02  0.00000000000E+00 0.  1.
</event>
<event>
 7    1  0.4836188E-013  0.5052887E+02  0.7816164E-02  0.1300439E+00
        -11   -1    0    0    0    0  0.00000000000E+00  0.00000000000E+00  0.45593999997E+02  0.45594000000E+02  0.51100000000E-03 0.  1.
         11   -1    0    0    0    0 -0.00000000000E+00 -0.00000000000E+00 -0.45593999997E+02  0.45594000000E+02  0.51100000000E-03 0. -1.
    9900012    2    1    2    0    0  0.24222077193E+01 -0.35893460338E+02 -0.18946176744E+02  0.50528865744E+02  0.30000017915E+02 0.  0.
         12    1    1    2    0    0 -0.24222077193E+01  0.35893460338E+02  0.18946176744E+02  0.40659134256E+02  0.00000000000E+00 0. -1.
         11    1    3    3    0    0  0.73929097026E+01 -0.14350228110E+02 -0.50628658300E+01  0.16917942291E+02  0.51100000000E-03 0.  1.
        -11    1    3    3    0    0 -0.80551230701E+01 -0.95654623988E+01  0.28272517347E+01  0.12820937220E+02  0.51100000000E-03 0. -1.
         12    1    3    3    0    0  0.30844210868E+01 -0.11977769829E+02 -0.16710562648E+02  0.20789986232E+02  0.00000000000E+00 0. -1.
</event>
<event>
 7    1  0.4836188E-013  0.5052886E+02  0.7816164E-02  0.1300439E+00
        -11   -1    0    0    0    0  0.00000000000E+00  0.00000000000E+00  0.45593999997E+02  0.45594000000E+02  0.51100000000E-03 0.  1.
         11   -1    0    0    0    0 -0.00000000000E+00 -0.00000000000E+00 -0.45593999997E+02  0.45594000000E+02  0.51100000000E-03 0. -1.
    9900012    2    1    2    0    0  0.27319775567E+02  0.28031607636E+02  0.11001114001E+02  0.50528859909E+02  0.30000000179E+02 0.  0.
         12    1    1    2    0    0 -0.27319775567E+02 -0.28031607636E+02 -0.11001114001E+02  0.40659140091E+02  0.00000000000E+00 0. -1.
         11    1    3    3    0    0  0.45300428113E+01  0.18592335347E+02 -0.14048266725E+01  0.19187750253E+02  0.51100000000E-03 0. -1.
        -11    1    3    3    0    0 -0.18699260177E+01 -0.60618073691E+00  0.18451249930E+01  0.26960276146E+01  0.51100000000E-03 0.  1.
         12    1    3    3    0    0  0.24659658773E+02  0.10045453026E+02  0.10560815681E+02  0.28645082041E+02  0.00000000000E+00 0. -1.
</event>
<event>
 7    1  0.4836188E-013  0.5052886E+02  0.7816164E-02  0.1300439E+00
        -11   -1    0    0    0    0  0.00000000000E+00  0.00000000000E+00  0.45593999997E+02  0.45594000000E+02  0.51100000000E-03 0.  1.
         11   -1    0    0    0    0 -0.00000000000E+00 -0.00000000000E+00 -0.45593999997E+02  0.45594000000E+02  0.51100000000E-03 0. -1.
    9900012    2    1    2    0    0  0.33026057072E+02 -0.81971521599E+01  0.22254264936E+02  0.50528855185E+02  0.29999985819E+02 0.  0.
         12    1    1    2    0    0 -0.33026057072E+02  0.81971521599E+01 -0.22254264936E+02  0.40659144815E+02  0.00000000000E+00 0. -1.
         11    1    3    3    0    0  0.16856001356E+02  0.22714543911E+01  0.17056987173E+02  0.24087862056E+02  0.51100000000E-03 0.  1.
        -11    1    3    3    0    0  0.43569014363E+01  0.34004348233E+01 -0.31938507778E+01  0.63832773843E+01  0.51100000000E-03 0. -1.
        -12    1    3    3    0    0  0.11813154280E+02 -0.13869041374E+02  0.83911285403E+01  0.20057715744E+02  0.00000000000E+00 0.  1.
</event>
<event>
 7    1  0.4836188E-013  0.5052885E+02  0.7816164E-02  0.1300439E+00
        -11   -1    0    0    0    0  0.00000000000E+00  0.00000000000E+00  0.45593999997E+02  0.45594000000E+02  0.51100000000E-03 0. -1.
         11   -1    0    0    0    0 -0.00000000000E+00 -0.00000000000E+00 -0.45593999997E+02  0.45594000000E+02  0.51100000000E-03 0.  1.
    9900012    2    1    2    0    0 -0.35716471882E+02  0.16685953210E+02  0.99538344945E+01  0.50528853189E+02  0.29999979754E+02 0.  0.
         12    1    1    2    0    0  0.35716471882E+02 -0.16685953210E+02 -0.99538344945E+01  0.40659146811E+02  0.00000000000E+00 0. -1.
         11    1    3    3    0    0 -0.15125886282E+02  0.42554946102E+01  0.69535586418E+01  0.17182946437E+02  0.51100000000E-03 0. -1.
        -11    1    3    3    0    0 -0.20282672886E+02  0.21228144998E+01 -0.41315423472E+01  0.20807758246E+02  0.51100000000E-03 0.  1.
        -12    1    3    3    0    0 -0.30791271397E+00  0.10307644100E+02  0.71318181998E+01  0.12538148506E+02  0.00000000000E+00 0.  1.
</event>
<event>
 7    1  0.4836188E-013  0.5052886E+02  0.7816164E-02  0.1300439E+00
        -11   -1    0    0    0    0  0.00000000000E+00  0.00000000000E+00  0.45593999997E+02  0.45594000000E+02  0.51100000000E-03 0.  1.
         11   -1    0    0    0    0 -0.00000000000E+00 -0.00000000000E+00 -0.45593999997E+02  0.45594000000E+02  0.51100000000E-03 0. -1.
    9900012    2    1    2    0    0 -0.35199484808E+02 -0.12771533528E+02  0.15844551721E+02  0.50528860577E+02  0.30000002209E+02 0.  0.
         12    1    1    2    0    0  0.35199484808E+02  0.12771533528E+02 -0.15844551721E+02  0.40659139423E+02  0.00000000000E+00 0. -1.
         11    1    3    3    0    0 -0.10552863965E+02  0.51481528282E+00  0.12718760460E+02  0.16534655743E+02  0.51100000000E-03 0. -1.
        -11    1    3    3    0    0 -0.21302546333E+02 -0.13377010794E+01  0.72835058441E+00  0.21356929070E+02  0.51100000000E-03 0.  1.
         12    1    3    3    0    0 -0.33440745103E+01 -0.11948647731E+02  0.23974406765E+01  0.12637275764E+02  0.00000000000E+00 0. -1.
</event>
<event>
 7    1  0.4836188E-013  0.5052887E+02  0.7816164E-02  0.1300439E+00
        -11   -1    0    0    0    0  0.00000000000E+00  0.00000000000E+00  0.45593999997E+02  0.45594000000E+02  0.51100000000E-03 0. -1.
         11   -1    0    0    0    0 -0.00000000000E+00 -0.00000000000E+00 -0.45593999997E+02  0.45594000000E+02  0.51100000000E-03 0.  1.
    9900012    2    1    2    0    0  0.24349524728E+02  0.31218306063E+02  0.92565013393E+01  0.50528870583E+02  0.30000032624E+02 0.  0.
         12    1    1    2    0    0 -0.24349524728E+02 -0.31218306063E+02 -0.92565013393E+01  0.40659129417E+02  0.00000000000E+00 0. -1.
         11    1    3    3    0    0 -0.47798494151E+01 -0.15151593445E+00 -0.10739280239E+01  0.49013507496E+01  0.51100000000E-03 0. -1.
        -11    1    3    3    0    0  0.54297282254E+01  0.10033298611E+02  0.74128904451E+01  0.13605145153E+02  0.51100000000E-03 0.  1.
        -12    1    3    3    0    0  0.23699645918E+02  0.21336523386E+02  0.29175389181E+01  0.32022374680E+02  0.00000000000E+00 0.  1.
</event>
<event>
 7    1  0.4836188E-013  0.5052891E+02  0.7816164E-02  0.1300439E+00
        -11   -1    0    0    0    0  0.00000000000E+00  0.00000000000E+00  0.45593999997E+02  0.45594000000E+02  0.51100000000E-03 0.  1.
         11   -1    0    0    0    0 -0.00000000000E+00 -0.00000000000E+00 -0.45593999997E+02  0.45594000000E+02  0.51100000000E-03 0. -1.
    9900012    2    1    2    0    0 -0.23183802469E+02 -0.35635353279E+01  0.33211048542E+02  0.50528914592E+02  0.30000166394E+02 0.  0.
         12    1    1    2    0    0  0.23183802469E+02  0.35635353279E+01 -0.33211048542E+02  0.40659085408E+02  0.00000000000E+00 0. -1.
         11    1    3    3    0    0 -0.18440530248E+01 -0.89439774387E+01  0.19633246441E+02  0.21653166745E+02  0.51100000000E-03 0.  1.
        -11    1    3    3    0    0 -0.53160179476E+01  0.75949552073E+01  0.57082293854E+01  0.10887023211E+02  0.51100000000E-03 0. -1.
        -12    1    3    3    0    0 -0.16023731497E+02 -0.22145130964E+01  0.78695727148E+01  0.17988724637E+02  0.00000000000E+00 0.  1.
</event>
<event>
 7    1  0.4836188E-013  0.5052887E+02  0.7816164E-02  0.1300439E+00
        -11   -1    0    0    0    0  0.00000000000E+00  0.00000000000E+00  0.45593999997E+02  0.45594000000E+02  0.51100000000E-03 0.  1.
         11   -1    0    0    0    0 -0.00000000000E+00 -0.00000000000E+00 -0.45593999997E+02  0.45594000000E+02  0.51100000000E-03 0. -1.
    9900012    2    1    2    0    0  0.36642934902E+02  0.17349606941E+02  0.30742786483E+01  0.50528871524E+02  0.30000035484E+02 0.  0.
         12    1    1    2    0    0 -0.36642934902E+02 -0.17349606941E+02 -0.30742786483E+01  0.40659128476E+02  0.00000000000E+00 0. -1.
         11    1    3    3    0    0  0.60101568911E+01 -0.49872316229E+01  0.70023334963E+01  0.10489382240E+02  0.51100000000E-03 0. -1.
        -11    1    3    3    0    0  0.58970782345E+01  0.11185520506E+02 -0.15888595933E+00  0.12645815343E+02  0.51100000000E-03 0.  1.
        -12    1    3    3    0    0  0.24735699776E+02  0.11151318059E+02 -0.37691688887E+01  0.27393673941E+02  0.00000000000E+00 0.  1.
</event>
<event>
 7    1  0.4836188E-013  0.5052883E+02  0.7816164E-02  0.1300439E+00
        -11   -1    0    0    0    0  0.00000000000E+00  0.00000000000E+00  0.45593999997E+02  0.45594000000E+02  0.51100000000E-03 0. -1.
         11   -1    0    0    0    0 -0.00000000000E+00 -0.00000000000E+00 -0.45593999997E+02  0.45594000000E+02  0.51100000000E-03 0.  1.
    9900012    2    1    2    0    0  0.13130650973E+02 -0.11934435436E+02 -0.36583098195E+02  0.50528833534E+02  0.29999920009E+02 0.  0.
         12    1    1    2    0    0 -0.13130650973E+02  0.11934435436E+02  0.36583098195E+02  0.40659166466E+02  0.00000000000E+00 0. -1.
         11    1    3    3    0    0 -0.26075265300E+01 -0.89675209314E+01 -0.13371928849E+01  0.94341778302E+01  0.51100000000E-03 0. -1.
        -11    1    3    3    0    0  0.15216315796E+01  0.39640989317E+01 -0.13858954369E+02  0.14494828715E+02  0.51100000000E-03 0.  1.
        -12    1    3    3    0    0  0.14216545924E+02 -0.69310134366E+01 -0.21386950941E+02  0.26599826989E+02  0.00000000000E+00 0.  1.
</event>
<event>
 7    1  0.4836188E-013  0.5052886E+02  0.7816164E-02  0.1300439E+00
        -11   -1    0    0    0    0  0.00000000000E+00  0.00000000000E+00  0.45593999997E+02  0.45594000000E+02  0.51100000000E-03 0.  1.
         11   -1    0    0    0    0 -0.00000000000E+00 -0.00000000000E+00 -0.45593999997E+02  0.45594000000E+02  0.51100000000E-03 0. -1.
    9900012    2    1    2    0    0  0.27724789801E+02 -0.22170890360E+02 -0.19823047516E+02  0.50528861277E+02  0.30000004337E+02 0.  0.
         12    1    1    2    0    0 -0.27724789801E+02  0.22170890360E+02  0.19823047516E+02  0.40659138723E+02  0.00000000000E+00 0. -1.
         11    1    3    3    0    0  0.51692640651E+00  0.32609291116E+01 -0.62193754745E+00  0.33597139990E+01  0.51100000000E-03 0. -1.
        -11    1    3    3    0    0  0.18112900560E+02 -0.98983324197E+01  0.28293354133E+00  0.20643018264E+02  0.51100000000E-03 0.  1.
        -12    1    3    3    0    0  0.90949628344E+01 -0.15533487052E+02 -0.19484043510E+02  0.26526129014E+02  0.00000000000E+00 0.  1.
</event>
<event>
 7    1  0.4836188E-013  0.5052887E+02  0.7816164E-02  0.1300439E+00
        -11   -1    0    0    0    0  0.00000000000E+00  0.00000000000E+00  0.45593999997E+02  0.45594000000E+02  0.51100000000E-03 0.  1.
         11   -1    0    0    0    0 -0.00000000000E+00 -0.00000000000E+00 -0.45593999997E+02  0.45594000000E+02  0.51100000000E-03 0. -1.
    9900012    2    1    2    0    0 -0.10799033630E+02  0.20251929919E+02  0.33561960602E+02  0.50528868280E+02  0.30000025624E+02 0.  0.
         12    1    1    2    0    0  0.10799033630E+02 -0.20251929919E+02 -0.33561960602E+02  0.40659131720E+02  0.00000000000E+00 0. -1.
         11    1    3    3    0    0  0.75355297967E+00  0.18768948652E+01 -0.18727536408E+01  0.27564076056E+01  0.51100000000E-03 0.  1.
        -11    1    3    3    0    0  0.28714823047E+01 -0.38794186379E+01  0.23428946562E+01  0.53651146517E+01  0.51100000000E-03 0. -1.
        -12    1    3    3    0    0 -0.14424068914E+02  0.22254453692E+02  0.33091819586E+02  0.42407346023E+02  0.00000000000E+00 0.  1.
</event>
<event>
 7    1  0.4836188E-013  0.5052886E+02  0.7816164E-02  0.1300439E+00
        -11   -1    0    0    0    0  0.00000000000E+00  0.00000000000E+00  0.45593999997E+02  0.45594000000E+02  0.51100000000E-03 0. -1.
         11   -1    0    0    0    0 -0.00000000000E+00 -0.00000000000E+00 -0.45593999997E+02  0.45594000000E+02  0.51100000000E-03 0.  1.
    9900012    2    1    2    0    0  0.33788768460E+02 -0.10717245043E+02 -0.19915454903E+02  0.50528861306E+02  0.30000004424E+02 0.  0.
         12    1    1    2    0    0 -0.33788768460E+02  0.10717245043E+02  0.19915454903E+02  0.40659138694E+02  0.00000000000E+00 0. -1.
         11    1    3    3    0    0  0.48922684218E+01  0.20101462986E+01 -0.12246865668E+01  0.54290732082E+01  0.51100000000E-03 0. -1.
        -11    1    3    3    0    0  0.29524645253E+02 -0.11702647303E+02 -0.23903905563E+02  0.39749884687E+02  0.51100000000E-03 0.  1.
         12    1    3    3    0    0 -0.62814521474E+00 -0.10247440387E+01  0.52131372264E+01  0.53499034101E+01  0.00000000000E+00 0. -1.
</event>
<event>
 7    1  0.4836188E-013  0.5052885E+02  0.7816164E-02  0.1300439E+00
        -11   -1    0    0    0    0  0.00000000000E+00  0.00000000000E+00  0.45593999997E+02  0.45594000000E+02  0.51100000000E-03 0.  1.
         11   -1    0    0    0    0 -0.00000000000E+00 -0.00000000000E+00 -0.45593999997E+02  0.45594000000E+02  0.51100000000E-03 0. -1.
    9900012    2    1    2    0    0 -0.37031922710E+02  0.16166157632E+02 -0.45230698581E+01  0.50528854495E+02  0.29999983724E+02 0.  0.
         12    1    1    2    0    0  0.37031922710E+02 -0.16166157632E+02  0.45230698581E+01  0.40659145505E+02  0.00000000000E+00 0. -1.
         11    1    3    3    0    0  0.24562465920E+01  0.20998439871E+01  0.78119978355E+00  0.33245699652E+01  0.51100000000E-03 0. -1.
        -11    1    3    3    0    0 -0.18854720346E+02  0.10442124860E+02  0.72996247555E+01  0.22755723956E+02  0.51100000000E-03 0.  1.
        -12    1    3    3    0    0 -0.20633448956E+02  0.36241887851E+01 -0.12603894397E+02  0.24448560574E+02  0.00000000000E+00 0.  1.
</event>
<event>
 7    1  0.4836188E-013  0.5052887E+02  0.7816164E-02  0.1300439E+00
        -11   -1    0    0    0    0  0.00000000000E+00  0.00000000000E+00  0.45593999997E+02  0.45594000000E+02  0.51100000000E-03 0.  1.
         11   -1    0    0    0    0 -0.00000000000E+00 -0.00000000000E+00 -0.45593999997E+02  0.45594000000E+02  0.51100000000E-03 0. -1.
    9900012    2    1    2    0    0 -0.33475063028E+02  0.11989545373E+02  0.19718923917E+02  0.50528868142E+02  0.30000025204E+02 0.  0.
         12    1    1    2    0    0  0.33475063028E+02 -0.11989545373E+02 -0.19718923917E+02  0.40659131858E+02  0.00000000000E+00 0. -1.
         11    1    3    3    0    0 -0.23213588038E+02 -0.15787009101E+01  0.76297342956E+01  0.24486237192E+02  0.51100000000E-03 0. -1.
        -11    1    3    3    0    0 -0.62658345739E+01 -0.22744634007E+01  0.43825119680E+01  0.79774856991E+01  0.51100000000E-03 0.  1.
        -12    1    3    3    0    0 -0.39956404166E+01  0.15842709684E+02  0.77066776530E+01  0.18065145250E+02  0.00000000000E+00 0.  1.
</event>
<event>
 7    1  0.4836188E-013  0.5052884E+02  0.7816164E-02  0.1300439E+00
        -11   -1    0    0    0    0  0.00000000000E+00  0.00000000000E+00  0.45593999997E+02  0.45594000000E+02  0.51100000000E-03 0. -1.
         11   -1    0    0    0    0 -0.00000000000E+00 -0.00000000000E+00 -0.45593999997E+02  0.45594000000E+02  0.51100000000E-03 0.  1.
    9900012    2    1    2    0    0 -0.23847269033E+02 -0.16325461613E+02 -0.28599906218E+02  0.50528836545E+02  0.29999929161E+02 0.  0.
         12    1    1    2    0    0  0.23847269033E+02  0.16325461613E+02  0.28599906218E+02  0.40659163455E+02  0.00000000000E+00 0. -1.
         11    1    3    3    0    0 -0.57237129207E+00  0.36746333407E+01  0.30088219180E+01  0.47836752272E+01  0.51100000000E-03 0. -1.
        -11    1    3    3    0    0 -0.35643289299E+01 -0.77319263740E+01 -0.32936926746E+01  0.91288300384E+01  0.51100000000E-03 0.  1.
         12    1    3    3    0    0 -0.19710568811E+02 -0.12268168580E+02 -0.28315035461E+02  0.36616331279E+02  0.00000000000E+00 0. -1.
</event>
<event>
 7    1  0.4836188E-013  0.5052888E+02  0.7816164E-02  0.1300439E+00
        -11   -1    0    0    0    0  0.00000000000E+00  0.00000000000E+00  0.45593999997E+02  0.45594000000E+02  0.51100000000E-03 0.  1.
         11   -1    0    0    0    0 -0.00000000000E+00 -0.00000000000E+00 -0.45593999997E+02  0.45594000000E+02  0.51100000000E-03 0. -1.
    9900012    2    1    2    0    0 -0.11424911771E+02  0.22982518389E+01  0.38953222565E+02  0.50528879023E+02  0.30000058277E+02 0.  0.
         12    1    1    2    0    0  0.11424911771E+02 -0.22982518389E+01 -0.38953222565E+02  0.40659120977E+02  0.00000000000E+00 0. -1.
         11    1    3    3    0    0 -0.10810881575E+02 -0.59635231842E+01  0.65585064346E+01  0.13980442629E+02  0.51100000000E-03 0. -1.
        -11    1    3    3    0    0 -0.22715143638E+01  0.41820987502E+01  0.10213401738E+01  0.48675315585E+01  0.51100000000E-03 0.  1.
        -12    1    3    3    0    0  0.16574841675E+01  0.40796762728E+01  0.31373375956E+02  0.31680904835E+02  0.00000000000E+00 0.  1.
</event>
<event>
 7    1  0.4836188E-013  0.5052885E+02  0.7816164E-02  0.1300439E+00
        -11   -1    0    0    0    0  0.00000000000E+00  0.00000000000E+00  0.45593999997E+02  0.45594000000E+02  0.51100000000E-03 0. -1.
         11   -1    0    0    0    0 -0.00000000000E+00 -0.00000000000E+00 -0.45593999997E+02  0.45594000000E+02  0.51100000000E-03 0.  1.
    9900012    2    1    2    0    0 -0.23167902289E+02  0.28506003141E+02 -0.17430511902E+02  0.50528847811E+02  0.29999963407E+02 0.  0.
         12    1    1    2    0    0  0.23167902289E+02 -0.28506003141E+02  0.17430511902E+02  0.40659152189E+02  0.00000000000E+00 0. -1.
         11    1    3    3    0    0 -0.99625207131E+01  0.67549436334E+01  0.28683869847E+01  0.12373711109E+02  0.51100000000E-03 0. -1.
        -11    1    3    3    0    0  0.24576711138E+01  0.74709652860E+01  0.12103966674E+01  0.79574198055E+01  0.51100000000E-03 0.  1.
        -12    1    3    3    0    0 -0.15663052690E+02  0.14280094222E+02 -0.21509295554E+02  0.30197716897E+02  0.00000000000E+00 0.  1.
</event>
<event>
 7    1  0.4836188E-013  0.5052881E+02  0.7816164E-02  0.1300439E+00
        -11   -1    0    0    0    0  0.00000000000E+00  0.00000000000E+00  0.45593999997E+02  0.45594000000E+02  0.51100000000E-03 0.  1.
         11   -1    0    0    0    0 -0.00000000000E+00 -0.00000000000E+00 -0.45593999997E+02  0.45594000000E+02  0.51100000000E-03 0. -1.
    9900012    2    1    2    0    0  0.33965975097E+02 -0.17786861043E+02 -0.13531811835E+02  0.50528808892E+02  0.29999845106E+02 0.  0.
         12    1    1    2    0    0 -0.33965975097E+02  0.17786861043E+02  0.13531811835E+02  0.40659191108E+02  0.00000000000E+00 0. -1.
         11    1    3    3    0    0  0.72379914477E+01 -0.49097353452E+01 -0.13770934938E+02  0.16313573204E+02  0.51100000000E-03 0. -1.
        -11    1    3    3    0    0  0.14187074841E+02 -0.15246255631E+02  0.33122594417E+01  0.21087732599E+02  0.51100000000E-03 0.  1.
         12    1    3    3    0    0  0.12540908808E+02  0.23691299329E+01 -0.30731363382E+01  0.13127503088E+02  0.00000000000E+00 0. -1.
</event>
<event>
 7    1  0.4836188E-013  0.5052874E+02  0.7816164E-02  0.1300439E+00
        -11   -1    0    0    0    0  0.00000000000E+00  0.00000000000E+00  0.45593999997E+02  0.45594000000E+02  0.51100000000E-03 0.  1.
         11   -1    0    0    0    0 -0.00000000000E+00 -0.00000000000E+00 -0.45593999997E+02  0.45594000000E+02  0.51100000000E-03 0. -1.
    9900012    2    1    2    0    0  0.10249543231E+02  0.15623492412E+02  0.36111336871E+02  0.50528741495E+02  0.29999640245E+02 0.  0.
         12    1    1    2    0    0 -0.10249543231E+02 -0.15623492412E+02 -0.36111336871E+02  0.40659258505E+02  0.00000000000E+00 0. -1.
         11    1    3    3    0    0 -0.25850933689E+01  0.62237159722E+01  0.17181131983E+01  0.69548013236E+01  0.51100000000E-03 0. -1.
        -11    1    3    3    0    0 -0.51905747321E+01  0.59293525710E+01  0.66684817068E+01  0.10323174730E+02  0.51100000000E-03 0.  1.
         12    1    3    3    0    0  0.18025211332E+02  0.34704238691E+01  0.27724741966E+02  0.33250765442E+02  0.00000000000E+00 0. -1.
</event>
<event>
 7    1  0.4836188E-013  0.5052885E+02  0.7816164E-02  0.1300439E+00
        -11   -1    0    0    0    0  0.00000000000E+00  0.00000000000E+00  0.45593999997E+02  0.45594000000E+02  0.51100000000E-03 0. -1.
         11   -1    0    0    0    0 -0.00000000000E+00 -0.00000000000E+00 -0.45593999997E+02  0.45594000000E+02  0.51100000000E-03 0.  1.
    9900012    2    1    2    0    0 -0.80124875735E+01 -0.20839356933E+02 -0.33980698682E+02  0.50528848048E+02  0.29999964127E+02 0.  0.
         12    1    1    2    0    0  0.80124875735E+01  0.20839356933E+02  0.33980698682E+02  0.40659151952E+02  0.00000000000E+00 0. -1.
         11    1    3    3    0    0 -0.98940385730E+00 -0.28026226339E+01 -0.36375390117E+01  0.46973720252E+01  0.51100000000E-03 0.  1.
        -11    1    3    3    0    0  0.67570432026E+01 -0.18590606543E+02 -0.12985743352E+02  0.23662159984E+02  0.51100000000E-03 0. -1.
        -12    1    3    3    0    0 -0.13780126919E+02  0.55387224311E+00 -0.17357416319E+02  0.22169316039E+02  0.00000000000E+00 0.  1.
</event>
<event>
 7    1  0.4836188E-013  0.5052885E+02  0.7816164E-02  0.1300439E+00
        -11   -1    0    0    0    0  0.00000000000E+00  0.00000000000E+00  0.45593999997E+02  0.45594000000E+02  0.51100000000E-03 0.  1.
         11   -1    0    0    0    0 -0.00000000000E+00 -0.00000000000E+00 -0.45593999997E+02  0.45594000000E+02  0.51100000000E-03 0. -1.
    9900012    2    1    2    0    0 -0.16840965330E+01 -0.23845852184E+02  0.32889294137E+02  0.50528849537E+02  0.29999968653E+02 0.  0.
         12    1    1    2    0    0  0.16840965330E+01  0.23845852184E+02 -0.32889294137E+02  0.40659150463E+02  0.00000000000E+00 0. -1.
         11    1    3    3    0    0 -0.68904942541E+01  0.15463569308E+01 -0.39864108066E-01  0.70619912370E+01  0.51100000000E-03 0. -1.
        -11    1    3    3    0    0  0.44687671665E+01 -0.55001726477E+01  0.15362678410E+02  0.16918441634E+02  0.51100000000E-03 0.  1.
        -12    1    3    3    0    0  0.73763055460E+00 -0.19892036467E+02  0.17566479835E+02  0.26548416666E+02  0.00000000000E+00 0.  1.
</event>
<event>
 7    1  0.4836188E-013  0.5052885E+02  0.7816164E-02  0.1300439E+00
        -11   -1    0    0    0    0  0.00000000000E+00  0.00000000000E+00  0.45593999997E+02  0.45594000000E+02  0.51100000000E-03 0.  1.
         11   -1    0    0    0    0 -0.00000000000E+00 -0.00000000000E+00 -0.45593999997E+02  0.45594000000E+02  0.51100000000E-03 0. -1.
    9900012    2    1    2    0    0  0.13696177556E+02 -0.30681069985E+02  0.22896582057E+02  0.50528845988E+02  0.29999957866E+02 0.  0.
         12    1    1    2    0    0 -0.13696177556E+02  0.30681069985E+02 -0.22896582057E+02  0.40659154012E+02  0.00000000000E+00 0. -1.
         11    1    3    3    0    0  0.61369109241E+00 -0.53409345298E+00  0.82858663572E+01  0.83257104276E+01  0.51100000000E-03 0. -1.
        -11    1    3    3    0    0  0.12739073146E+02 -0.30431731031E+02  0.18812711813E+02  0.37977524461E+02  0.51100000000E-03 0.  1.
         12    1    3    3    0    0  0.34341331703E+00  0.28475449932E+00 -0.42019961131E+01  0.42256110997E+01  0.00000000000E+00 0. -1.
</event>
<event>
 7    1  0.4836188E-013  0.5052886E+02  0.7816164E-02  0.1300439E+00
        -11   -1    0    0    0    0  0.00000000000E+00  0.00000000000E+00  0.45593999997E+02  0.45594000000E+02  0.51100000000E-03 0.  1.
         11   -1    0    0    0    0 -0.00000000000E+00 -0.00000000000E+00 -0.45593999997E+02  0.45594000000E+02  0.51100000000E-03 0. -1.
    9900012    2    1    2    0    0  0.11669322445E+02  0.17004398022E+02  0.35040585632E+02  0.50528864743E+02  0.30000014872E+02 0.  0.
         12    1    1    2    0    0 -0.11669322445E+02 -0.17004398022E+02 -0.35040585632E+02  0.40659135257E+02  0.00000000000E+00 0. -1.
         11    1    3    3    0    0  0.11433827683E+02  0.54431200098E+01  0.23130831565E+02  0.26370349639E+02  0.51100000000E-03 0.  1.
        -11    1    3    3    0    0  0.76516351194E+01  0.35225850100E+01  0.99677330147E+01  0.13050357346E+02  0.51100000000E-03 0. -1.
         12    1    3    3    0    0 -0.74161403580E+01  0.80386930018E+01  0.19420210524E+01  0.11108157757E+02  0.00000000000E+00 0. -1.
</event>
<event>
 7    1  0.4836188E-013  0.5052886E+02  0.7816164E-02  0.1300439E+00
        -11   -1    0    0    0    0  0.00000000000E+00  0.00000000000E+00  0.45593999997E+02  0.45594000000E+02  0.51100000000E-03 0.  1.
         11   -1    0    0    0    0 -0.00000000000E+00 -0.00000000000E+00 -0.45593999997E+02  0.45594000000E+02  0.51100000000E-03 0. -1.
    9900012    2    1    2    0    0 -0.12266780540E+02  0.11270169377E+01  0.38748182360E+02  0.50528859475E+02  0.29999998861E+02 0.  0.
         12    1    1    2    0    0  0.12266780540E+02 -0.11270169377E+01 -0.38748182360E+02  0.40659140525E+02  0.00000000000E+00 0. -1.
         11    1    3    3    0    0 -0.74270935235E+01  0.73701277455E+01  0.78725902026E+01  0.13094203983E+02  0.51100000000E-03 0. -1.
        -11    1    3    3    0    0 -0.39966510407E+01 -0.49769059776E+01 -0.13729286565E+00  0.63844860594E+01  0.51100000000E-03 0.  1.
        -12    1    3    3    0    0 -0.84303597545E+00 -0.12662048302E+01  0.31012885023E+02  0.31050169433E+02  0.00000000000E+00 0.  1.
</event>
<event>
 7    1  0.4836188E-013  0.5052886E+02  0.7816164E-02  0.1300439E+00
        -11   -1    0    0    0    0  0.00000000000E+00  0.00000000000E+00  0.45593999997E+02  0.45594000000E+02  0.51100000000E-03 0. -1.
         11   -1    0    0    0    0 -0.00000000000E+00 -0.00000000000E+00 -0.45593999997E+02  0.45594000000E+02  0.51100000000E-03 0.  1.
    9900012    2    1    2    0    0 -0.84427360129E+00  0.23650756337E+02  0.33061978856E+02  0.50528861801E+02  0.30000005929E+02 0.  0.
         12    1    1    2    0    0  0.84427360129E+00 -0.23650756337E+02 -0.33061978856E+02  0.40659138199E+02  0.00000000000E+00 0. -1.
         11    1    3    3    0    0 -0.99912827736E+01  0.15091946229E+02  0.18924480995E+02  0.26186419259E+02  0.51100000000E-03 0. -1.
        -11    1    3    3    0    0 -0.29106318063E+01  0.58933951153E+01  0.16427330517E+01  0.67751351010E+01  0.51100000000E-03 0.  1.
        -12    1    3    3    0    0  0.12057640979E+02  0.26654149927E+01  0.12494764810E+02  0.17567307440E+02  0.00000000000E+00 0.  1.
</event>
<event>
 7    1  0.4836188E-013  0.5052886E+02  0.7816164E-02  0.1300439E+00
        -11   -1    0    0    0    0  0.00000000000E+00  0.00000000000E+00  0.45593999997E+02  0.45594000000E+02  0.51100000000E-03 0.  1.
         11   -1    0    0    0    0 -0.00000000000E+00 -0.00000000000E+00 -0.45593999997E+02  0.45594000000E+02  0.51100000000E-03 0. -1.
    9900012    2    1    2    0    0 -0.69462371759E+01  0.34154232830E+02 -0.20938098699E+02  0.50528858245E+02  0.29999995122E+02 0.  0.
         12    1    1    2    0    0  0.69462371759E+01 -0.34154232830E+02  0.20938098699E+02  0.40659141755E+02  0.00000000000E+00 0. -1.
         11    1    3    3    0    0 -0.48231216697E+01  0.31503912128E+02 -0.99139952664E+01  0.33377331895E+02  0.51100000000E-03 0. -1.
        -11    1    3    3    0    0 -0.23339550989E+01  0.71004191207E+01 -0.10160592985E+02  0.12613522432E+02  0.51100000000E-03 0.  1.
         12    1    3    3    0    0  0.21083959267E+00 -0.44500984185E+01 -0.86351044797E+00  0.45380039182E+01  0.00000000000E+00 0. -1.
</event>
<event>
 7    1  0.4836188E-013  0.5052888E+02  0.7816164E-02  0.1300439E+00
        -11   -1    0    0    0    0  0.00000000000E+00  0.00000000000E+00  0.45593999997E+02  0.45594000000E+02  0.51100000000E-03 0. -1.
         11   -1    0    0    0    0 -0.00000000000E+00 -0.00000000000E+00 -0.45593999997E+02  0.45594000000E+02  0.51100000000E-03 0.  1.
    9900012    2    1    2    0    0 -0.24517235456E+02  0.27068253419E+02  0.17871170180E+02  0.50528881697E+02  0.30000066407E+02 0.  0.
         12    1    1    2    0    0  0.24517235456E+02 -0.27068253419E+02 -0.17871170180E+02  0.40659118303E+02  0.00000000000E+00 0. -1.
         11    1    3    3    0    0 -0.10035071073E+02 -0.40619542997E+01  0.97634263998E+00  0.10869929594E+02  0.51100000000E-03 0. -1.
        -11    1    3    3    0    0  0.31665913856E+00  0.82577107306E+01  0.16023503145E+01  0.84176948336E+01  0.51100000000E-03 0.  1.
        -12    1    3    3    0    0 -0.14798823522E+02  0.22872496988E+02  0.15292477226E+02  0.31241257270E+02  0.00000000000E+00 0.  1.
</event>
<event>
 7    1  0.4836188E-013  0.5052888E+02  0.7816164E-02  0.1300439E+00
        -11   -1    0    0    0    0  0.00000000000E+00  0.00000000000E+00  0.45593999997E+02  0.45594000000E+02  0.51100000000E-03 0.  1.
         11   -1    0    0    0    0 -0.00000000000E+00 -0.00000000000E+00 -0.45593999997E+02  0.45594000000E+02  0.51100000000E-03 0. -1.
    9900012    2    1    2    0    0  0.29485395638E+02 -0.24415552919E+02  0.13698770541E+02  0.50528879318E+02  0.30000059176E+02 0.  0.
         12    1    1    2    0    0 -0.29485395638E+02  0.24415552919E+02 -0.13698770541E+02  0.40659120682E+02  0.00000000000E+00 0. -1.
         11    1    3    3    0    0  0.55941757057E+01 -0.11857538626E+02  0.12672910026E+02  0.18234546139E+02  0.51100000000E-03 0. -1.
        -11    1    3    3    0    0  0.42426212556E+01  0.21154124654E+01  0.56118020492E+01  0.73462321987E+01  0.51100000000E-03 0.  1.
         12    1    3    3    0    0  0.19648598677E+02 -0.14673426758E+02 -0.45859415348E+01  0.24948100981E+02  0.00000000000E+00 0. -1.
</event>
<event>
 7    1  0.4836188E-013  0.5052886E+02  0.7816164E-02  0.1300439E+00
        -11   -1    0    0    0    0  0.00000000000E+00  0.00000000000E+00  0.45593999997E+02  0.45594000000E+02  0.51100000000E-03 0. -1.
         11   -1    0    0    0    0 -0.00000000000E+00 -0.00000000000E+00 -0.45593999997E+02  0.45594000000E+02  0.51100000000E-03 0.  1.
    9900012    2    1    2    0    0  0.15617880183E+01  0.86693492222E+01 -0.39693438422E+02  0.50528857713E+02  0.29999993505E+02 0.  0.
         12    1    1    2    0    0 -0.15617880183E+01 -0.86693492222E+01  0.39693438422E+02  0.40659142287E+02  0.00000000000E+00 0. -1.
         11    1    3    3    0    0 -0.36489893044E+01  0.83585495036E+01 -0.16368074617E+02  0.18737511566E+02  0.51100000000E-03 0. -1.
        -11    1    3    3    0    0  0.10825432591E+02  0.69812134266E+01 -0.13747617711E+02  0.18839435360E+02  0.51100000000E-03 0.  1.
         12    1    3    3    0    0 -0.56146552682E+01 -0.66704137079E+01 -0.95777460934E+01  0.12951910787E+02  0.00000000000E+00 0. -1.
</event>
<event>
 7    1  0.4836188E-013  0.5052886E+02  0.7816164E-02  0.1300439E+00
        -11   -1    0    0    0    0  0.00000000000E+00  0.00000000000E+00  0.45593999997E+02  0.45594000000E+02  0.51100000000E-03 0. -1.
         11   -1    0    0    0    0 -0.00000000000E+00 -0.00000000000E+00 -0.45593999997E+02  0.45594000000E+02  0.51100000000E-03 0.  1.
    9900012    2    1    2    0    0 -0.88319197098E+01  0.38737182555E+02 -0.86367763740E+01  0.50528855590E+02  0.29999987050E+02 0.  0.
         12    1    1    2    0    0  0.88319197098E+01 -0.38737182555E+02  0.86367763740E+01  0.40659144410E+02  0.00000000000E+00 0. -1.
         11    1    3    3    0    0  0.23371839245E+01 -0.15560974813E+01 -0.90369518349E-01  0.28092765936E+01  0.51100000000E-03 0. -1.
        -11    1    3    3    0    0 -0.99783478296E+00  0.19063492507E+01  0.52546774023E+01  0.56781578512E+01  0.51100000000E-03 0.  1.
        -12    1    3    3    0    0 -0.10171268851E+02  0.38386930786E+02 -0.13801084258E+02  0.42041421145E+02  0.00000000000E+00 0.  1.
</event>
<event>
 7    1  0.6564564E-013  0.5052886E+02  0.7816164E-02  0.1300439E+00
        -11   -1    0    0    0    0  0.00000000000E+00  0.00000000000E+00  0.45593999997E+02  0.45594000000E+02  0.51100000000E-03 0. -1.
         11   -1    0    0    0    0 -0.00000000000E+00 -0.00000000000E+00 -0.45593999997E+02  0.45594000000E+02  0.51100000000E-03 0.  1.
    9900012    2    1    2    0    0 -0.13014765425E+02  0.27216504466E+02 -0.27258817425E+02  0.50528863735E+02  0.30000011808E+02 0.  0.
         12    1    1    2    0    0  0.13014765425E+02 -0.27216504466E+02  0.27258817425E+02  0.40659136265E+02  0.00000000000E+00 0. -1.
         11    1    3    3    0    0 -0.12768859199E+01  0.52154615683E+01  0.32040490560E+01  0.62527919874E+01  0.51100000000E-03 0. -1.
        -11    1    3    3    0    0 -0.13675156232E+02  0.18440241042E+02 -0.13070632593E+02  0.26417680146E+02  0.51100000000E-03 0.  1.
        -12    1    3    3    0    0  0.19372767268E+01  0.35608018557E+01 -0.17392233888E+02  0.17858391601E+02  0.00000000000E+00 0.  1.
</event>
<event>
 7    1  0.4836188E-013  0.5052886E+02  0.7816164E-02  0.1300439E+00
        -11   -1    0    0    0    0  0.00000000000E+00  0.00000000000E+00  0.45593999997E+02  0.45594000000E+02  0.51100000000E-03 0.  1.
         11   -1    0    0    0    0 -0.00000000000E+00 -0.00000000000E+00 -0.45593999997E+02  0.45594000000E+02  0.51100000000E-03 0. -1.
    9900012    2    1    2    0    0 -0.31110439080E+02 -0.14794195696E+02  0.21597174014E+02  0.50528861157E+02  0.30000003974E+02 0.  0.
         12    1    1    2    0    0  0.31110439080E+02  0.14794195696E+02 -0.21597174014E+02  0.40659138843E+02  0.00000000000E+00 0. -1.
         11    1    3    3    0    0 -0.63200575333E+01  0.30856392039E+01  0.43003394192E+01  0.82436166761E+01  0.51100000000E-03 0. -1.
        -11    1    3    3    0    0  0.36924657608E+01 -0.47534394448E+01  0.70981997329E+01  0.93066604998E+01  0.51100000000E-03 0.  1.
        -12    1    3    3    0    0 -0.28482847308E+02 -0.13126395455E+02  0.10198634862E+02  0.32978583982E+02  0.00000000000E+00 0.  1.
</event>
<event>
 7    1  0.4836188E-013  0.5052877E+02  0.7816164E-02  0.1300439E+00
        -11   -1    0    0    0    0  0.00000000000E+00  0.00000000000E+00  0.45593999997E+02  0.45594000000E+02  0.51100000000E-03 0.  1.
         11   -1    0    0    0    0 -0.00000000000E+00 -0.00000000000E+00 -0.45593999997E+02  0.45594000000E+02  0.51100000000E-03 0. -1.
    9900012    2    1    2    0    0  0.20314152307E+02  0.36813950609E+01  0.35027923861E+02  0.50528770992E+02  0.29999729905E+02 0.  0.
         12    1    1    2    0    0 -0.20314152307E+02 -0.36813950609E+01 -0.35027923861E+02  0.40659229008E+02  0.00000000000E+00 0. -1.
         11    1    3    3    0    0 -0.23654391750E+01 -0.17518498686E+01 -0.14604553106E+01  0.32859108978E+01  0.51100000000E-03 0. -1.
        -11    1    3    3    0    0  0.12078635489E+00 -0.51069301954E+01  0.61817250483E+01  0.80192923751E+01  0.51100000000E-03 0.  1.
        -12    1    3    3    0    0  0.22558805127E+02  0.10540175125E+02  0.30306654123E+02  0.39223567719E+02  0.00000000000E+00 0.  1.
</event>
<event>
 7    1  0.4836188E-013  0.5052886E+02  0.7816164E-02  0.1300439E+00
        -11   -1    0    0    0    0  0.00000000000E+00  0.00000000000E+00  0.45593999997E+02  0.45594000000E+02  0.51100000000E-03 0.  1.
         11   -1    0    0    0    0 -0.00000000000E+00 -0.00000000000E+00 -0.45593999997E+02  0.45594000000E+02  0.51100000000E-03 0. -1.
    9900012    2    1    2    0    0 -0.37822189121E+02  0.91652146143E+01  0.11774828926E+02  0.50528859022E+02  0.29999997484E+02 0.  0.
         12    1    1    2    0    0  0.37822189121E+02 -0.91652146143E+01 -0.11774828926E+02  0.40659140978E+02  0.00000000000E+00 0. -1.
         11    1    3    3    0    0 -0.77497075696E+01 -0.72349647242E+01  0.22982438313E+01  0.10848253636E+02  0.51100000000E-03 0.  1.
        -11    1    3    3    0    0 -0.12875873367E+02 -0.21792469555E+01  0.49335677646E+01  0.13959846826E+02  0.51100000000E-03 0. -1.
         12    1    3    3    0    0 -0.17196608184E+02  0.18579426294E+02  0.45430173303E+01  0.25720758560E+02  0.00000000000E+00 0. -1.
</event>
<event>
 7    1  0.4836188E-013  0.5052886E+02  0.7816164E-02  0.1300439E+00
        -11   -1    0    0    0    0  0.00000000000E+00  0.00000000000E+00  0.45593999997E+02  0.45594000000E+02  0.51100000000E-03 0. -1.
         11   -1    0    0    0    0 -0.00000000000E+00 -0.00000000000E+00 -0.45593999997E+02  0.45594000000E+02  0.51100000000E-03 0.  1.
    9900012    2    1    2    0    0 -0.39570951551E+02 -0.61906994189E+01  0.69986421195E+01  0.50528856410E+02  0.29999989545E+02 0.  0.
         12    1    1    2    0    0  0.39570951551E+02  0.61906994189E+01 -0.69986421195E+01  0.40659143590E+02  0.00000000000E+00 0. -1.
         11    1    3    3    0    0 -0.25352462161E+02 -0.80135820388E+01  0.39031879330E+01  0.26873773665E+02  0.51100000000E-03 0. -1.
        -11    1    3    3    0    0 -0.13269437527E+02 -0.21197750687E+01 -0.52101069568E+01  0.14412377784E+02  0.51100000000E-03 0.  1.
         12    1    3    3    0    0 -0.94905186245E+00  0.39426576885E+01  0.83055611433E+01  0.92427049608E+01  0.00000000000E+00 0. -1.
</event>
<event>
 7    1  0.4836188E-013  0.5052886E+02  0.7816164E-02  0.1300439E+00
        -11   -1    0    0    0    0  0.00000000000E+00  0.00000000000E+00  0.45593999997E+02  0.45594000000E+02  0.51100000000E-03 0.  1.
         11   -1    0    0    0    0 -0.00000000000E+00 -0.00000000000E+00 -0.45593999997E+02  0.45594000000E+02  0.51100000000E-03 0. -1.
    9900012    2    1    2    0    0 -0.55152549800E+01  0.24638774691E+02  0.31869704025E+02  0.50528864614E+02  0.30000014480E+02 0.  0.
         12    1    1    2    0    0  0.55152549800E+01 -0.24638774691E+02 -0.31869704025E+02  0.40659135386E+02  0.00000000000E+00 0. -1.
         11    1    3    3    0    0  0.25537632541E+00  0.25285559141E+02  0.95294303592E+01  0.27022856277E+02  0.51100000000E-03 0. -1.
        -11    1    3    3    0    0 -0.15640603012E+01 -0.56012943930E+00  0.14778083635E+01  0.22234989172E+01  0.51100000000E-03 0.  1.
         12    1    3    3    0    0 -0.42065710043E+01 -0.86655011337E-01  0.20862465302E+02  0.21282509419E+02  0.00000000000E+00 0. -1.
</event>
<event>
 7    1  0.4836188E-013  0.5052886E+02  0.7816164E-02  0.1300439E+00
        -11   -1    0    0    0    0  0.00000000000E+00  0.00000000000E+00  0.45593999997E+02  0.45594000000E+02  0.51100000000E-03 0.  1.
         11   -1    0    0    0    0 -0.00000000000E+00 -0.00000000000E+00 -0.45593999997E+02  0.45594000000E+02  0.51100000000E-03 0. -1.
    9900012    2    1    2    0    0 -0.33752936824E+02  0.33342652585E+01  0.22422926972E+02  0.50528859293E+02  0.29999998308E+02 0.  0.
         12    1    1    2    0    0  0.33752936824E+02 -0.33342652585E+01 -0.22422926972E+02  0.40659140707E+02  0.00000000000E+00 0. -1.
         11    1    3    3    0    0 -0.59264235905E+01 -0.54098051967E+01 -0.15375491315E+01  0.81702231569E+01  0.51100000000E-03 0. -1.
        -11    1    3    3    0    0 -0.15946404564E+02 -0.48262419131E+01  0.13957738513E+02  0.21734739340E+02  0.51100000000E-03 0.  1.
        -12    1    3    3    0    0 -0.11880108669E+02  0.13570312368E+02  0.10002737590E+02  0.20623896796E+02  0.00000000000E+00 0.  1.
</event>
<event>
 7    1  0.4836188E-013  0.5052886E+02  0.7816164E-02  0.1300439E+00
        -11   -1    0    0    0    0  0.00000000000E+00  0.00000000000E+00  0.45593999997E+02  0.45594000000E+02  0.51100000000E-03 0. -1.
         11   -1    0    0    0    0 -0.00000000000E+00 -0.00000000000E+00 -0.45593999997E+02  0.45594000000E+02  0.51100000000E-03 0.  1.
    9900012    2    1    2    0    0 -0.20671046487E+02 -0.34959533632E+02  0.19247620080E+01  0.50528857567E+02  0.29999993059E+02 0.  0.
         12    1    1    2    0    0  0.20671046487E+02  0.34959533632E+02 -0.19247620080E+01  0.40659142433E+02  0.00000000000E+00 0. -1.
         11    1    3    3    0    0 -0.88815877627E+01 -0.13695050976E+02  0.52593830666E+01  0.17149289575E+02  0.51100000000E-03 0. -1.
        -11    1    3    3    0    0 -0.18503134410E+02 -0.17070717079E+02 -0.37507043523E+01  0.25452763072E+02  0.51100000000E-03 0.  1.
         12    1    3    3    0    0  0.67136756858E+01 -0.41937655763E+01  0.41608329364E+00  0.79268049194E+01  0.00000000000E+00 0. -1.
</event>
<event>
 7    1  0.4836188E-013  0.5052889E+02  0.7816164E-02  0.1300439E+00
        -11   -1    0    0    0    0  0.00000000000E+00  0.00000000000E+00  0.45593999997E+02  0.45594000000E+02  0.51100000000E-03 0.  1.
         11   -1    0    0    0    0 -0.00000000000E+00 -0.00000000000E+00 -0.45593999997E+02  0.45594000000E+02  0.51100000000E-03 0. -1.
    9900012    2    1    2    0    0 -0.14472231562E+02 -0.10878182432E+02  0.36405812600E+02  0.50528886256E+02  0.30000080264E+02 0.  0.
         12    1    1    2    0    0  0.14472231562E+02  0.10878182432E+02 -0.36405812600E+02  0.40659113744E+02  0.00000000000E+00 0. -1.
         11    1    3    3    0    0 -0.10965616028E+02 -0.94313610340E+01  0.35801643018E+02  0.38612859890E+02  0.51100000000E-03 0.  1.
        -11    1    3    3    0    0  0.34780835707E+01 -0.31916213735E+00  0.28339882621E+01  0.44978238656E+01  0.51100000000E-03 0. -1.
        -12    1    3    3    0    0 -0.69846991046E+01 -0.11276592602E+01 -0.22298186804E+01  0.74182025004E+01  0.00000000000E+00 0.  1.
</event>
<event>
 7    1  0.4836188E-013  0.5052895E+02  0.7816164E-02  0.1300438E+00
        -11   -1    0    0    0    0  0.00000000000E+00  0.00000000000E+00  0.45593999997E+02  0.45594000000E+02  0.51100000000E-03 0. -1.
         11   -1    0    0    0    0 -0.00000000000E+00 -0.00000000000E+00 -0.45593999997E+02  0.45594000000E+02  0.51100000000E-03 0.  1.
    9900012    2    1    2    0    0  0.23649613865E+02 -0.24134304235E+02 -0.22613913849E+02  0.50528954555E+02  0.30000287865E+02 0.  0.
         12    1    1    2    0    0 -0.23649613865E+02  0.24134304235E+02  0.22613913849E+02  0.40659045445E+02  0.00000000000E+00 0. -1.
         11    1    3    3    0    0  0.32642278881E+01  0.60364849335E+01 -0.30913356746E+01  0.75266653023E+01  0.51100000000E-03 0. -1.
        -11    1    3    3    0    0  0.87073327612E+00 -0.41897714235E+01 -0.69486989670E+01  0.81606849353E+01  0.51100000000E-03 0.  1.
         12    1    3    3    0    0  0.19514652701E+02 -0.25981017745E+02 -0.12573879208E+02  0.34841604318E+02  0.00000000000E+00 0. -1.
</event>
<event>
 7    1  0.4836188E-013  0.5052885E+02  0.7816164E-02  0.1300439E+00
        -11   -1    0    0    0    0  0.00000000000E+00  0.00000000000E+00  0.45593999997E+02  0.45594000000E+02  0.51100000000E-03 0.  1.
         11   -1    0    0    0    0 -0.00000000000E+00 -0.00000000000E+00 -0.45593999997E+02  0.45594000000E+02  0.51100000000E-03 0. -1.
    9900012    2    1    2    0    0 -0.21850914350E+01 -0.40411718818E+02  0.39096296506E+01  0.50528845478E+02  0.29999956316E+02 0.  0.
         12    1    1    2    0    0  0.21850914350E+01  0.40411718818E+02 -0.39096296506E+01  0.40659154522E+02  0.00000000000E+00 0. -1.
         11    1    3    3    0    0 -0.64348431266E+01 -0.13162967541E+02  0.15724366151E+01  0.14735789009E+02  0.51100000000E-03 0. -1.
        -11    1    3    3    0    0 -0.47589170367E+01  0.33389697124E+00 -0.38426576826E+01  0.61257486789E+01  0.51100000000E-03 0.  1.
        -12    1    3    3    0    0  0.90086687284E+01 -0.27582648248E+02  0.61798507181E+01  0.29667307790E+02  0.00000000000E+00 0.  1.
</event>
<event>
 7    1  0.4836188E-013  0.5052886E+02  0.7816164E-02  0.1300439E+00
        -11   -1    0    0    0    0  0.00000000000E+00  0.00000000000E+00  0.45593999997E+02  0.45594000000E+02  0.51100000000E-03 0.  1.
         11   -1    0    0    0    0 -0.00000000000E+00 -0.00000000000E+00 -0.45593999997E+02  0.45594000000E+02  0.51100000000E-03 0. -1.
    9900012    2    1    2    0    0 -0.18853420389E+02 -0.34500713156E+02  0.10364125529E+02  0.50528858757E+02  0.29999996678E+02 0.  0.
         12    1    1    2    0    0  0.18853420389E+02  0.34500713156E+02 -0.10364125529E+02  0.40659141243E+02  0.00000000000E+00 0. -1.
         11    1    3    3    0    0 -0.41505780872E+01  0.10770978265E+01  0.46752697172E+01  0.63439408396E+01  0.51100000000E-03 0. -1.
        -11    1    3    3    0    0 -0.89836495678E+01 -0.19233826503E+02  0.13533158317E+02  0.25175234175E+02  0.51100000000E-03 0.  1.
         12    1    3    3    0    0 -0.57191927341E+01 -0.16343984479E+02 -0.78443025045E+01  0.19009683742E+02  0.00000000000E+00 0. -1.
</event>
<event>
 7    1  0.4836188E-013  0.5052887E+02  0.7816164E-02  0.1300439E+00
        -11   -1    0    0    0    0  0.00000000000E+00  0.00000000000E+00  0.45593999997E+02  0.45594000000E+02  0.51100000000E-03 0.  1.
         11   -1    0    0    0    0 -0.00000000000E+00 -0.00000000000E+00 -0.45593999997E+02  0.45594000000E+02  0.51100000000E-03 0. -1.
    9900012    2    1    2    0    0 -0.19448816025E+02  0.35574069728E+02  0.30650083788E+01  0.50528866239E+02  0.30000019421E+02 0.  0.
         12    1    1    2    0    0  0.19448816025E+02 -0.35574069728E+02 -0.30650083788E+01  0.40659133761E+02  0.00000000000E+00 0. -1.
         11    1    3    3    0    0 -0.59112934272E+01 -0.11857916053E+01 -0.94392313620E+00  0.61024980837E+01  0.51100000000E-03 0. -1.
        -11    1    3    3    0    0 -0.17261459816E+02  0.36307244337E+02  0.22004191791E+01  0.40261840881E+02  0.51100000000E-03 0.  1.
         12    1    3    3    0    0  0.37239372182E+01  0.45261699691E+00  0.18085123359E+01  0.41645272745E+01  0.00000000000E+00 0. -1.
</event>
<event>
 7    1  0.4836188E-013  0.5052886E+02  0.7816164E-02  0.1300439E+00
        -11   -1    0    0    0    0  0.00000000000E+00  0.00000000000E+00  0.45593999997E+02  0.45594000000E+02  0.51100000000E-03 0.  1.
         11   -1    0    0    0    0 -0.00000000000E+00 -0.00000000000E+00 -0.45593999997E+02  0.45594000000E+02  0.51100000000E-03 0. -1.
    9900012    2    1    2    0    0 -0.34152987674E+02  0.13551543637E+02  0.17409606473E+02  0.50528864501E+02  0.30000014137E+02 0.  0.
         12    1    1    2    0    0  0.34152987674E+02 -0.13551543637E+02 -0.17409606473E+02  0.40659135499E+02  0.00000000000E+00 0. -1.
         11    1    3    3    0    0 -0.61932167687E+01  0.67767680059E+01 -0.21787579715E+01  0.94354387874E+01  0.51100000000E-03 0.  1.
        -11    1    3    3    0    0 -0.12960457860E+02 -0.44682652091E+01 -0.36776155419E+00  0.13714011475E+02  0.51100000000E-03 0. -1.
        -12    1    3    3    0    0 -0.14999313045E+02  0.11243040840E+02  0.19956125999E+02  0.27379414238E+02  0.00000000000E+00 0.  1.
</event>
<event>
 7    1  0.5090378E-013  0.5052886E+02  0.7816164E-02  0.1300439E+00
        -11   -1    0    0    0    0  0.00000000000E+00  0.00000000000E+00  0.45593999997E+02  0.45594000000E+02  0.51100000000E-03 0.  1.
         11   -1    0    0    0    0 -0.00000000000E+00 -0.00000000000E+00 -0.45593999997E+02  0.45594000000E+02  0.51100000000E-03 0. -1.
    9900012    2    1    2    0    0  0.20988807819E+02  0.31720038860E+02  0.14369219494E+02  0.50528863415E+02  0.30000010837E+02 0.  0.
         12    1    1    2    0    0 -0.20988807819E+02 -0.31720038860E+02 -0.14369219494E+02  0.40659136585E+02  0.00000000000E+00 0. -1.
         11    1    3    3    0    0  0.14537699779E+01 -0.39686514895E+01  0.35966594302E+01  0.55497388327E+01  0.51100000000E-03 0. -1.
        -11    1    3    3    0    0  0.10508571843E+02  0.85880433804E+01 -0.19476719224E+01  0.13710506827E+02  0.51100000000E-03 0.  1.
        -12    1    3    3    0    0  0.90264659984E+01  0.27100646969E+02  0.12720231987E+02  0.31268617756E+02  0.00000000000E+00 0.  1.
</event>
<event>
 7    1  0.4836188E-013  0.5052886E+02  0.7816164E-02  0.1300439E+00
        -11   -1    0    0    0    0  0.00000000000E+00  0.00000000000E+00  0.45593999997E+02  0.45594000000E+02  0.51100000000E-03 0.  1.
         11   -1    0    0    0    0 -0.00000000000E+00 -0.00000000000E+00 -0.45593999997E+02  0.45594000000E+02  0.51100000000E-03 0. -1.
    9900012    2    1    2    0    0 -0.28550932938E+02 -0.23597261648E+01  0.28852057554E+02  0.50528864442E+02  0.30000013958E+02 0.  0.
         12    1    1    2    0    0  0.28550932938E+02  0.23597261648E+01 -0.28852057554E+02  0.40659135558E+02  0.00000000000E+00 0. -1.
         11    1    3    3    0    0  0.43787035590E+01  0.28124857237E+01  0.70152308994E+01  0.87347916767E+01  0.51100000000E-03 0. -1.
        -11    1    3    3    0    0 -0.84504662868E+01 -0.11935080059E+01  0.12829159670E+02  0.15408509984E+02  0.51100000000E-03 0.  1.
         12    1    3    3    0    0 -0.24479170211E+02 -0.39787038826E+01  0.90076669838E+01  0.26385562781E+02  0.00000000000E+00 0. -1.
</event>
<event>
 7    1  0.4836188E-013  0.5052887E+02  0.7816164E-02  0.1300439E+00
        -11   -1    0    0    0    0  0.00000000000E+00  0.00000000000E+00  0.45593999997E+02  0.45594000000E+02  0.51100000000E-03 0.  1.
         11   -1    0    0    0    0 -0.00000000000E+00 -0.00000000000E+00 -0.45593999997E+02  0.45594000000E+02  0.51100000000E-03 0. -1.
    9900012    2    1    2    0    0  0.36296592770E+02 -0.98209310889E+01 -0.15468414144E+02  0.50528866090E+02  0.30000018968E+02 0.  0.
         12    1    1    2    0    0 -0.36296592770E+02  0.98209310889E+01  0.15468414144E+02  0.40659133910E+02  0.00000000000E+00 0. -1.
         11    1    3    3    0    0  0.83117013694E+01  0.74036994986E+00 -0.85168975189E+01  0.11923509170E+02  0.51100000000E-03 0. -1.
        -11    1    3    3    0    0  0.69662060059E+00  0.54279735714E+01  0.18485768878E+01  0.57762803018E+01  0.51100000000E-03 0.  1.
        -12    1    3    3    0    0  0.27288270800E+02 -0.15989274610E+02 -0.88000935131E+01  0.32829076619E+02  0.00000000000E+00 0.  1.
</event>
<event>
 7    1  0.4836188E-013  0.5052886E+02  0.7816164E-02  0.1300439E+00
        -11   -1    0    0    0    0  0.00000000000E+00  0.00000000000E+00  0.45593999997E+02  0.45594000000E+02  0.51100000000E-03 0. -1.
         11   -1    0    0    0    0 -0.00000000000E+00 -0.00000000000E+00 -0.45593999997E+02  0.45594000000E+02  0.51100000000E-03 0.  1.
    9900012    2    1    2    0    0  0.47925786291E+01 -0.39905703048E+02  0.61426242138E+01  0.50528858618E+02  0.29999996256E+02 0.  0.
         12    1    1    2    0    0 -0.47925786291E+01  0.39905703048E+02 -0.61426242138E+01  0.40659141382E+02  0.00000000000E+00 0. -1.
         11    1    3    3    0    0  0.39491729081E+00  0.10311710681E+01  0.19426506408E+01  0.22345391497E+01  0.51100000000E-03 0. -1.
        -11    1    3    3    0    0  0.13165760221E+02 -0.22689639864E+02 -0.38388221463E+01  0.26512139768E+02  0.51100000000E-03 0.  1.
         12    1    3    3    0    0 -0.87680988832E+01 -0.18247234252E+02  0.80387957192E+01  0.21782179700E+02  0.00000000000E+00 0. -1.
</event>
<event>
 7    1  0.4836188E-013  0.5052887E+02  0.7816164E-02  0.1300439E+00
        -11   -1    0    0    0    0  0.00000000000E+00  0.00000000000E+00  0.45593999997E+02  0.45594000000E+02  0.51100000000E-03 0. -1.
         11   -1    0    0    0    0 -0.00000000000E+00 -0.00000000000E+00 -0.45593999997E+02  0.45594000000E+02  0.51100000000E-03 0.  1.
    9900012    2    1    2    0    0  0.31883755360E+01  0.26461858241E+02 -0.30704549437E+02  0.50528867738E+02  0.30000023977E+02 0.  0.
         12    1    1    2    0    0 -0.31883755360E+01 -0.26461858241E+02  0.30704549437E+02  0.40659132262E+02  0.00000000000E+00 0. -1.
         11    1    3    3    0    0  0.28700241043E+01  0.73738979281E+01 -0.91497754427E+01  0.12096685493E+02  0.51100000000E-03 0. -1.
        -11    1    3    3    0    0  0.93021675023E+01  0.87692768340E+01 -0.21187750645E+02  0.24745733250E+02  0.51100000000E-03 0.  1.
         12    1    3    3    0    0 -0.89838160707E+01  0.10318683479E+02 -0.36702334897E+00  0.13686448994E+02  0.00000000000E+00 0. -1.
</event>
<event>
 7    1  0.4836188E-013  0.5052886E+02  0.7816164E-02  0.1300439E+00
        -11   -1    0    0    0    0  0.00000000000E+00  0.00000000000E+00  0.45593999997E+02  0.45594000000E+02  0.51100000000E-03 0.  1.
         11   -1    0    0    0    0 -0.00000000000E+00 -0.00000000000E+00 -0.45593999997E+02  0.45594000000E+02  0.51100000000E-03 0. -1.
    9900012    2    1    2    0    0  0.16282321193E+01  0.14694081901E+02  0.37876091278E+02  0.50528862364E+02  0.30000007643E+02 0.  0.
         12    1    1    2    0    0 -0.16282321193E+01 -0.14694081901E+02 -0.37876091278E+02  0.40659137636E+02  0.00000000000E+00 0. -1.
         11    1    3    3    0    0  0.35893107099E+01 -0.90693197447E+00  0.43710277927E+00  0.37278326249E+01  0.51100000000E-03 0. -1.
        -11    1    3    3    0    0  0.96865484233E+00  0.18688212229E+02  0.15059204821E+02  0.24020141936E+02  0.51100000000E-03 0.  1.
        -12    1    3    3    0    0 -0.29297334329E+01 -0.30871983530E+01  0.22379783678E+02  0.22780887804E+02  0.00000000000E+00 0.  1.
</event>
<event>
 7    1  0.5325199E-013  0.5052886E+02  0.7816164E-02  0.1300439E+00
        -11   -1    0    0    0    0  0.00000000000E+00  0.00000000000E+00  0.45593999997E+02  0.45594000000E+02  0.51100000000E-03 0.  1.
         11   -1    0    0    0    0 -0.00000000000E+00 -0.00000000000E+00 -0.45593999997E+02  0.45594000000E+02  0.51100000000E-03 0. -1.
    9900012    2    1    2    0    0  0.58161729077E+01  0.39857118377E+02  0.55450523856E+01  0.50528863775E+02  0.30000011930E+02 0.  0.
         12    1    1    2    0    0 -0.58161729077E+01 -0.39857118377E+02 -0.55450523856E+01  0.40659136225E+02  0.00000000000E+00 0. -1.
         11    1    3    3    0    0  0.89348666588E+01  0.14724582344E+02 -0.55182450693E+01  0.18085800959E+02  0.51100000000E-03 0. -1.
        -11    1    3    3    0    0  0.17728323858E+01  0.21418016881E+02  0.21224895986E+01  0.21595817746E+02  0.51100000000E-03 0.  1.
        -12    1    3    3    0    0 -0.48915261369E+01  0.37145191526E+01  0.89408078563E+01  0.10847245070E+02  0.00000000000E+00 0.  1.
</event>
<event>
 7    1  0.4836188E-013  0.5052886E+02  0.7816164E-02  0.1300439E+00
        -11   -1    0    0    0    0  0.00000000000E+00  0.00000000000E+00  0.45593999997E+02  0.45594000000E+02  0.51100000000E-03 0.  1.
         11   -1    0    0    0    0 -0.00000000000E+00 -0.00000000000E+00 -0.45593999997E+02  0.45594000000E+02  0.51100000000E-03 0. -1.
    9900012    2    1    2    0    0 -0.13950758801E+02  0.11678784147E+02  0.36361348811E+02  0.50528863787E+02  0.30000011965E+02 0.  0.
         12    1    1    2    0    0  0.13950758801E+02 -0.11678784147E+02 -0.36361348811E+02  0.40659136213E+02  0.00000000000E+00 0. -1.
         11    1    3    3    0    0 -0.32994876122E+01 -0.38709242717E+01  0.53629692025E+00  0.51145173641E+01  0.51100000000E-03 0. -1.
        -11    1    3    3    0    0 -0.67467719052E+00  0.27625530811E+00  0.23240022532E+02  0.23251454876E+02  0.51100000000E-03 0.  1.
        -12    1    3    3    0    0 -0.99765939985E+01  0.15273453111E+02  0.12585029358E+02  0.22162891546E+02  0.00000000000E+00 0.  1.
</event>
<event>
 7    1  0.4836188E-013  0.5052883E+02  0.7816164E-02  0.1300439E+00
        -11   -1    0    0    0    0  0.00000000000E+00  0.00000000000E+00  0.45593999997E+02  0.45594000000E+02  0.51100000000E-03 0. -1.
         11   -1    0    0    0    0 -0.00000000000E+00 -0.00000000000E+00 -0.45593999997E+02  0.45594000000E+02  0.51100000000E-03 0.  1.
    9900012    2    1    2    0    0  0.12806445158E+02 -0.23739525986E+02 -0.30423639068E+02  0.50528831960E+02  0.29999915224E+02 0.  0.
         12    1    1    2    0    0 -0.12806445158E+02  0.23739525986E+02  0.30423639068E+02  0.40659168040E+02  0.00000000000E+00 0. -1.
         11    1    3    3    0    0  0.12584740461E+02 -0.14991109992E+02 -0.56429134168E+01  0.20370359432E+02  0.51100000000E-03 0. -1.
        -11    1    3    3    0    0  0.71346826432E+01 -0.19949629302E+01 -0.90413381039E+01  0.11688856594E+02  0.51100000000E-03 0.  1.
        -12    1    3    3    0    0 -0.69129779471E+01 -0.67534530635E+01 -0.15739387547E+02  0.18469615934E+02  0.00000000000E+00 0.  1.
</event>
<event>
 7    1  0.4836188E-013  0.5052886E+02  0.7816164E-02  0.1300439E+00
        -11   -1    0    0    0    0  0.00000000000E+00  0.00000000000E+00  0.45593999997E+02  0.45594000000E+02  0.51100000000E-03 0.  1.
         11   -1    0    0    0    0 -0.00000000000E+00 -0.00000000000E+00 -0.45593999997E+02  0.45594000000E+02  0.51100000000E-03 0. -1.
    9900012    2    1    2    0    0 -0.12144428265E+02 -0.36580562352E+02  0.12943752868E+02  0.50528863042E+02  0.30000009703E+02 0.  0.
         12    1    1    2    0    0  0.12144428265E+02  0.36580562352E+02 -0.12943752868E+02  0.40659136958E+02  0.00000000000E+00 0. -1.
         11    1    3    3    0    0 -0.12477323440E+02 -0.65659796395E+01  0.76642930401E+01  0.16047961768E+02  0.51100000000E-03 0. -1.
        -11    1    3    3    0    0  0.36780820674E+01 -0.56462489259E+01  0.71350476314E+01  0.98141387596E+01  0.51100000000E-03 0.  1.
         12    1    3    3    0    0 -0.33451868926E+01 -0.24368333786E+02 -0.18555878033E+01  0.24666762515E+02  0.00000000000E+00 0. -1.
</event>
<event>
 7    1  0.4836188E-013  0.5052886E+02  0.7816164E-02  0.1300439E+00
        -11   -1    0    0    0    0  0.00000000000E+00  0.00000000000E+00  0.45593999997E+02  0.45594000000E+02  0.51100000000E-03 0.  1.
         11   -1    0    0    0    0 -0.00000000000E+00 -0.00000000000E+00 -0.45593999997E+02  0.45594000000E+02  0.51100000000E-03 0. -1.
    9900012    2    1    2    0    0 -0.27717968372E+02  0.27624460008E+02 -0.11034897580E+02  0.50528861716E+02  0.30000005671E+02 0.  0.
         12    1    1    2    0    0  0.27717968372E+02 -0.27624460008E+02  0.11034897580E+02  0.40659138284E+02  0.00000000000E+00 0. -1.
         11    1    3    3    0    0  0.13200892999E+01  0.58366171729E+01  0.35015346916E+00  0.59942758943E+01  0.51100000000E-03 0.  1.
        -11    1    3    3    0    0 -0.24043170109E+02  0.26525501058E+02 -0.73249952842E+01  0.36542191936E+02  0.51100000000E-03 0. -1.
         12    1    3    3    0    0 -0.49948875633E+01 -0.47376582234E+01 -0.40600557651E+01  0.79923938859E+01  0.00000000000E+00 0. -1.
</event>
<event>
 7    1  0.4836188E-013  0.5052884E+02  0.7816164E-02  0.1300439E+00
        -11   -1    0    0    0    0  0.00000000000E+00  0.00000000000E+00  0.45593999997E+02  0.45594000000E+02  0.51100000000E-03 0. -1.
         11   -1    0    0    0    0 -0.00000000000E+00 -0.00000000000E+00 -0.45593999997E+02  0.45594000000E+02  0.51100000000E-03 0.  1.
    9900012    2    1    2    0    0  0.17339166242E+02 -0.13728187542E+02 -0.34118281042E+02  0.50528844569E+02  0.29999953551E+02 0.  0.
         12    1    1    2    0    0 -0.17339166242E+02  0.13728187542E+02  0.34118281042E+02  0.40659155431E+02  0.00000000000E+00 0. -1.
         11    1    3    3    0    0  0.97937892680E+01  0.30308291170E+01 -0.78427367181E+01  0.12907856245E+02  0.51100000000E-03 0. -1.
        -11    1    3    3    0    0  0.57629136088E+01 -0.11333743118E+01 -0.19731075325E+02  0.20586671522E+02  0.51100000000E-03 0.  1.
         12    1    3    3    0    0  0.17824633652E+01 -0.15625642347E+02 -0.65444689980E+01  0.17034316801E+02  0.00000000000E+00 0. -1.
</event>
<event>
 7    1  0.4836188E-013  0.5052884E+02  0.7816164E-02  0.1300439E+00
        -11   -1    0    0    0    0  0.00000000000E+00  0.00000000000E+00  0.45593999997E+02  0.45594000000E+02  0.51100000000E-03 0.  1.
         11   -1    0    0    0    0 -0.00000000000E+00 -0.00000000000E+00 -0.45593999997E+02  0.45594000000E+02  0.51100000000E-03 0. -1.
    9900012    2    1    2    0    0 -0.31577306209E+02  0.73262737207E+01  0.24543166905E+02  0.50528836263E+02  0.29999928306E+02 0.  0.
         12    1    1    2    0    0  0.31577306209E+02 -0.73262737207E+01 -0.24543166905E+02  0.40659163737E+02  0.00000000000E+00 0. -1.
         11    1    3    3    0    0 -0.13725193818E+02 -0.76304305517E+01  0.61807368611E+01  0.16876194007E+02  0.51100000000E-03 0. -1.
        -11    1    3    3    0    0 -0.14238809513E+02  0.59677553618E+01  0.33698961508E+01  0.15802341622E+02  0.51100000000E-03 0.  1.
         12    1    3    3    0    0 -0.36133028776E+01  0.89889489107E+01  0.14992533893E+02  0.17850300634E+02  0.00000000000E+00 0. -1.
</event>
<event>
 7    1  0.4836188E-013  0.5052885E+02  0.7816164E-02  0.1300439E+00
        -11   -1    0    0    0    0  0.00000000000E+00  0.00000000000E+00  0.45593999997E+02  0.45594000000E+02  0.51100000000E-03 0. -1.
         11   -1    0    0    0    0 -0.00000000000E+00 -0.00000000000E+00 -0.45593999997E+02  0.45594000000E+02  0.51100000000E-03 0.  1.
    9900012    2    1    2    0    0  0.62762342278E+01 -0.37141565699E+02 -0.15306178846E+02  0.50528854294E+02  0.29999983112E+02 0.  0.
         12    1    1    2    0    0 -0.62762342278E+01  0.37141565699E+02  0.15306178846E+02  0.40659145706E+02  0.00000000000E+00 0. -1.
         11    1    3    3    0    0  0.15391461537E+01 -0.46949269021E+01  0.33980512829E+01  0.59965041716E+01  0.51100000000E-03 0. -1.
        -11    1    3    3    0    0 -0.83581976399E+01 -0.19234326095E+02 -0.14396219880E+02  0.25437568972E+02  0.51100000000E-03 0.  1.
         12    1    3    3    0    0  0.13095285714E+02 -0.13212312702E+02 -0.43080102481E+01  0.19094781150E+02  0.00000000000E+00 0. -1.
</event>
<event>
 7    1  0.4836188E-013  0.5052886E+02  0.7816164E-02  0.1300439E+00
        -11   -1    0    0    0    0  0.00000000000E+00  0.00000000000E+00  0.45593999997E+02  0.45594000000E+02  0.51100000000E-03 0.  1.
         11   -1    0    0    0    0 -0.00000000000E+00 -0.00000000000E+00 -0.45593999997E+02  0.45594000000E+02  0.51100000000E-03 0. -1.
    9900012    2    1    2    0    0 -0.13666758545E+02  0.35326365449E+02  0.14779482190E+02  0.50528862297E+02  0.30000007438E+02 0.  0.
         12    1    1    2    0    0  0.13666758545E+02 -0.35326365449E+02 -0.14779482190E+02  0.40659137703E+02  0.00000000000E+00 0. -1.
         11    1    3    3    0    0 -0.82956673828E+01  0.18546991423E+02 -0.28115276148E+01  0.20511306052E+02  0.51100000000E-03 0. -1.
        -11    1    3    3    0    0 -0.10651131685E+02  0.89597598180E+01  0.62292618860E+01  0.15248855894E+02  0.51100000000E-03 0.  1.
        -12    1    3    3    0    0  0.52800405229E+01  0.78196142080E+01  0.11361747918E+02  0.14768700351E+02  0.00000000000E+00 0.  1.
</event>
<event>
 7    1  0.4836188E-013  0.5052885E+02  0.7816164E-02  0.1300439E+00
        -11   -1    0    0    0    0  0.00000000000E+00  0.00000000000E+00  0.45593999997E+02  0.45594000000E+02  0.51100000000E-03 0. -1.
         11   -1    0    0    0    0 -0.00000000000E+00 -0.00000000000E+00 -0.45593999997E+02  0.45594000000E+02  0.51100000000E-03 0.  1.
    9900012    2    1    2    0    0 -0.13687906718E+02  0.12249633647E+01 -0.38266261937E+02  0.50528854310E+02  0.29999983161E+02 0.  0.
         12    1    1    2    0    0  0.13687906718E+02 -0.12249633647E+01  0.38266261937E+02  0.40659145690E+02  0.00000000000E+00 0. -1.
         11    1    3    3    0    0  0.72198833534E+01  0.17631145679E+01 -0.96980873383E+01  0.12218354509E+02  0.51100000000E-03 0. -1.
        -11    1    3    3    0    0 -0.10471181922E+02  0.65935492073E+01 -0.10325312890E+02  0.16116222527E+02  0.51100000000E-03 0.  1.
        -12    1    3    3    0    0 -0.10436608149E+02 -0.71317004105E+01 -0.18242861710E+02  0.22194277275E+02  0.00000000000E+00 0.  1.
</event>
<event>
 7    1  0.4836188E-013  0.5052886E+02  0.7816164E-02  0.1300439E+00
        -11   -1    0    0    0    0  0.00000000000E+00  0.00000000000E+00  0.45593999997E+02  0.45594000000E+02  0.51100000000E-03 0. -1.
         11   -1    0    0    0    0 -0.00000000000E+00 -0.00000000000E+00 -0.45593999997E+02  0.45594000000E+02  0.51100000000E-03 0.  1.
    9900012    2    1    2    0    0 -0.83877875774E+01 -0.38769385888E+02 -0.89300440517E+01  0.50528856510E+02  0.29999989847E+02 0.  0.
         12    1    1    2    0    0  0.83877875774E+01  0.38769385888E+02  0.89300440517E+01  0.40659143490E+02  0.00000000000E+00 0. -1.
         11    1    3    3    0    0 -0.37810538049E+01 -0.31958759150E+00 -0.68976408625E+01  0.78724807928E+01  0.51100000000E-03 0. -1.
        -11    1    3    3    0    0 -0.32036167443E+01 -0.16407513273E+01  0.39433505333E+01  0.53390297669E+01  0.51100000000E-03 0.  1.
        -12    1    3    3    0    0 -0.14031170282E+01 -0.36809046970E+02 -0.59757537226E+01  0.37317345950E+02  0.00000000000E+00 0.  1.
</event>
<event>
 7    1  0.4836188E-013  0.5052886E+02  0.7816164E-02  0.1300439E+00
        -11   -1    0    0    0    0  0.00000000000E+00  0.00000000000E+00  0.45593999997E+02  0.45594000000E+02  0.51100000000E-03 0. -1.
         11   -1    0    0    0    0 -0.00000000000E+00 -0.00000000000E+00 -0.45593999997E+02  0.45594000000E+02  0.51100000000E-03 0.  1.
    9900012    2    1    2    0    0  0.36446309437E+01  0.31681952500E+02 -0.25221743500E+02  0.50528858419E+02  0.29999995650E+02 0.  0.
         12    1    1    2    0    0 -0.36446309437E+01 -0.31681952500E+02  0.25221743500E+02  0.40659141581E+02  0.00000000000E+00 0. -1.
         11    1    3    3    0    0  0.51108815139E+00  0.19032998787E+02 -0.22057502499E+02  0.29138456903E+02  0.51100000000E-03 0.  1.
        -11    1    3    3    0    0 -0.21950606105E+00 -0.37341690263E+01 -0.27847433046E+01  0.46633675344E+01  0.51100000000E-03 0. -1.
         12    1    3    3    0    0  0.33530488534E+01  0.16383122740E+02 -0.37949769587E+00  0.16727033982E+02  0.00000000000E+00 0. -1.
</event>
<event>
 7    1  0.4836188E-013  0.5052886E+02  0.7816164E-02  0.1300439E+00
        -11   -1    0    0    0    0  0.00000000000E+00  0.00000000000E+00  0.45593999997E+02  0.45594000000E+02  0.51100000000E-03 0. -1.
         11   -1    0    0    0    0 -0.00000000000E+00 -0.00000000000E+00 -0.45593999997E+02  0.45594000000E+02  0.51100000000E-03 0.  1.
    9900012    2    1    2    0    0  0.25611317475E+02  0.16876747457E+02 -0.26690846365E+02  0.50528862439E+02  0.30000007870E+02 0.  0.
         12    1    1    2    0    0 -0.25611317475E+02 -0.16876747457E+02  0.26690846365E+02  0.40659137561E+02  0.00000000000E+00 0. -1.
         11    1    3    3    0    0 -0.37213608413E+01 -0.17535987848E+01 -0.75846518157E+01  0.86284748731E+01  0.51100000000E-03 0. -1.
        -11    1    3    3    0    0  0.44321160634E+01  0.81478959153E+01 -0.93650278085E+01  0.13180880349E+02  0.51100000000E-03 0.  1.
         12    1    3    3    0    0  0.24900562252E+02  0.10482450327E+02 -0.97411667408E+01  0.28719507217E+02  0.00000000000E+00 0. -1.
</event>
<event>
 7    1  0.4836188E-013  0.5052885E+02  0.7816164E-02  0.1300439E+00
        -11   -1    0    0    0    0  0.00000000000E+00  0.00000000000E+00  0.45593999997E+02  0.45594000000E+02  0.51100000000E-03 0.  1.
         11   -1    0    0    0    0 -0.00000000000E+00 -0.00000000000E+00 -0.45593999997E+02  0.45594000000E+02  0.51100000000E-03 0. -1.
    9900012    2    1    2    0    0 -0.37486377564E+02  0.23954353052E+01  0.15562776268E+02  0.50528848283E+02  0.29999964842E+02 0.  0.
         12    1    1    2    0    0  0.37486377564E+02 -0.23954353052E+01 -0.15562776268E+02  0.40659151717E+02  0.00000000000E+00 0. -1.
         11    1    3    3    0    0 -0.73677036252E+01 -0.44046559778E+01 -0.57132333771E+00  0.86029333142E+01  0.51100000000E-03 0. -1.
        -11    1    3    3    0    0 -0.82500706112E+01 -0.54503106612E+01 -0.30649809082E+01  0.10351988197E+02  0.51100000000E-03 0.  1.
        -12    1    3    3    0    0 -0.21868603327E+02  0.12250401944E+02  0.19199080514E+02  0.31573926773E+02  0.00000000000E+00 0.  1.
</event>
<event>
 7    1  0.4836188E-013  0.5052885E+02  0.7816164E-02  0.1300439E+00
        -11   -1    0    0    0    0  0.00000000000E+00  0.00000000000E+00  0.45593999997E+02  0.45594000000E+02  0.51100000000E-03 0.  1.
         11   -1    0    0    0    0 -0.00000000000E+00 -0.00000000000E+00 -0.45593999997E+02  0.45594000000E+02  0.51100000000E-03 0. -1.
    9900012    2    1    2    0    0  0.36361221272E+02 -0.15950549725E+02  0.87526155632E+01  0.50528846934E+02  0.29999960739E+02 0.  0.
         12    1    1    2    0    0 -0.36361221272E+02  0.15950549725E+02 -0.87526155632E+01  0.40659153066E+02  0.00000000000E+00 0. -1.
         11    1    3    3    0    0  0.30924068957E+02 -0.10237693297E+02  0.75514653084E+01  0.33438496280E+02  0.51100000000E-03 0. -1.
        -11    1    3    3    0    0  0.38239190392E+01 -0.36371958844E+00  0.76485750144E+01  0.85589338570E+01  0.51100000000E-03 0.  1.
        -12    1    3    3    0    0  0.16132332752E+01 -0.53491368392E+01 -0.64474247596E+01  0.85314167965E+01  0.00000000000E+00 0.  1.
</event>
<event>
 7    1  0.4836188E-013  0.5052886E+02  0.7816164E-02  0.1300439E+00
        -11   -1    0    0    0    0  0.00000000000E+00  0.00000000000E+00  0.45593999997E+02  0.45594000000E+02  0.51100000000E-03 0. -1.
         11   -1    0    0    0    0 -0.00000000000E+00 -0.00000000000E+00 -0.45593999997E+02  0.45594000000E+02  0.51100000000E-03 0.  1.
    9900012    2    1    2    0    0  0.18526742474E+02  0.35514347820E+02  0.69754457311E+01  0.50528856736E+02  0.29999990536E+02 0.  0.
         12    1    1    2    0    0 -0.18526742474E+02 -0.35514347820E+02 -0.69754457311E+01  0.40659143264E+02  0.00000000000E+00 0. -1.
         11    1    3    3    0    0  0.74157444961E+01  0.41081032914E+00 -0.11627582529E+01  0.75175819633E+01  0.51100000000E-03 0. -1.
        -11    1    3    3    0    0  0.11091750829E+01  0.89827825228E+01 -0.67824099943E+01  0.11310249193E+02  0.51100000000E-03 0.  1.
         12    1    3    3    0    0  0.10001822895E+02  0.26120754968E+02  0.14920613978E+02  0.31701025580E+02  0.00000000000E+00 0. -1.
</event>
<event>
 7    1  0.4836188E-013  0.5052885E+02  0.7816164E-02  0.1300439E+00
        -11   -1    0    0    0    0  0.00000000000E+00  0.00000000000E+00  0.45593999997E+02  0.45594000000E+02  0.51100000000E-03 0.  1.
         11   -1    0    0    0    0 -0.00000000000E+00 -0.00000000000E+00 -0.45593999997E+02  0.45594000000E+02  0.51100000000E-03 0. -1.
    9900012    2    1    2    0    0 -0.44857461029E+01 -0.32945232549E+02  0.23402056412E+02  0.50528849614E+02  0.29999968886E+02 0.  0.
         12    1    1    2    0    0  0.44857461029E+01  0.32945232549E+02 -0.23402056412E+02  0.40659150386E+02  0.00000000000E+00 0. -1.
         11    1    3    3    0    0  0.40667741091E+00 -0.95788031709E+01 -0.85235942782E+00  0.96252466752E+01  0.51100000000E-03 0. -1.
        -11    1    3    3    0    0 -0.16627216795E+01  0.44723792240E+01  0.22686802620E+01  0.52833445562E+01  0.51100000000E-03 0.  1.
        -12    1    3    3    0    0 -0.32297018344E+01 -0.27838808602E+02  0.21985735578E+02  0.35620258382E+02  0.00000000000E+00 0.  1.
</event>
<event>
 7    1  0.4836188E-013  0.5052886E+02  0.7816164E-02  0.1300439E+00
        -11   -1    0    0    0    0  0.00000000000E+00  0.00000000000E+00  0.45593999997E+02  0.45594000000E+02  0.51100000000E-03 0. -1.
         11   -1    0    0    0    0 -0.00000000000E+00 -0.00000000000E+00 -0.45593999997E+02  0.45594000000E+02  0.51100000000E-03 0.  1.
    9900012    2    1    2    0    0  0.27009865892E+02 -0.29405717816E+02 -0.76769981329E+01  0.50528863313E+02  0.30000010526E+02 0.  0.
         12    1    1    2    0    0 -0.27009865892E+02  0.29405717816E+02  0.76769981329E+01  0.40659136687E+02  0.00000000000E+00 0. -1.
         11    1    3    3    0    0  0.97406960969E+01 -0.77365525406E+01  0.71556804679E+01  0.14350580786E+02  0.51100000000E-03 0. -1.
        -11    1    3    3    0    0  0.19289857017E+02 -0.13596045203E+02 -0.14798932222E+02  0.27856048249E+02  0.51100000000E-03 0.  1.
         12    1    3    3    0    0 -0.20206872216E+01 -0.80731200729E+01 -0.33746378680E-01  0.83222342779E+01  0.00000000000E+00 0. -1.
</event>
<event>
 7    1  0.4836188E-013  0.5052887E+02  0.7816164E-02  0.1300439E+00
        -11   -1    0    0    0    0  0.00000000000E+00  0.00000000000E+00  0.45593999997E+02  0.45594000000E+02  0.51100000000E-03 0.  1.
         11   -1    0    0    0    0 -0.00000000000E+00 -0.00000000000E+00 -0.45593999997E+02  0.45594000000E+02  0.51100000000E-03 0. -1.
    9900012    2    1    2    0    0 -0.23960330685E+01 -0.28224053022E+02  0.29168932909E+02  0.50528870760E+02  0.30000033163E+02 0.  0.
         12    1    1    2    0    0  0.23960330685E+01  0.28224053022E+02 -0.29168932909E+02  0.40659129240E+02  0.00000000000E+00 0. -1.
         11    1    3    3    0    0  0.68457925053E+01 -0.46925329079E+01  0.18165045015E+01  0.84961420058E+01  0.51100000000E-03 0. -1.
        -11    1    3    3    0    0 -0.16877284327E+01 -0.36149009765E+01  0.18567433399E+02  0.18991195845E+02  0.51100000000E-03 0.  1.
         12    1    3    3    0    0 -0.75540971412E+01 -0.19916619138E+02  0.87849950085E+01  0.23041532909E+02  0.00000000000E+00 0. -1.
</event>
<event>
 7    1  0.4836188E-013  0.5052887E+02  0.7816164E-02  0.1300439E+00
        -11   -1    0    0    0    0  0.00000000000E+00  0.00000000000E+00  0.45593999997E+02  0.45594000000E+02  0.51100000000E-03 0.  1.
         11   -1    0    0    0    0 -0.00000000000E+00 -0.00000000000E+00 -0.45593999997E+02  0.45594000000E+02  0.51100000000E-03 0. -1.
    9900012    2    1    2    0    0 -0.17928093479E+02 -0.29258350476E+02  0.21810482754E+02  0.50528871058E+02  0.30000034067E+02 0.  0.
         12    1    1    2    0    0  0.17928093479E+02  0.29258350476E+02 -0.21810482754E+02  0.40659128942E+02  0.00000000000E+00 0. -1.
         11    1    3    3    0    0  0.39134697060E+00  0.13141017412E+01 -0.12703550534E+00  0.13770091207E+01  0.51100000000E-03 0. -1.
        -11    1    3    3    0    0 -0.16396005012E+02 -0.17727327571E+02  0.57892563751E+00  0.24154135843E+02  0.51100000000E-03 0.  1.
         12    1    3    3    0    0 -0.19234354369E+01 -0.12845124646E+02  0.21358592622E+02  0.24997726094E+02  0.00000000000E+00 0. -1.
</event>
<event>
 7    1  0.4836188E-013  0.5052886E+02  0.7816164E-02  0.1300439E+00
        -11   -1    0    0    0    0  0.00000000000E+00  0.00000000000E+00  0.45593999997E+02  0.45594000000E+02  0.51100000000E-03 0. -1.
         11   -1    0    0    0    0 -0.00000000000E+00 -0.00000000000E+00 -0.45593999997E+02  0.45594000000E+02  0.51100000000E-03 0.  1.
    9900012    2    1    2    0    0 -0.33243321408E+02  0.11138735867E+02 -0.20590678054E+02  0.50528857391E+02  0.29999992526E+02 0.  0.
         12    1    1    2    0    0  0.33243321408E+02 -0.11138735867E+02  0.20590678054E+02  0.40659142609E+02  0.00000000000E+00 0. -1.
         11    1    3    3    0    0  0.70302470506E+00  0.59111696433E+01  0.40216981243E+01  0.71840257761E+01  0.51100000000E-03 0. -1.
        -11    1    3    3    0    0 -0.12313814031E+02 -0.10292487070E+01 -0.13263339073E+02  0.18127480038E+02  0.51100000000E-03 0.  1.
        -12    1    3    3    0    0 -0.21632532082E+02  0.62568149310E+01 -0.11349037105E+02  0.25217351577E+02  0.00000000000E+00 0.  1.
</event>
<event>
 7    1  0.4836188E-013  0.5052886E+02  0.7816164E-02  0.1300439E+00
        -11   -1    0    0    0    0  0.00000000000E+00  0.00000000000E+00  0.45593999997E+02  0.45594000000E+02  0.51100000000E-03 0. -1.
         11   -1    0    0    0    0 -0.00000000000E+00 -0.00000000000E+00 -0.45593999997E+02  0.45594000000E+02  0.51100000000E-03 0.  1.
    9900012    2    1    2    0    0 -0.98836659480E+01 -0.37352800280E+02 -0.12658864300E+02  0.50528863429E+02  0.30000010878E+02 0.  0.
         12    1    1    2    0    0  0.98836659480E+01  0.37352800280E+02  0.12658864300E+02  0.40659136571E+02  0.00000000000E+00 0. -1.
         11    1    3    3    0    0  0.19340431338E+01 -0.30041676049E+01 -0.50705930523E+01  0.62029396260E+01  0.51100000000E-03 0. -1.
        -11    1    3    3    0    0  0.55274045471E+01 -0.10636398614E+02  0.41554731880E+01  0.12686730634E+02  0.51100000000E-03 0.  1.
        -12    1    3    3    0    0 -0.17345113629E+02 -0.23712234062E+02 -0.11743744436E+02  0.31639193169E+02  0.00000000000E+00 0.  1.
</event>
<event>
 7    1  0.4836188E-013  0.5052886E+02  0.7816164E-02  0.1300439E+00
        -11   -1    0    0    0    0  0.00000000000E+00  0.00000000000E+00  0.45593999997E+02  0.45594000000E+02  0.51100000000E-03 0.  1.
         11   -1    0    0    0    0 -0.00000000000E+00 -0.00000000000E+00 -0.45593999997E+02  0.45594000000E+02  0.51100000000E-03 0. -1.
    9900012    2    1    2    0    0 -0.31716636382E+02 -0.25104339730E+02 -0.41222415557E+01  0.50528858690E+02  0.29999996473E+02 0.  0.
         12    1    1    2    0    0  0.31716636382E+02  0.25104339730E+02  0.41222415557E+01  0.40659141310E+02  0.00000000000E+00 0. -1.
         11    1    3    3    0    0 -0.31860053405E+01  0.40529443605E+01  0.80943659863E+00  0.52184457348E+01  0.51100000000E-03 0. -1.
        -11    1    3    3    0    0 -0.11183724031E+02 -0.10110738228E+02  0.73474253969E+01  0.16771623981E+02  0.51100000000E-03 0.  1.
         12    1    3    3    0    0 -0.17346907010E+02 -0.19046545862E+02 -0.12279103551E+02  0.28538788974E+02  0.00000000000E+00 0. -1.
</event>
<event>
 7    1  0.4836188E-013  0.5052886E+02  0.7816164E-02  0.1300439E+00
        -11   -1    0    0    0    0  0.00000000000E+00  0.00000000000E+00  0.45593999997E+02  0.45594000000E+02  0.51100000000E-03 0. -1.
         11   -1    0    0    0    0 -0.00000000000E+00 -0.00000000000E+00 -0.45593999997E+02  0.45594000000E+02  0.51100000000E-03 0.  1.
    9900012    2    1    2    0    0  0.22658915924E+02 -0.50353736073E+00 -0.33756264454E+02  0.50528863135E+02  0.30000009984E+02 0.  0.
         12    1    1    2    0    0 -0.22658915924E+02  0.50353736073E+00  0.33756264454E+02  0.40659136865E+02  0.00000000000E+00 0. -1.
         11    1    3    3    0    0  0.94445523798E+01 -0.57229563405E+01 -0.88369197036E+01  0.14143654020E+02  0.51100000000E-03 0. -1.
        -11    1    3    3    0    0 -0.25779198017E+01 -0.56148460533E+01 -0.19490752568E+01  0.64785076464E+01  0.51100000000E-03 0.  1.
        -12    1    3    3    0    0  0.15792283346E+02  0.10834265033E+02 -0.22970269494E+02  0.29906701468E+02  0.00000000000E+00 0.  1.
</event>
<event>
 7    1  0.4836188E-013  0.5052885E+02  0.7816164E-02  0.1300439E+00
        -11   -1    0    0    0    0  0.00000000000E+00  0.00000000000E+00  0.45593999997E+02  0.45594000000E+02  0.51100000000E-03 0.  1.
         11   -1    0    0    0    0 -0.00000000000E+00 -0.00000000000E+00 -0.45593999997E+02  0.45594000000E+02  0.51100000000E-03 0. -1.
    9900012    2    1    2    0    0 -0.85495907912E+01 -0.33774798538E+02  0.20960288279E+02  0.50528853382E+02  0.29999980339E+02 0.  0.
         12    1    1    2    0    0  0.85495907912E+01  0.33774798538E+02 -0.20960288279E+02  0.40659146618E+02  0.00000000000E+00 0. -1.
         11    1    3    3    0    0 -0.19704494925E+01  0.26521157184E+01 -0.89965781363E+00  0.34242916683E+01  0.51100000000E-03 0. -1.
        -11    1    3    3    0    0 -0.11971894226E+02 -0.25207559536E+02  0.92845519612E+01  0.29410035948E+02  0.51100000000E-03 0.  1.
        -12    1    3    3    0    0  0.53927529277E+01 -0.11219354721E+02  0.12575394131E+02  0.17694525765E+02  0.00000000000E+00 0.  1.
</event>
<event>
 7    1  0.4836188E-013  0.5052887E+02  0.7816164E-02  0.1300439E+00
        -11   -1    0    0    0    0  0.00000000000E+00  0.00000000000E+00  0.45593999997E+02  0.45594000000E+02  0.51100000000E-03 0. -1.
         11   -1    0    0    0    0 -0.00000000000E+00 -0.00000000000E+00 -0.45593999997E+02  0.45594000000E+02  0.51100000000E-03 0.  1.
    9900012    2    1    2    0    0  0.10557354550E+01  0.30149629203E+02 -0.27258945472E+02  0.50528870316E+02  0.30000031811E+02 0.  0.
         12    1    1    2    0    0 -0.10557354550E+01 -0.30149629203E+02  0.27258945472E+02  0.40659129684E+02  0.00000000000E+00 0. -1.
         11    1    3    3    0    0 -0.21147785638E+01  0.21648981883E+02 -0.16331516344E+02  0.27200535496E+02  0.51100000000E-03 0. -1.
        -11    1    3    3    0    0 -0.70858419819E+01  0.40638172760E+01 -0.73170047579E+00  0.82011678005E+01  0.51100000000E-03 0.  1.
        -12    1    3    3    0    0  0.10256356001E+02  0.44368300441E+01 -0.10195728653E+02  0.15127167019E+02  0.00000000000E+00 0.  1.
</event>
<event>
 7    1  0.4836188E-013  0.5052886E+02  0.7816164E-02  0.1300439E+00
        -11   -1    0    0    0    0  0.00000000000E+00  0.00000000000E+00  0.45593999997E+02  0.45594000000E+02  0.51100000000E-03 0. -1.
         11   -1    0    0    0    0 -0.00000000000E+00 -0.00000000000E+00 -0.45593999997E+02  0.45594000000E+02  0.51100000000E-03 0.  1.
    9900012    2    1    2    0    0 -0.21889889881E+02  0.13951455033E+02 -0.31294657971E+02  0.50528855960E+02  0.29999988177E+02 0.  0.
         12    1    1    2    0    0  0.21889889881E+02 -0.13951455033E+02  0.31294657971E+02  0.40659144040E+02  0.00000000000E+00 0. -1.
         11    1    3    3    0    0  0.89031237349E+00  0.40364748042E+01 -0.17526977380E+02  0.18007796126E+02  0.51100000000E-03 0. -1.
        -11    1    3    3    0    0 -0.30694254853E+01 -0.41793094203E+01 -0.17462808367E+01  0.54715168886E+01  0.51100000000E-03 0.  1.
        -12    1    3    3    0    0 -0.19710776769E+02  0.14094289649E+02 -0.12021399754E+02  0.27049542946E+02  0.00000000000E+00 0.  1.
</event>
<event>
 7    1  0.4836188E-013  0.5052888E+02  0.7816164E-02  0.1300439E+00
        -11   -1    0    0    0    0  0.00000000000E+00  0.00000000000E+00  0.45593999997E+02  0.45594000000E+02  0.51100000000E-03 0.  1.
         11   -1    0    0    0    0 -0.00000000000E+00 -0.00000000000E+00 -0.45593999997E+02  0.45594000000E+02  0.51100000000E-03 0. -1.
    9900012    2    1    2    0    0 -0.35724179991E+02  0.19373749529E+02 -0.12668796340E+01  0.50528878134E+02  0.30000055577E+02 0.  0.
         12    1    1    2    0    0  0.35724179991E+02 -0.19373749529E+02  0.12668796340E+01  0.40659121866E+02  0.00000000000E+00 0. -1.
         11    1    3    3    0    0  0.24850167394E+00  0.63196578192E+01  0.55748647900E+01  0.84308330384E+01  0.51100000000E-03 0.  1.
        -11    1    3    3    0    0 -0.73153603398E+01  0.10244480362E+02 -0.37660739221E+01  0.13139527687E+02  0.51100000000E-03 0. -1.
         12    1    3    3    0    0 -0.28657321326E+02  0.28096113483E+01 -0.30756705018E+01  0.28958517409E+02  0.00000000000E+00 0. -1.
</event>
<event>
 7    1  0.4836188E-013  0.5052886E+02  0.7816164E-02  0.1300439E+00
        -11   -1    0    0    0    0  0.00000000000E+00  0.00000000000E+00  0.45593999997E+02  0.45594000000E+02  0.51100000000E-03 0.  1.
         11   -1    0    0    0    0 -0.00000000000E+00 -0.00000000000E+00 -0.45593999997E+02  0.45594000000E+02  0.51100000000E-03 0. -1.
    9900012    2    1    2    0    0  0.27215364054E+02  0.30108232301E+02 -0.24462834234E+01  0.50528855943E+02  0.29999988125E+02 0.  0.
         12    1    1    2    0    0 -0.27215364054E+02 -0.30108232301E+02  0.24462834234E+01  0.40659144057E+02  0.00000000000E+00 0. -1.
         11    1    3    3    0    0 -0.37863702653E+01  0.41669046787E+01 -0.57118764515E+00  0.56591474600E+01  0.51100000000E-03 0. -1.
        -11    1    3    3    0    0  0.11467821815E+02  0.14983849146E+02 -0.96092553835E+01  0.21174618336E+02  0.51100000000E-03 0.  1.
        -12    1    3    3    0    0  0.19533912504E+02  0.10957478476E+02  0.77341596053E+01  0.23695090147E+02  0.00000000000E+00 0.  1.
</event>
<event>
 7    1  0.4836188E-013  0.5052886E+02  0.7816164E-02  0.1300439E+00
        -11   -1    0    0    0    0  0.00000000000E+00  0.00000000000E+00  0.45593999997E+02  0.45594000000E+02  0.51100000000E-03 0.  1.
         11   -1    0    0    0    0 -0.00000000000E+00 -0.00000000000E+00 -0.45593999997E+02  0.45594000000E+02  0.51100000000E-03 0. -1.
    9900012    2    1    2    0    0  0.80654716017E+01  0.37350726190E+02  0.13893774842E+02  0.50528861317E+02  0.30000004459E+02 0.  0.
         12    1    1    2    0    0 -0.80654716017E+01 -0.37350726190E+02 -0.13893774842E+02  0.40659138683E+02  0.00000000000E+00 0. -1.
         11    1    3    3    0    0  0.48293037815E+01  0.10432160276E+02  0.20138151865E+01  0.11670800954E+02  0.51100000000E-03 0. -1.
        -11    1    3    3    0    0 -0.36006291584E+01  0.28533786547E+02  0.13307291675E+02  0.31689517463E+02  0.51100000000E-03 0.  1.
         12    1    3    3    0    0  0.68367969786E+01 -0.16152206328E+01 -0.14273320192E+01  0.71685429002E+01  0.00000000000E+00 0. -1.
</event>
<event>
 7    1  0.4836188E-013  0.5052887E+02  0.7816164E-02  0.1300439E+00
        -11   -1    0    0    0    0  0.00000000000E+00  0.00000000000E+00  0.45593999997E+02  0.45594000000E+02  0.51100000000E-03 0.  1.
         11   -1    0    0    0    0 -0.00000000000E+00 -0.00000000000E+00 -0.45593999997E+02  0.45594000000E+02  0.51100000000E-03 0. -1.
    9900012    2    1    2    0    0  0.17535918291E+02 -0.27996999960E+02  0.23702829442E+02  0.50528873587E+02  0.30000041755E+02 0.  0.
         12    1    1    2    0    0 -0.17535918291E+02  0.27996999960E+02 -0.23702829442E+02  0.40659126413E+02  0.00000000000E+00 0. -1.
         11    1    3    3    0    0  0.14819872639E+02 -0.10955337959E+01  0.76352831969E+01  0.16707075420E+02  0.51100000000E-03 0. -1.
        -11    1    3    3    0    0  0.74401913955E+01 -0.12187482196E+02  0.84589689165E+01  0.16596545594E+02  0.51100000000E-03 0.  1.
         12    1    3    3    0    0 -0.47241457428E+01 -0.14713983969E+02  0.76085773291E+01  0.17225252573E+02  0.00000000000E+00 0. -1.
</event>
<event>
 7    1  0.4836188E-013  0.5052880E+02  0.7816164E-02  0.1300439E+00
        -11   -1    0    0    0    0  0.00000000000E+00  0.00000000000E+00  0.45593999997E+02  0.45594000000E+02  0.51100000000E-03 0.  1.
         11   -1    0    0    0    0 -0.00000000000E+00 -0.00000000000E+00 -0.45593999997E+02  0.45594000000E+02  0.51100000000E-03 0. -1.
    9900012    2    1    2    0    0 -0.97982976458E+00 -0.29152384018E+02  0.28325766627E+02  0.50528799131E+02  0.29999815437E+02 0.  0.
         12    1    1    2    0    0  0.97982976458E+00  0.29152384018E+02 -0.28325766627E+02  0.40659200869E+02  0.00000000000E+00 0. -1.
         11    1    3    3    0    0 -0.38999553991E+00 -0.11551055070E+01  0.98743835471E+01  0.99493625902E+01  0.51100000000E-03 0. -1.
        -11    1    3    3    0    0 -0.11237562374E+02 -0.11546348331E+02  0.11466125144E+02  0.19775565580E+02  0.51100000000E-03 0.  1.
         12    1    3    3    0    0  0.10647728150E+02 -0.16450930180E+02  0.69852579356E+01  0.20803870961E+02  0.00000000000E+00 0. -1.
</event>
<event>
 7    1  0.4836188E-013  0.5052886E+02  0.7816164E-02  0.1300439E+00
        -11   -1    0    0    0    0  0.00000000000E+00  0.00000000000E+00  0.45593999997E+02  0.45594000000E+02  0.51100000000E-03 0.  1.
         11   -1    0    0    0    0 -0.00000000000E+00 -0.00000000000E+00 -0.45593999997E+02  0.45594000000E+02  0.51100000000E-03 0. -1.
    9900012    2    1    2    0    0 -0.13270829585E+02 -0.18306329008E+02  0.33792437008E+02  0.50528863283E+02  0.30000010436E+02 0.  0.
         12    1    1    2    0    0  0.13270829585E+02  0.18306329008E+02 -0.33792437008E+02  0.40659136717E+02  0.00000000000E+00 0. -1.
         11    1    3    3    0    0  0.61989223124E+01 -0.78338482414E+01  0.15585065378E+02  0.18511890212E+02  0.51100000000E-03 0. -1.
        -11    1    3    3    0    0 -0.20948581365E+01 -0.82369321020E+01  0.36913105628E+01  0.92661348467E+01  0.51100000000E-03 0.  1.
        -12    1    3    3    0    0 -0.17374893761E+02 -0.22355486648E+01  0.14516061067E+02  0.22750838225E+02  0.00000000000E+00 0.  1.
</event>
<event>
 7    1  0.4836188E-013  0.5052886E+02  0.7816164E-02  0.1300439E+00
        -11   -1    0    0    0    0  0.00000000000E+00  0.00000000000E+00  0.45593999997E+02  0.45594000000E+02  0.51100000000E-03 0.  1.
         11   -1    0    0    0    0 -0.00000000000E+00 -0.00000000000E+00 -0.45593999997E+02  0.45594000000E+02  0.51100000000E-03 0. -1.
    9900012    2    1    2    0    0 -0.11425763780E+02 -0.32866972376E+02  0.21032832751E+02  0.50528855830E+02  0.29999987781E+02 0.  0.
         12    1    1    2    0    0  0.11425763780E+02  0.32866972376E+02 -0.21032832751E+02  0.40659144170E+02  0.00000000000E+00 0. -1.
         11    1    3    3    0    0 -0.69600666659E+01  0.47092340402E+00  0.13710172029E+02  0.15382883806E+02  0.51100000000E-03 0. -1.
        -11    1    3    3    0    0  0.11428192721E+01 -0.14310412277E+02  0.48627297845E+01  0.15157179046E+02  0.51100000000E-03 0.  1.
        -12    1    3    3    0    0 -0.56085163861E+01 -0.19027483503E+02  0.24599309369E+01  0.19988792978E+02  0.00000000000E+00 0.  1.
</event>
<event>
 7    1  0.4836188E-013  0.5052885E+02  0.7816164E-02  0.1300439E+00
        -11   -1    0    0    0    0  0.00000000000E+00  0.00000000000E+00  0.45593999997E+02  0.45594000000E+02  0.51100000000E-03 0.  1.
         11   -1    0    0    0    0 -0.00000000000E+00 -0.00000000000E+00 -0.45593999997E+02  0.45594000000E+02  0.51100000000E-03 0. -1.
    9900012    2    1    2    0    0  0.37389960201E+00 -0.64033067483E+01  0.40150020879E+02  0.50528852015E+02  0.29999976186E+02 0.  0.
         12    1    1    2    0    0 -0.37389960201E+00  0.64033067483E+01 -0.40150020879E+02  0.40659147985E+02  0.00000000000E+00 0. -1.
         11    1    3    3    0    0  0.23391683149E+01 -0.98781670895E+01  0.15711592969E+02  0.18705722316E+02  0.51100000000E-03 0.  1.
        -11    1    3    3    0    0  0.89193367432E+01 -0.10631689869E-01  0.97949360856E+01  0.13247469726E+02  0.51100000000E-03 0. -1.
         12    1    3    3    0    0 -0.10884605456E+02  0.34854920310E+01  0.14643491824E+02  0.18575659973E+02  0.00000000000E+00 0. -1.
</event>
<event>
 7    1  0.4836188E-013  0.5052886E+02  0.7816164E-02  0.1300439E+00
        -11   -1    0    0    0    0  0.00000000000E+00  0.00000000000E+00  0.45593999997E+02  0.45594000000E+02  0.51100000000E-03 0. -1.
         11   -1    0    0    0    0 -0.00000000000E+00 -0.00000000000E+00 -0.45593999997E+02  0.45594000000E+02  0.51100000000E-03 0.  1.
    9900012    2    1    2    0    0  0.38966209321E+02  0.54952701343E+01  0.10227506304E+02  0.50528863906E+02  0.30000012330E+02 0.  0.
         12    1    1    2    0    0 -0.38966209321E+02 -0.54952701343E+01 -0.10227506304E+02  0.40659136094E+02  0.00000000000E+00 0. -1.
         11    1    3    3    0    0 -0.11409088877E+01  0.49245786245E+01  0.28049374962E+01  0.57810744968E+01  0.51100000000E-03 0. -1.
        -11    1    3    3    0    0  0.88882064200E+01  0.45659283506E+01 -0.46716915656E+01  0.11030531148E+02  0.51100000000E-03 0.  1.
         12    1    3    3    0    0  0.31218911788E+02 -0.39952368407E+01  0.12094260374E+02  0.33717258261E+02  0.00000000000E+00 0. -1.
</event>
<event>
 7    1  0.4836188E-013  0.5052879E+02  0.7816164E-02  0.1300439E+00
        -11   -1    0    0    0    0  0.00000000000E+00  0.00000000000E+00  0.45593999997E+02  0.45594000000E+02  0.51100000000E-03 0.  1.
         11   -1    0    0    0    0 -0.00000000000E+00 -0.00000000000E+00 -0.45593999997E+02  0.45594000000E+02  0.51100000000E-03 0. -1.
    9900012    2    1    2    0    0 -0.39657870859E+02 -0.99366090776E+00  0.89127569638E+01  0.50528790468E+02  0.29999789105E+02 0.  0.
         12    1    1    2    0    0  0.39657870859E+02  0.99366090776E+00 -0.89127569638E+01  0.40659209532E+02  0.00000000000E+00 0. -1.
         11    1    3    3    0    0 -0.17233058257E+00  0.42598223593E+01  0.31043887730E+01  0.52738045354E+01  0.51100000000E-03 0. -1.
        -11    1    3    3    0    0 -0.23146430343E+02  0.73046702252E+01  0.29644825926E+01  0.24452067439E+02  0.51100000000E-03 0.  1.
         12    1    3    3    0    0 -0.16339109934E+02 -0.12558153492E+02  0.28438855982E+01  0.20802918494E+02  0.00000000000E+00 0. -1.
</event>
<event>
 7    1  0.4836188E-013  0.5052883E+02  0.7816164E-02  0.1300439E+00
        -11   -1    0    0    0    0  0.00000000000E+00  0.00000000000E+00  0.45593999997E+02  0.45594000000E+02  0.51100000000E-03 0. -1.
         11   -1    0    0    0    0 -0.00000000000E+00 -0.00000000000E+00 -0.45593999997E+02  0.45594000000E+02  0.51100000000E-03 0.  1.
    9900012    2    1    2    0    0  0.18933468906E+02 -0.21993888132E+02 -0.28477369780E+02  0.50528831913E+02  0.29999915082E+02 0.  0.
         12    1    1    2    0    0 -0.18933468906E+02  0.21993888132E+02  0.28477369780E+02  0.40659168087E+02  0.00000000000E+00 0. -1.
         11    1    3    3    0    0 -0.11279757531E+01 -0.45322089112E+00 -0.10172388609E+02  0.10244765920E+02  0.51100000000E-03 0. -1.
        -11    1    3    3    0    0  0.17163980145E+02 -0.23290158308E+02 -0.21169913517E+02  0.35849671225E+02  0.51100000000E-03 0.  1.
         12    1    3    3    0    0  0.28974645148E+01  0.17494910667E+01  0.28649323462E+01  0.44343947677E+01  0.00000000000E+00 0. -1.
</event>
<event>
 7    1  0.4836188E-013  0.5052886E+02  0.7816164E-02  0.1300439E+00
        -11   -1    0    0    0    0  0.00000000000E+00  0.00000000000E+00  0.45593999997E+02  0.45594000000E+02  0.51100000000E-03 0.  1.
         11   -1    0    0    0    0 -0.00000000000E+00 -0.00000000000E+00 -0.45593999997E+02  0.45594000000E+02  0.51100000000E-03 0. -1.
    9900012    2    1    2    0    0 -0.31436935477E+02 -0.22955077043E+02  0.11745186142E+02  0.50528857465E+02  0.29999992750E+02 0.  0.
         12    1    1    2    0    0  0.31436935477E+02  0.22955077043E+02 -0.11745186142E+02  0.40659142535E+02  0.00000000000E+00 0. -1.
         11    1    3    3    0    0 -0.72055506079E+01 -0.82774051464E+01 -0.53396859637E+01  0.12204410759E+02  0.51100000000E-03 0. -1.
        -11    1    3    3    0    0 -0.30190937441E+01 -0.12559462734E+02  0.52642796112E+01  0.13948751603E+02  0.51100000000E-03 0.  1.
        -12    1    3    3    0    0 -0.21212291124E+02 -0.21182091622E+01  0.11820592495E+02  0.24375695103E+02  0.00000000000E+00 0.  1.
</event>
<event>
 7    1  0.4836188E-013  0.5052885E+02  0.7816164E-02  0.1300439E+00
        -11   -1    0    0    0    0  0.00000000000E+00  0.00000000000E+00  0.45593999997E+02  0.45594000000E+02  0.51100000000E-03 0.  1.
         11   -1    0    0    0    0 -0.00000000000E+00 -0.00000000000E+00 -0.45593999997E+02  0.45594000000E+02  0.51100000000E-03 0. -1.
    9900012    2    1    2    0    0 -0.21304310281E+02  0.24093296306E+02  0.24875816200E+02  0.50528846110E+02  0.29999958235E+02 0.  0.
         12    1    1    2    0    0  0.21304310281E+02 -0.24093296306E+02 -0.24875816200E+02  0.40659153890E+02  0.00000000000E+00 0. -1.
         11    1    3    3    0    0  0.16743254246E-01 -0.64897448759E+00 -0.11301672437E+01  0.13033520176E+01  0.51100000000E-03 0. -1.
        -11    1    3    3    0    0 -0.24122287526E+02  0.14629618791E+02  0.96962067482E+01  0.29831643049E+02  0.51100000000E-03 0.  1.
         12    1    3    3    0    0  0.28012339909E+01  0.10112652003E+02  0.16309776696E+02  0.19393851043E+02  0.00000000000E+00 0. -1.
</event>
<event>
 7    1  0.4836188E-013  0.5052886E+02  0.7816164E-02  0.1300439E+00
        -11   -1    0    0    0    0  0.00000000000E+00  0.00000000000E+00  0.45593999997E+02  0.45594000000E+02  0.51100000000E-03 0.  1.
         11   -1    0    0    0    0 -0.00000000000E+00 -0.00000000000E+00 -0.45593999997E+02  0.45594000000E+02  0.51100000000E-03 0. -1.
    9900012    2    1    2    0    0 -0.39586621673E+02 -0.10371158071E+00  0.92765415752E+01  0.50528860865E+02  0.30000003087E+02 0.  0.
         12    1    1    2    0    0  0.39586621673E+02  0.10371158071E+00 -0.92765415752E+01  0.40659139135E+02  0.00000000000E+00 0. -1.
         11    1    3    3    0    0 -0.93120341439E+01  0.52600176517E+01 -0.61644142042E+01  0.12344301047E+02  0.51100000000E-03 0. -1.
        -11    1    3    3    0    0 -0.15636955478E+02  0.51349027616E+01  0.43242635034E+01  0.17017075486E+02  0.51100000000E-03 0.  1.
        -12    1    3    3    0    0 -0.14637632051E+02 -0.10498631994E+02  0.11116692276E+02  0.21167484332E+02  0.00000000000E+00 0.  1.
</event>
<event>
 7    1  0.4836188E-013  0.5052886E+02  0.7816164E-02  0.1300439E+00
        -11   -1    0    0    0    0  0.00000000000E+00  0.00000000000E+00  0.45593999997E+02  0.45594000000E+02  0.51100000000E-03 0.  1.
         11   -1    0    0    0    0 -0.00000000000E+00 -0.00000000000E+00 -0.45593999997E+02  0.45594000000E+02  0.51100000000E-03 0. -1.
    9900012    2    1    2    0    0 -0.96961739787E+00  0.22644149377E+02  0.33756005271E+02  0.50528861412E+02  0.30000004748E+02 0.  0.
         12    1    1    2    0    0  0.96961739787E+00 -0.22644149377E+02 -0.33756005271E+02  0.40659138588E+02  0.00000000000E+00 0. -1.
         11    1    3    3    0    0  0.17807768797E+01  0.96708711073E+01  0.29381587407E+02  0.30983456765E+02  0.51100000000E-03 0. -1.
        -11    1    3    3    0    0 -0.35467795256E+01 -0.52178290308E+00  0.48349496010E+01  0.60190232020E+01  0.51100000000E-03 0.  1.
         12    1    3    3    0    0  0.79638524807E+00  0.13495061173E+02 -0.46053173759E+00  0.13526381445E+02  0.00000000000E+00 0. -1.
</event>
<event>
 7    1  0.4836188E-013  0.5052885E+02  0.7816164E-02  0.1300439E+00
        -11   -1    0    0    0    0  0.00000000000E+00  0.00000000000E+00  0.45593999997E+02  0.45594000000E+02  0.51100000000E-03 0. -1.
         11   -1    0    0    0    0 -0.00000000000E+00 -0.00000000000E+00 -0.45593999997E+02  0.45594000000E+02  0.51100000000E-03 0.  1.
    9900012    2    1    2    0    0 -0.33984288181E+02  0.22300719937E+02 -0.95506827137E+00  0.50528854555E+02  0.29999983906E+02 0.  0.
         12    1    1    2    0    0  0.33984288181E+02 -0.22300719937E+02  0.95506827137E+00  0.40659145445E+02  0.00000000000E+00 0. -1.
         11    1    3    3    0    0 -0.48557296946E+00  0.41899010951E+01 -0.24394267663E+01  0.48725614932E+01  0.51100000000E-03 0. -1.
        -11    1    3    3    0    0 -0.32405798673E+02  0.23553753529E+02  0.87012540265E+00  0.40070839915E+02  0.51100000000E-03 0.  1.
         12    1    3    3    0    0 -0.10929165384E+01 -0.54429346873E+01  0.61423309225E+00  0.55854531474E+01  0.00000000000E+00 0. -1.
</event>
<event>
 7    1  0.4836188E-013  0.5052886E+02  0.7816164E-02  0.1300439E+00
        -11   -1    0    0    0    0  0.00000000000E+00  0.00000000000E+00  0.45593999997E+02  0.45594000000E+02  0.51100000000E-03 0.  1.
         11   -1    0    0    0    0 -0.00000000000E+00 -0.00000000000E+00 -0.45593999997E+02  0.45594000000E+02  0.51100000000E-03 0. -1.
    9900012    2    1    2    0    0 -0.16712061539E+02  0.35850499074E+02  0.94135302948E+01  0.50528857887E+02  0.29999994034E+02 0.  0.
         12    1    1    2    0    0  0.16712061539E+02 -0.35850499074E+02 -0.94135302948E+01  0.40659142113E+02  0.00000000000E+00 0. -1.
         11    1    3    3    0    0 -0.21528130383E+01  0.79578234630E+01  0.14747806923E+02  0.16895542831E+02  0.51100000000E-03 0. -1.
        -11    1    3    3    0    0 -0.26880138710E+01  0.11083566604E+02  0.23906233989E+01  0.11652722761E+02  0.51100000000E-03 0.  1.
         12    1    3    3    0    0 -0.11871234630E+02  0.16809109007E+02 -0.77249000270E+01  0.21980592296E+02  0.00000000000E+00 0. -1.
</event>
<event>
 7    1  0.4836188E-013  0.5052886E+02  0.7816164E-02  0.1300439E+00
        -11   -1    0    0    0    0  0.00000000000E+00  0.00000000000E+00  0.45593999997E+02  0.45594000000E+02  0.51100000000E-03 0.  1.
         11   -1    0    0    0    0 -0.00000000000E+00 -0.00000000000E+00 -0.45593999997E+02  0.45594000000E+02  0.51100000000E-03 0. -1.
    9900012    2    1    2    0    0  0.29454663721E+02  0.32087409835E+01  0.27844076554E+02  0.50528857944E+02  0.29999994206E+02 0.  0.
         12    1    1    2    0    0 -0.29454663721E+02 -0.32087409835E+01 -0.27844076554E+02  0.40659142056E+02  0.00000000000E+00 0. -1.
         11    1    3    3    0    0  0.17119228737E+02 -0.26678550995E+01 -0.39710059791E+00  0.17330410628E+02  0.51100000000E-03 0. -1.
        -11    1    3    3    0    0  0.89427599249E+01  0.18921223484E+01  0.75496162671E+01  0.11855369589E+02  0.51100000000E-03 0.  1.
        -12    1    3    3    0    0  0.33926750586E+01  0.39844737346E+01  0.20691560885E+02  0.21343077727E+02  0.00000000000E+00 0.  1.
</event>
<event>
 7    1  0.4836188E-013  0.5052886E+02  0.7816164E-02  0.1300439E+00
        -11   -1    0    0    0    0  0.00000000000E+00  0.00000000000E+00  0.45593999997E+02  0.45594000000E+02  0.51100000000E-03 0.  1.
         11   -1    0    0    0    0 -0.00000000000E+00 -0.00000000000E+00 -0.45593999997E+02  0.45594000000E+02  0.51100000000E-03 0. -1.
    9900012    2    1    2    0    0 -0.21393223021E+02 -0.32927851869E+02  0.10547621928E+02  0.50528858983E+02  0.29999997364E+02 0.  0.
         12    1    1    2    0    0  0.21393223021E+02  0.32927851869E+02 -0.10547621928E+02  0.40659141017E+02  0.00000000000E+00 0. -1.
         11    1    3    3    0    0 -0.26163151734E+01 -0.18089116268E+02 -0.59195336475E+01  0.19212030379E+02  0.51100000000E-03 0. -1.
        -11    1    3    3    0    0 -0.82549280615E+01 -0.80495789944E+01  0.12315003431E+01  0.11595522957E+02  0.51100000000E-03 0.  1.
         12    1    3    3    0    0 -0.10521979786E+02 -0.67891566073E+01  0.15235655232E+02  0.19721305647E+02  0.00000000000E+00 0. -1.
</event>
<event>
 7    1  0.4836188E-013  0.5052886E+02  0.7816164E-02  0.1300439E+00
        -11   -1    0    0    0    0  0.00000000000E+00  0.00000000000E+00  0.45593999997E+02  0.45594000000E+02  0.51100000000E-03 0.  1.
         11   -1    0    0    0    0 -0.00000000000E+00 -0.00000000000E+00 -0.45593999997E+02  0.45594000000E+02  0.51100000000E-03 0. -1.
    9900012    2    1    2    0    0 -0.98043970921E+01 -0.27878730843E+02 -0.27925184182E+02  0.50528858994E+02  0.29999997398E+02 0.  0.
         12    1    1    2    0    0  0.98043970921E+01  0.27878730843E+02  0.27925184182E+02  0.40659141006E+02  0.00000000000E+00 0. -1.
         11    1    3    3    0    0 -0.11633758969E+02 -0.64670055712E+01 -0.18867800105E+02  0.23090266128E+02  0.51100000000E-03 0. -1.
        -11    1    3    3    0    0 -0.52219806239E+01 -0.11511297641E+02 -0.85744560516E+01  0.15274172706E+02  0.51100000000E-03 0.  1.
        -12    1    3    3    0    0  0.70513425009E+01 -0.99004276302E+01 -0.48292802543E+00  0.12164420159E+02  0.00000000000E+00 0.  1.
</event>
<event>
 7    1  0.4836188E-013  0.5052886E+02  0.7816164E-02  0.1300439E+00
        -11   -1    0    0    0    0  0.00000000000E+00  0.00000000000E+00  0.45593999997E+02  0.45594000000E+02  0.51100000000E-03 0. -1.
         11   -1    0    0    0    0 -0.00000000000E+00 -0.00000000000E+00 -0.45593999997E+02  0.45594000000E+02  0.51100000000E-03 0.  1.
    9900012    2    1    2    0    0  0.22931612502E+02 -0.30930377946E+02 -0.13062093455E+02  0.50528863053E+02  0.30000009736E+02 0.  0.
         12    1    1    2    0    0 -0.22931612502E+02  0.30930377946E+02  0.13062093455E+02  0.40659136947E+02  0.00000000000E+00 0. -1.
         11    1    3    3    0    0  0.22366264827E+02 -0.10210753818E+02 -0.11638463687E+02  0.27202263382E+02  0.51100000000E-03 0. -1.
        -11    1    3    3    0    0 -0.70992389046E+00 -0.14775014124E+02 -0.57438565110E+01  0.15868110227E+02  0.51100000000E-03 0.  1.
        -12    1    3    3    0    0  0.12752715649E+01 -0.59446100043E+01  0.43202267436E+01  0.74584894438E+01  0.00000000000E+00 0.  1.
</event>
<event>
 7    1  0.4836188E-013  0.5052886E+02  0.7816164E-02  0.1300439E+00
        -11   -1    0    0    0    0  0.00000000000E+00  0.00000000000E+00  0.45593999997E+02  0.45594000000E+02  0.51100000000E-03 0.  1.
         11   -1    0    0    0    0 -0.00000000000E+00 -0.00000000000E+00 -0.45593999997E+02  0.45594000000E+02  0.51100000000E-03 0. -1.
    9900012    2    1    2    0    0 -0.26781715450E+02 -0.29841965803E+02 -0.67351686325E+01  0.50528859552E+02  0.29999999096E+02 0.  0.
         12    1    1    2    0    0  0.26781715450E+02  0.29841965803E+02  0.67351686325E+01  0.40659140448E+02  0.00000000000E+00 0. -1.
         11    1    3    3    0    0  0.61726058642E+00 -0.64737810759E+01  0.41656821560E+01  0.77229372739E+01  0.51100000000E-03 0. -1.
        -11    1    3    3    0    0 -0.21370581688E+02 -0.26936598071E+02 -0.93038366338E+01  0.35620828930E+02  0.51100000000E-03 0.  1.
         12    1    3    3    0    0 -0.60283943487E+01  0.35684133437E+01 -0.15970141547E+01  0.71850933484E+01  0.00000000000E+00 0. -1.
</event>
<event>
 7    1  0.4836188E-013  0.5052886E+02  0.7816164E-02  0.1300439E+00
        -11   -1    0    0    0    0  0.00000000000E+00  0.00000000000E+00  0.45593999997E+02  0.45594000000E+02  0.51100000000E-03 0.  1.
         11   -1    0    0    0    0 -0.00000000000E+00 -0.00000000000E+00 -0.45593999997E+02  0.45594000000E+02  0.51100000000E-03 0. -1.
    9900012    2    1    2    0    0  0.14067700015E+02 -0.29637900559E+02 -0.24017918121E+02  0.50528859280E+02  0.29999998267E+02 0.  0.
         12    1    1    2    0    0 -0.14067700015E+02  0.29637900559E+02  0.24017918121E+02  0.40659140720E+02  0.00000000000E+00 0. -1.
         11    1    3    3    0    0 -0.50379360092E+01 -0.13929888115E+02 -0.14152495142E+02  0.20486964175E+02  0.51100000000E-03 0. -1.
        -11    1    3    3    0    0  0.74922911107E+01 -0.11448961127E+02 -0.11088906823E+02  0.17611842372E+02  0.51100000000E-03 0.  1.
         12    1    3    3    0    0  0.11613344914E+02 -0.42590513176E+01  0.12234838441E+01  0.12430052732E+02  0.00000000000E+00 0. -1.
</event>
<event>
 7    1  0.4836188E-013  0.5052888E+02  0.7816164E-02  0.1300439E+00
        -11   -1    0    0    0    0  0.00000000000E+00  0.00000000000E+00  0.45593999997E+02  0.45594000000E+02  0.51100000000E-03 0.  1.
         11   -1    0    0    0    0 -0.00000000000E+00 -0.00000000000E+00 -0.45593999997E+02  0.45594000000E+02  0.51100000000E-03 0. -1.
    9900012    2    1    2    0    0  0.95276597846E+01  0.39416382693E+02  0.29556992856E+01  0.50528884370E+02  0.30000074530E+02 0.  0.
         12    1    1    2    0    0 -0.95276597846E+01 -0.39416382693E+02 -0.29556992856E+01  0.40659115630E+02  0.00000000000E+00 0. -1.
         11    1    3    3    0    0  0.38956415658E+01  0.48566343031E+01 -0.60656545010E+01  0.86922427917E+01  0.51100000000E-03 0. -1.
        -11    1    3    3    0    0  0.12151595458E+02  0.11349923327E+02  0.52394405678E+01  0.17433696379E+02  0.51100000000E-03 0.  1.
        -12    1    3    3    0    0 -0.65195772388E+01  0.23209825063E+02  0.37819132188E+01  0.24402945200E+02  0.00000000000E+00 0.  1.
</event>
<event>
 7    1  0.4836188E-013  0.5052886E+02  0.7816164E-02  0.1300439E+00
        -11   -1    0    0    0    0  0.00000000000E+00  0.00000000000E+00  0.45593999997E+02  0.45594000000E+02  0.51100000000E-03 0. -1.
         11   -1    0    0    0    0 -0.00000000000E+00 -0.00000000000E+00 -0.45593999997E+02  0.45594000000E+02  0.51100000000E-03 0.  1.
    9900012    2    1    2    0    0  0.21151911948E+02  0.21643777848E+02 -0.27153439532E+02  0.50528858629E+02  0.29999996289E+02 0.  0.
         12    1    1    2    0    0 -0.21151911948E+02 -0.21643777848E+02  0.27153439532E+02  0.40659141371E+02  0.00000000000E+00 0. -1.
         11    1    3    3    0    0  0.79958116513E+01  0.11238343049E+00 -0.12049598043E+02  0.14461619801E+02  0.51100000000E-03 0. -1.
        -11    1    3    3    0    0  0.89600967825E+01  0.19748872540E+02 -0.19912058938E+02  0.29441321172E+02  0.51100000000E-03 0.  1.
        -12    1    3    3    0    0  0.41960035146E+01  0.17825218782E+01  0.48082174496E+01  0.66259176560E+01  0.00000000000E+00 0.  1.
</event>
<event>
 7    1  0.4836188E-013  0.5052886E+02  0.7816164E-02  0.1300439E+00
        -11   -1    0    0    0    0  0.00000000000E+00  0.00000000000E+00  0.45593999997E+02  0.45594000000E+02  0.51100000000E-03 0. -1.
         11   -1    0    0    0    0 -0.00000000000E+00 -0.00000000000E+00 -0.45593999997E+02  0.45594000000E+02  0.51100000000E-03 0.  1.
    9900012    2    1    2    0    0  0.10660755298E+02 -0.19344661584E+01 -0.39188923164E+02  0.50528861278E+02  0.30000004340E+02 0.  0.
         12    1    1    2    0    0 -0.10660755298E+02  0.19344661584E+01  0.39188923164E+02  0.40659138722E+02  0.00000000000E+00 0. -1.
         11    1    3    3    0    0 -0.19081611697E+01 -0.30264675332E+01 -0.30907338538E+02  0.31113729454E+02  0.51100000000E-03 0. -1.
        -11    1    3    3    0    0  0.64226297258E+01 -0.30076453308E+01 -0.95742573926E+01  0.11914802051E+02  0.51100000000E-03 0.  1.
         12    1    3    3    0    0  0.61462867417E+01  0.40996467056E+01  0.12926727663E+01  0.75003297729E+01  0.00000000000E+00 0. -1.
</event>
<event>
 7    1  0.4836188E-013  0.5052897E+02  0.7816164E-02  0.1300438E+00
        -11   -1    0    0    0    0  0.00000000000E+00  0.00000000000E+00  0.45593999997E+02  0.45594000000E+02  0.51100000000E-03 0.  1.
         11   -1    0    0    0    0 -0.00000000000E+00 -0.00000000000E+00 -0.45593999997E+02  0.45594000000E+02  0.51100000000E-03 0. -1.
    9900012    2    1    2    0    0 -0.37737158401E+02  0.14812310925E+02  0.31078516081E+01  0.50528973686E+02  0.30000346015E+02 0.  0.
         12    1    1    2    0    0  0.37737158401E+02 -0.14812310925E+02 -0.31078516081E+01  0.40659026314E+02  0.00000000000E+00 0. -1.
         11    1    3    3    0    0 -0.30867428349E+02  0.10220775787E+02  0.32300500374E+01  0.32675611916E+02  0.51100000000E-03 0. -1.
        -11    1    3    3    0    0 -0.78552808296E+01 -0.36114225424E+01 -0.29279114547E+01  0.91280050087E+01  0.51100000000E-03 0.  1.
         12    1    3    3    0    0  0.98555077717E+00  0.82029576802E+01  0.28057130254E+01  0.87253567617E+01  0.00000000000E+00 0. -1.
</event>
<event>
 7    1  0.4836188E-013  0.5052889E+02  0.7816164E-02  0.1300439E+00
        -11   -1    0    0    0    0  0.00000000000E+00  0.00000000000E+00  0.45593999997E+02  0.45594000000E+02  0.51100000000E-03 0. -1.
         11   -1    0    0    0    0 -0.00000000000E+00 -0.00000000000E+00 -0.45593999997E+02  0.45594000000E+02  0.51100000000E-03 0.  1.
    9900012    2    1    2    0    0 -0.15180581718E+02 -0.31528516263E+02 -0.20704247595E+02  0.50528889489E+02  0.30000090090E+02 0.  0.
         12    1    1    2    0    0  0.15180581718E+02  0.31528516263E+02  0.20704247595E+02  0.40659110511E+02  0.00000000000E+00 0. -1.
         11    1    3    3    0    0  0.56433681307E+01 -0.52124884908E+01 -0.35886987810E+01  0.84791744484E+01  0.51100000000E-03 0. -1.
        -11    1    3    3    0    0 -0.58618591718E+01  0.14132207042E+01 -0.63405553321E+01  0.87499273077E+01  0.51100000000E-03 0.  1.
         12    1    3    3    0    0 -0.14962090677E+02 -0.27729248477E+02 -0.10774993482E+02  0.33299787733E+02  0.00000000000E+00 0. -1.
</event>
<event>
 7    1  0.4836188E-013  0.5052886E+02  0.7816164E-02  0.1300439E+00
        -11   -1    0    0    0    0  0.00000000000E+00  0.00000000000E+00  0.45593999997E+02  0.45594000000E+02  0.51100000000E-03 0. -1.
         11   -1    0    0    0    0 -0.00000000000E+00 -0.00000000000E+00 -0.45593999997E+02  0.45594000000E+02  0.51100000000E-03 0.  1.
    9900012    2    1    2    0    0 -0.41209302711E+01 -0.10177061147E+02 -0.39148573431E+02  0.50528862754E+02  0.30000008827E+02 0.  0.
         12    1    1    2    0    0  0.41209302711E+01  0.10177061147E+02  0.39148573431E+02  0.40659137246E+02  0.00000000000E+00 0. -1.
         11    1    3    3    0    0 -0.71426358917E+01 -0.20525702672E+01 -0.16290414850E+02  0.17905527315E+02  0.51100000000E-03 0. -1.
        -11    1    3    3    0    0  0.30295991412E+01 -0.63878279071E+01 -0.27117288820E+02  0.28023742960E+02  0.51100000000E-03 0.  1.
         12    1    3    3    0    0 -0.78935205138E-02 -0.17366629729E+01  0.42591302379E+01  0.45995924790E+01  0.00000000000E+00 0. -1.
</event>
<event>
 7    1  0.4836188E-013  0.5052886E+02  0.7816164E-02  0.1300439E+00
        -11   -1    0    0    0    0  0.00000000000E+00  0.00000000000E+00  0.45593999997E+02  0.45594000000E+02  0.51100000000E-03 0. -1.
         11   -1    0    0    0    0 -0.00000000000E+00 -0.00000000000E+00 -0.45593999997E+02  0.45594000000E+02  0.51100000000E-03 0.  1.
    9900012    2    1    2    0    0 -0.38734811157E+02  0.45615779080E+01 -0.11487919610E+02  0.50528857297E+02  0.29999992241E+02 0.  0.
         12    1    1    2    0    0  0.38734811157E+02 -0.45615779080E+01  0.11487919610E+02  0.40659142703E+02  0.00000000000E+00 0. -1.
         11    1    3    3    0    0 -0.18596962022E+02  0.14185751762E+02 -0.96936068511E+00  0.23409874197E+02  0.51100000000E-03 0. -1.
        -11    1    3    3    0    0 -0.84463215476E+01 -0.11652113959E+01  0.10938415622E+01  0.85961942106E+01  0.51100000000E-03 0.  1.
         12    1    3    3    0    0 -0.11691527587E+02 -0.84589624585E+01 -0.11612400487E+02  0.18522788890E+02  0.00000000000E+00 0. -1.
</event>
<event>
 7    1  0.4836188E-013  0.5052886E+02  0.7816164E-02  0.1300439E+00
        -11   -1    0    0    0    0  0.00000000000E+00  0.00000000000E+00  0.45593999997E+02  0.45594000000E+02  0.51100000000E-03 0. -1.
         11   -1    0    0    0    0 -0.00000000000E+00 -0.00000000000E+00 -0.45593999997E+02  0.45594000000E+02  0.51100000000E-03 0.  1.
    9900012    2    1    2    0    0  0.27808714623E+02  0.18766654230E+02 -0.22970715322E+02  0.50528859793E+02  0.29999999826E+02 0.  0.
         12    1    1    2    0    0 -0.27808714623E+02 -0.18766654230E+02  0.22970715322E+02  0.40659140207E+02  0.00000000000E+00 0. -1.
         11    1    3    3    0    0  0.18397227859E+02  0.22137226609E+02 -0.94835955446E+01  0.30305995769E+02  0.51100000000E-03 0. -1.
        -11    1    3    3    0    0  0.61582957053E+01 -0.14321987575E+01 -0.11374348912E+00  0.63236648486E+01  0.51100000000E-03 0.  1.
        -12    1    3    3    0    0  0.32531910586E+01 -0.19383736209E+01 -0.13373376288E+02  0.13899199175E+02  0.00000000000E+00 0.  1.
</event>
<event>
 7    1  0.4836188E-013  0.5052882E+02  0.7816164E-02  0.1300439E+00
        -11   -1    0    0    0    0  0.00000000000E+00  0.00000000000E+00  0.45593999997E+02  0.45594000000E+02  0.51100000000E-03 0.  1.
         11   -1    0    0    0    0 -0.00000000000E+00 -0.00000000000E+00 -0.45593999997E+02  0.45594000000E+02  0.51100000000E-03 0. -1.
    9900012    2    1    2    0    0 -0.49847024519E+01  0.35935737361E+02  0.18356050398E+02  0.50528818202E+02  0.29999873408E+02 0.  0.
         12    1    1    2    0    0  0.49847024519E+01 -0.35935737361E+02 -0.18356050398E+02  0.40659181798E+02  0.00000000000E+00 0. -1.
         11    1    3    3    0    0 -0.24512847276E+01  0.17257357985E+02  0.38545718620E+00  0.17434843817E+02  0.51100000000E-03 0. -1.
        -11    1    3    3    0    0 -0.65466441572E+01  0.21720461680E+02  0.15573006764E+02  0.27516459533E+02  0.51100000000E-03 0.  1.
         12    1    3    3    0    0  0.40132264329E+01 -0.30420823040E+01  0.23975864484E+01  0.55775148519E+01  0.00000000000E+00 0. -1.
</event>
<event>
 7    1  0.4836188E-013  0.5052884E+02  0.7816164E-02  0.1300439E+00
        -11   -1    0    0    0    0  0.00000000000E+00  0.00000000000E+00  0.45593999997E+02  0.45594000000E+02  0.51100000000E-03 0.  1.
         11   -1    0    0    0    0 -0.00000000000E+00 -0.00000000000E+00 -0.45593999997E+02  0.45594000000E+02  0.51100000000E-03 0. -1.
    9900012    2    1    2    0    0  0.47993436733E+01 -0.25069240640E+02  0.31649122025E+02  0.50528838044E+02  0.29999933720E+02 0.  0.
         12    1    1    2    0    0 -0.47993436733E+01  0.25069240640E+02 -0.31649122025E+02  0.40659161956E+02  0.00000000000E+00 0. -1.
         11    1    3    3    0    0  0.23505016745E+01 -0.26333643639E+02  0.25015572686E+02  0.36397314770E+02  0.51100000000E-03 0.  1.
        -11    1    3    3    0    0  0.51255192891E+00 -0.43551017216E+01 -0.95937837366E+00  0.44888782129E+01  0.51100000000E-03 0. -1.
        -12    1    3    3    0    0  0.19362900699E+01  0.56195047199E+01  0.75929277122E+01  0.96426450611E+01  0.00000000000E+00 0.  1.
</event>
<event>
 7    1  0.4836188E-013  0.5052885E+02  0.7816164E-02  0.1300439E+00
        -11   -1    0    0    0    0  0.00000000000E+00  0.00000000000E+00  0.45593999997E+02  0.45594000000E+02  0.51100000000E-03 0.  1.
         11   -1    0    0    0    0 -0.00000000000E+00 -0.00000000000E+00 -0.45593999997E+02  0.45594000000E+02  0.51100000000E-03 0. -1.
    9900012    2    1    2    0    0  0.11983465394E+02 -0.18126537353E+02  0.34365561048E+02  0.50528848688E+02  0.29999966072E+02 0.  0.
         12    1    1    2    0    0 -0.11983465394E+02  0.18126537353E+02 -0.34365561048E+02  0.40659151312E+02  0.00000000000E+00 0. -1.
         11    1    3    3    0    0  0.93792309839E+00 -0.47801720305E+01 -0.14905443892E+01  0.50942582598E+01  0.51100000000E-03 0. -1.
        -11    1    3    3    0    0 -0.40968497224E+01 -0.11967205221E+02  0.14934553952E+02  0.19571384224E+02  0.51100000000E-03 0.  1.
        -12    1    3    3    0    0  0.15142392018E+02 -0.13791601016E+01  0.20921551485E+02  0.25863206204E+02  0.00000000000E+00 0.  1.
</event>
<event>
 7    1  0.4836188E-013  0.5052885E+02  0.7816164E-02  0.1300439E+00
        -11   -1    0    0    0    0  0.00000000000E+00  0.00000000000E+00  0.45593999997E+02  0.45594000000E+02  0.51100000000E-03 0.  1.
         11   -1    0    0    0    0 -0.00000000000E+00 -0.00000000000E+00 -0.45593999997E+02  0.45594000000E+02  0.51100000000E-03 0. -1.
    9900012    2    1    2    0    0 -0.50156278259E+00  0.74140125133E+01  0.39974329277E+02  0.50528854068E+02  0.29999982424E+02 0.  0.
         12    1    1    2    0    0  0.50156278259E+00 -0.74140125133E+01 -0.39974329277E+02  0.40659145932E+02  0.00000000000E+00 0. -1.
         11    1    3    3    0    0  0.39123152849E+01 -0.56007896487E-01 -0.33535921548E+01  0.51532444513E+01  0.51100000000E-03 0. -1.
        -11    1    3    3    0    0  0.23760752029E+01 -0.10348170951E+01  0.87056285997E+01  0.90832014932E+01  0.51100000000E-03 0.  1.
         12    1    3    3    0    0 -0.67899532703E+01  0.85048375049E+01  0.34622292832E+02  0.36292408123E+02  0.00000000000E+00 0. -1.
</event>
<event>
 7    1  0.4836188E-013  0.5052885E+02  0.7816164E-02  0.1300439E+00
        -11   -1    0    0    0    0  0.00000000000E+00  0.00000000000E+00  0.45593999997E+02  0.45594000000E+02  0.51100000000E-03 0.  1.
         11   -1    0    0    0    0 -0.00000000000E+00 -0.00000000000E+00 -0.45593999997E+02  0.45594000000E+02  0.51100000000E-03 0. -1.
    9900012    2    1    2    0    0  0.12708409992E+02 -0.21089461709E+02  0.32355795203E+02  0.50528848965E+02  0.29999966913E+02 0.  0.
         12    1    1    2    0    0 -0.12708409992E+02  0.21089461709E+02 -0.32355795203E+02  0.40659151035E+02  0.00000000000E+00 0. -1.
         11    1    3    3    0    0  0.10403176915E+02 -0.30813555929E+01  0.12289029597E+01  0.10919296907E+02  0.51100000000E-03 0. -1.
        -11    1    3    3    0    0  0.78191242543E+01 -0.14360449050E+02  0.15036563868E+02  0.22213947291E+02  0.51100000000E-03 0.  1.
        -12    1    3    3    0    0 -0.55138911768E+01 -0.36476570665E+01  0.16090328375E+02  0.17395604767E+02  0.00000000000E+00 0.  1.
</event>
<event>
 7    1  0.4836188E-013  0.5052886E+02  0.7816164E-02  0.1300439E+00
        -11   -1    0    0    0    0  0.00000000000E+00  0.00000000000E+00  0.45593999997E+02  0.45594000000E+02  0.51100000000E-03 0.  1.
         11   -1    0    0    0    0 -0.00000000000E+00 -0.00000000000E+00 -0.45593999997E+02  0.45594000000E+02  0.51100000000E-03 0. -1.
    9900012    2    1    2    0    0  0.14435070992E+02 -0.17484523562E+02  0.33750351043E+02  0.50528855466E+02  0.29999986674E+02 0.  0.
         12    1    1    2    0    0 -0.14435070992E+02  0.17484523562E+02 -0.33750351043E+02  0.40659144534E+02  0.00000000000E+00 0. -1.
         11    1    3    3    0    0  0.43351687044E+00 -0.16786331638E+02  0.17575859990E+02  0.24308017636E+02  0.51100000000E-03 0. -1.
        -11    1    3    3    0    0 -0.16537834669E-01  0.16918838782E+01  0.10936233814E+02  0.11066343337E+02  0.51100000000E-03 0.  1.
         12    1    3    3    0    0  0.14018091956E+02 -0.23900758028E+01  0.52382572384E+01  0.15154494493E+02  0.00000000000E+00 0. -1.
</event>
<event>
 7    1  0.4836188E-013  0.5052891E+02  0.7816164E-02  0.1300439E+00
        -11   -1    0    0    0    0  0.00000000000E+00  0.00000000000E+00  0.45593999997E+02  0.45594000000E+02  0.51100000000E-03 0. -1.
         11   -1    0    0    0    0 -0.00000000000E+00 -0.00000000000E+00 -0.45593999997E+02  0.45594000000E+02  0.51100000000E-03 0.  1.
    9900012    2    1    2    0    0  0.39345649191E+00  0.38301464571E+02 -0.13638348887E+02  0.50528910529E+02  0.30000154042E+02 0.  0.
         12    1    1    2    0    0 -0.39345649191E+00 -0.38301464571E+02  0.13638348887E+02  0.40659089471E+02  0.00000000000E+00 0. -1.
         11    1    3    3    0    0 -0.32697238034E+01 -0.19881890091E+01 -0.49296768956E+01  0.62406493125E+01  0.51100000000E-03 0. -1.
        -11    1    3    3    0    0 -0.46315303519E+01  0.15036472452E+02 -0.81103784759E+01  0.17700983489E+02  0.51100000000E-03 0.  1.
         12    1    3    3    0    0  0.82947106472E+01  0.25253181128E+02 -0.59829351589E+00  0.26587277727E+02  0.00000000000E+00 0. -1.
</event>
<event>
 7    1  0.4836188E-013  0.5052886E+02  0.7816164E-02  0.1300439E+00
        -11   -1    0    0    0    0  0.00000000000E+00  0.00000000000E+00  0.45593999997E+02  0.45594000000E+02  0.51100000000E-03 0. -1.
         11   -1    0    0    0    0 -0.00000000000E+00 -0.00000000000E+00 -0.45593999997E+02  0.45594000000E+02  0.51100000000E-03 0.  1.
    9900012    2    1    2    0    0 -0.29538603604E+02 -0.26510043729E+02 -0.88234994873E+01  0.50528860011E+02  0.30000000490E+02 0.  0.
         12    1    1    2    0    0  0.29538603604E+02  0.26510043729E+02  0.88234994873E+01  0.40659139989E+02  0.00000000000E+00 0. -1.
         11    1    3    3    0    0 -0.11144247721E+02 -0.17648945099E+02 -0.41178301337E+00  0.20876998968E+02  0.51100000000E-03 0. -1.
        -11    1    3    3    0    0 -0.13352594004E+02 -0.14281249002E+02 -0.16409034595E+01  0.19619847199E+02  0.51100000000E-03 0.  1.
         12    1    3    3    0    0 -0.50417618793E+01  0.54201503717E+01 -0.67708130145E+01  0.10032013845E+02  0.00000000000E+00 0. -1.
</event>
<event>
 7    1  0.4836188E-013  0.5052884E+02  0.7816164E-02  0.1300439E+00
        -11   -1    0    0    0    0  0.00000000000E+00  0.00000000000E+00  0.45593999997E+02  0.45594000000E+02  0.51100000000E-03 0. -1.
         11   -1    0    0    0    0 -0.00000000000E+00 -0.00000000000E+00 -0.45593999997E+02  0.45594000000E+02  0.51100000000E-03 0.  1.
    9900012    2    1    2    0    0 -0.72589333744E+00 -0.36724299251E+02 -0.17434621084E+02  0.50528842496E+02  0.29999947251E+02 0.  0.
         12    1    1    2    0    0  0.72589333744E+00  0.36724299251E+02  0.17434621084E+02  0.40659157504E+02  0.00000000000E+00 0. -1.
         11    1    3    3    0    0  0.92055968634E+00 -0.17546406460E+02 -0.86944537205E+01  0.19604013251E+02  0.51100000000E-03 0.  1.
        -11    1    3    3    0    0 -0.82688985226E+00 -0.10113721543E+01  0.68489863299E+01  0.69724625829E+01  0.51100000000E-03 0. -1.
         12    1    3    3    0    0 -0.81956317152E+00 -0.18166520637E+02 -0.15589153693E+02  0.23952366662E+02  0.00000000000E+00 0. -1.
</event>
<event>
 7    1  0.4836188E-013  0.5052873E+02  0.7816164E-02  0.1300439E+00
        -11   -1    0    0    0    0  0.00000000000E+00  0.00000000000E+00  0.45593999997E+02  0.45594000000E+02  0.51100000000E-03 0. -1.
         11   -1    0    0    0    0 -0.00000000000E+00 -0.00000000000E+00 -0.45593999997E+02  0.45594000000E+02  0.51100000000E-03 0.  1.
    9900012    2    1    2    0    0  0.15315776401E+02  0.30745318690E+02 -0.21756107939E+02  0.50528734626E+02  0.29999619366E+02 0.  0.
         12    1    1    2    0    0 -0.15315776401E+02 -0.30745318690E+02  0.21756107939E+02  0.40659265374E+02  0.00000000000E+00 0. -1.
         11    1    3    3    0    0  0.84886671257E+01  0.91429335671E+01 -0.12241300048E+02  0.17478562038E+02  0.51100000000E-03 0. -1.
        -11    1    3    3    0    0  0.12717597520E+02  0.13050855616E+02 -0.12673540382E+02  0.22196412888E+02  0.51100000000E-03 0.  1.
         12    1    3    3    0    0 -0.58904882450E+01  0.85515295071E+01  0.31587324913E+01  0.10853759700E+02  0.00000000000E+00 0. -1.
</event>
<event>
 7    1  0.4836188E-013  0.5052887E+02  0.7816164E-02  0.1300439E+00
        -11   -1    0    0    0    0  0.00000000000E+00  0.00000000000E+00  0.45593999997E+02  0.45594000000E+02  0.51100000000E-03 0.  1.
         11   -1    0    0    0    0 -0.00000000000E+00 -0.00000000000E+00 -0.45593999997E+02  0.45594000000E+02  0.51100000000E-03 0. -1.
    9900012    2    1    2    0    0 -0.26673672472E+01 -0.75762159856E+01  0.39857884287E+02  0.50528870194E+02  0.30000031443E+02 0.  0.
         12    1    1    2    0    0  0.26673672472E+01  0.75762159856E+01 -0.39857884287E+02  0.40659129806E+02  0.00000000000E+00 0. -1.
         11    1    3    3    0    0 -0.11752528231E+02 -0.77372887479E+01  0.11502015844E+02  0.18173715243E+02  0.51100000000E-03 0. -1.
        -11    1    3    3    0    0  0.94237306967E+00 -0.46049518824E+01  0.16755322512E+02  0.17402140144E+02  0.51100000000E-03 0.  1.
        -12    1    3    3    0    0  0.81427879144E+01  0.47660246447E+01  0.11600545932E+02  0.14953014808E+02  0.00000000000E+00 0.  1.
</event>
<event>
 7    1  0.4836188E-013  0.5052886E+02  0.7816164E-02  0.1300439E+00
        -11   -1    0    0    0    0  0.00000000000E+00  0.00000000000E+00  0.45593999997E+02  0.45594000000E+02  0.51100000000E-03 0.  1.
         11   -1    0    0    0    0 -0.00000000000E+00 -0.00000000000E+00 -0.45593999997E+02  0.45594000000E+02  0.51100000000E-03 0. -1.
    9900012    2    1    2    0    0 -0.44061641077E+01 -0.27871511109E+02  0.29273367660E+02  0.50528862432E+02  0.30000007848E+02 0.  0.
         12    1    1    2    0    0  0.44061641077E+01  0.27871511109E+02 -0.29273367660E+02  0.40659137568E+02  0.00000000000E+00 0. -1.
         11    1    3    3    0    0 -0.31844514115E+01 -0.19967141195E+02  0.33430914145E+01  0.20493992260E+02  0.51100000000E-03 0. -1.
        -11    1    3    3    0    0 -0.46636974862E+01 -0.84727507832E+01  0.10756064892E+02  0.14464802532E+02  0.51100000000E-03 0.  1.
         12    1    3    3    0    0  0.34419847901E+01  0.56838086920E+00  0.15174211354E+02  0.15570067640E+02  0.00000000000E+00 0. -1.
</event>
<event>
 7    1  0.4836188E-013  0.5052886E+02  0.7816164E-02  0.1300439E+00
        -11   -1    0    0    0    0  0.00000000000E+00  0.00000000000E+00  0.45593999997E+02  0.45594000000E+02  0.51100000000E-03 0.  1.
         11   -1    0    0    0    0 -0.00000000000E+00 -0.00000000000E+00 -0.45593999997E+02  0.45594000000E+02  0.51100000000E-03 0. -1.
    9900012    2    1    2    0    0  0.71236380548E+01  0.30918712880E+02  0.25425428773E+02  0.50528862607E+02  0.30000008380E+02 0.  0.
         12    1    1    2    0    0 -0.71236380548E+01 -0.30918712880E+02 -0.25425428773E+02  0.40659137393E+02  0.00000000000E+00 0. -1.
         11    1    3    3    0    0  0.92038102908E+00 -0.30425235183E+01  0.14924922644E+01  0.35116355190E+01  0.51100000000E-03 0. -1.
        -11    1    3    3    0    0  0.42906934802E+01  0.69446035530E+01 -0.31175050934E+01  0.87382153394E+01  0.51100000000E-03 0.  1.
         12    1    3    3    0    0  0.19125635455E+01  0.27016632845E+02  0.27050441602E+02  0.38279011749E+02  0.00000000000E+00 0. -1.
</event>
<event>
 7    1  0.4836188E-013  0.5052886E+02  0.7816164E-02  0.1300439E+00
        -11   -1    0    0    0    0  0.00000000000E+00  0.00000000000E+00  0.45593999997E+02  0.45594000000E+02  0.51100000000E-03 0. -1.
         11   -1    0    0    0    0 -0.00000000000E+00 -0.00000000000E+00 -0.45593999997E+02  0.45594000000E+02  0.51100000000E-03 0.  1.
    9900012    2    1    2    0    0  0.23328901914E+02  0.93980758629E+00  0.33287307439E+02  0.50528859093E+02  0.29999997698E+02 0.  0.
         12    1    1    2    0    0 -0.23328901914E+02 -0.93980758629E+00 -0.33287307439E+02  0.40659140907E+02  0.00000000000E+00 0. -1.
         11    1    3    3    0    0  0.16793765016E+01 -0.97839486418E+01  0.17990379728E+02  0.20547499105E+02  0.51100000000E-03 0. -1.
        -11    1    3    3    0    0  0.85659442469E+01  0.32649454450E+01  0.11001960222E+02  0.14320558599E+02  0.51100000000E-03 0.  1.
        -12    1    3    3    0    0  0.13083581165E+02  0.74588107831E+01  0.42949674897E+01  0.15660801389E+02  0.00000000000E+00 0.  1.
</event>
<event>
 7    1  0.4836188E-013  0.5052887E+02  0.7816164E-02  0.1300439E+00
        -11   -1    0    0    0    0  0.00000000000E+00  0.00000000000E+00  0.45593999997E+02  0.45594000000E+02  0.51100000000E-03 0.  1.
         11   -1    0    0    0    0 -0.00000000000E+00 -0.00000000000E+00 -0.45593999997E+02  0.45594000000E+02  0.51100000000E-03 0. -1.
    9900012    2    1    2    0    0 -0.15743207162E+02  0.13728274163E+02  0.34883388002E+02  0.50528870131E+02  0.30000031250E+02 0.  0.
         12    1    1    2    0    0  0.15743207162E+02 -0.13728274163E+02 -0.34883388002E+02  0.40659129869E+02  0.00000000000E+00 0. -1.
         11    1    3    3    0    0 -0.97138587671E+00  0.52666446840E+00 -0.27893401695E+01  0.30002307955E+01  0.51100000000E-03 0. -1.
        -11    1    3    3    0    0 -0.12744964921E+02  0.96915007421E+01  0.85999384360E+01  0.18174659800E+02  0.51100000000E-03 0.  1.
         12    1    3    3    0    0 -0.20268563641E+01  0.35101089528E+01  0.29072789735E+02  0.29353979535E+02  0.00000000000E+00 0. -1.
</event>
<event>
 7    1  0.4836188E-013  0.5052882E+02  0.7816164E-02  0.1300439E+00
        -11   -1    0    0    0    0  0.00000000000E+00  0.00000000000E+00  0.45593999997E+02  0.45594000000E+02  0.51100000000E-03 0.  1.
         11   -1    0    0    0    0 -0.00000000000E+00 -0.00000000000E+00 -0.45593999997E+02  0.45594000000E+02  0.51100000000E-03 0. -1.
    9900012    2    1    2    0    0  0.15263209192E+02 -0.13790628146E+02  0.35071667522E+02  0.50528820935E+02  0.29999881714E+02 0.  0.
         12    1    1    2    0    0 -0.15263209192E+02  0.13790628146E+02 -0.35071667522E+02  0.40659179065E+02  0.00000000000E+00 0. -1.
         11    1    3    3    0    0  0.92580646854E+01 -0.25073920866E+01  0.15223914173E+02  0.17993508268E+02  0.51100000000E-03 0. -1.
        -11    1    3    3    0    0  0.82552210443E+01  0.38286765340E+01  0.25378936708E+01  0.94471341177E+01  0.51100000000E-03 0.  1.
        -12    1    3    3    0    0 -0.22500765379E+01 -0.15111912593E+02  0.17309859678E+02  0.23088178549E+02  0.00000000000E+00 0.  1.
</event>
<event>
 7    1  0.4836188E-013  0.5052885E+02  0.7816164E-02  0.1300439E+00
        -11   -1    0    0    0    0  0.00000000000E+00  0.00000000000E+00  0.45593999997E+02  0.45594000000E+02  0.51100000000E-03 0.  1.
         11   -1    0    0    0    0 -0.00000000000E+00 -0.00000000000E+00 -0.45593999997E+02  0.45594000000E+02  0.51100000000E-03 0. -1.
    9900012    2    1    2    0    0 -0.25876060026E+02 -0.18142140878E+02  0.25582385104E+02  0.50528853604E+02  0.29999981014E+02 0.  0.
         12    1    1    2    0    0  0.25876060026E+02  0.18142140878E+02 -0.25582385104E+02  0.40659146396E+02  0.00000000000E+00 0. -1.
         11    1    3    3    0    0 -0.15976211133E+01 -0.65799447654E+01 -0.21024953059E+01  0.70900319541E+01  0.51100000000E-03 0. -1.
        -11    1    3    3    0    0 -0.26004010386E+01 -0.10412007249E+02  0.14501827513E+02  0.18040925198E+02  0.51100000000E-03 0.  1.
        -12    1    3    3    0    0 -0.21678037874E+02 -0.11501888626E+01  0.13183052896E+02  0.25397896451E+02  0.00000000000E+00 0.  1.
</event>
<event>
 7    1  0.4836188E-013  0.5052887E+02  0.7816164E-02  0.1300439E+00
        -11   -1    0    0    0    0  0.00000000000E+00  0.00000000000E+00  0.45593999997E+02  0.45594000000E+02  0.51100000000E-03 0.  1.
         11   -1    0    0    0    0 -0.00000000000E+00 -0.00000000000E+00 -0.45593999997E+02  0.45594000000E+02  0.51100000000E-03 0. -1.
    9900012    2    1    2    0    0  0.21029335733E+02 -0.33211736037E+02 -0.10388111334E+02  0.50528865367E+02  0.30000016771E+02 0.  0.
         12    1    1    2    0    0 -0.21029335733E+02  0.33211736037E+02  0.10388111334E+02  0.40659134633E+02  0.00000000000E+00 0. -1.
         11    1    3    3    0    0  0.48077206984E+01 -0.20663317027E+01 -0.94121707768E+01  0.10769069784E+02  0.51100000000E-03 0. -1.
        -11    1    3    3    0    0 -0.24318131090E+01 -0.14313505516E+02  0.10286107336E+01  0.14555005855E+02  0.51100000000E-03 0.  1.
         12    1    3    3    0    0  0.18653428144E+02 -0.16831898819E+02 -0.20045512905E+01  0.25204789728E+02  0.00000000000E+00 0. -1.
</event>
<event>
 7    1  0.4836188E-013  0.5052885E+02  0.7816164E-02  0.1300439E+00
        -11   -1    0    0    0    0  0.00000000000E+00  0.00000000000E+00  0.45593999997E+02  0.45594000000E+02  0.51100000000E-03 0.  1.
         11   -1    0    0    0    0 -0.00000000000E+00 -0.00000000000E+00 -0.45593999997E+02  0.45594000000E+02  0.51100000000E-03 0. -1.
    9900012    2    1    2    0    0  0.23872120341E+02  0.25839588185E+02 -0.20386362994E+02  0.50528852895E+02  0.29999978861E+02 0.  0.
         12    1    1    2    0    0 -0.23872120341E+02 -0.25839588185E+02  0.20386362994E+02  0.40659147105E+02  0.00000000000E+00 0. -1.
         11    1    3    3    0    0 -0.15637144236E+00  0.14954737134E+01  0.18377337414E+01  0.23744808319E+01  0.51100000000E-03 0. -1.
        -11    1    3    3    0    0  0.20792748123E+02  0.62897318838E+01 -0.36089621525E+01  0.22020983397E+02  0.51100000000E-03 0.  1.
        -12    1    3    3    0    0  0.32357436600E+01  0.18054382588E+02 -0.18615134583E+02  0.26133388667E+02  0.00000000000E+00 0.  1.
</event>
<event>
 7    1  0.4836188E-013  0.5052886E+02  0.7816164E-02  0.1300439E+00
        -11   -1    0    0    0    0  0.00000000000E+00  0.00000000000E+00  0.45593999997E+02  0.45594000000E+02  0.51100000000E-03 0.  1.
         11   -1    0    0    0    0 -0.00000000000E+00 -0.00000000000E+00 -0.45593999997E+02  0.45594000000E+02  0.51100000000E-03 0. -1.
    9900012    2    1    2    0    0  0.37483395286E+02  0.12028583688E+02  0.10172214239E+02  0.50528859696E+02  0.29999999533E+02 0.  0.
         12    1    1    2    0    0 -0.37483395286E+02 -0.12028583688E+02 -0.10172214239E+02  0.40659140304E+02  0.00000000000E+00 0. -1.
         11    1    3    3    0    0  0.95999188766E+01  0.12878802159E+02  0.16307624402E+01  0.16145630180E+02  0.51100000000E-03 0. -1.
        -11    1    3    3    0    0  0.17010869375E+02  0.48750659291E+01  0.12280070113E+02  0.21539175169E+02  0.51100000000E-03 0.  1.
         12    1    3    3    0    0  0.10872607034E+02 -0.57252844007E+01 -0.37386183143E+01  0.12844054348E+02  0.00000000000E+00 0. -1.
</event>
<event>
 7    1  0.4836188E-013  0.5052886E+02  0.7816164E-02  0.1300439E+00
        -11   -1    0    0    0    0  0.00000000000E+00  0.00000000000E+00  0.45593999997E+02  0.45594000000E+02  0.51100000000E-03 0.  1.
         11   -1    0    0    0    0 -0.00000000000E+00 -0.00000000000E+00 -0.45593999997E+02  0.45594000000E+02  0.51100000000E-03 0. -1.
    9900012    2    1    2    0    0  0.11272706123E+02 -0.24734134482E+02  0.30237629610E+02  0.50528861343E+02  0.30000004538E+02 0.  0.
         12    1    1    2    0    0 -0.11272706123E+02  0.24734134482E+02 -0.30237629610E+02  0.40659138657E+02  0.00000000000E+00 0. -1.
         11    1    3    3    0    0 -0.29374627079E+01 -0.41593746976E+01  0.25200591723E+01  0.56815300341E+01  0.51100000000E-03 0. -1.
        -11    1    3    3    0    0  0.91466897709E+01 -0.62742160701E+01 -0.21957550713E+01  0.11307035936E+02  0.51100000000E-03 0.  1.
        -12    1    3    3    0    0  0.50634790604E+01 -0.14300543714E+02  0.29913325509E+02  0.33540295373E+02  0.00000000000E+00 0.  1.
</event>
<event>
 7    1  0.4836188E-013  0.5052887E+02  0.7816164E-02  0.1300439E+00
        -11   -1    0    0    0    0  0.00000000000E+00  0.00000000000E+00  0.45593999997E+02  0.45594000000E+02  0.51100000000E-03 0. -1.
         11   -1    0    0    0    0 -0.00000000000E+00 -0.00000000000E+00 -0.45593999997E+02  0.45594000000E+02  0.51100000000E-03 0.  1.
    9900012    2    1    2    0    0  0.34002094093E+01 -0.34248291661E+02  0.21648507401E+02  0.50528870909E+02  0.30000033615E+02 0.  0.
         12    1    1    2    0    0 -0.34002094093E+01  0.34248291661E+02 -0.21648507401E+02  0.40659129091E+02  0.00000000000E+00 0. -1.
         11    1    3    3    0    0  0.94975570619E+01 -0.23111887857E+02  0.17195615318E+02  0.30332361215E+02  0.51100000000E-03 0. -1.
        -11    1    3    3    0    0  0.22877967569E+00 -0.11470088224E+02  0.69203583829E+01  0.13398008226E+02  0.51100000000E-03 0.  1.
         12    1    3    3    0    0 -0.63261273283E+01  0.33368442004E+00 -0.24674662997E+01  0.67985014677E+01  0.00000000000E+00 0. -1.
</event>
<event>
 7    1  0.4836188E-013  0.5052884E+02  0.7816164E-02  0.1300439E+00
        -11   -1    0    0    0    0  0.00000000000E+00  0.00000000000E+00  0.45593999997E+02  0.45594000000E+02  0.51100000000E-03 0. -1.
         11   -1    0    0    0    0 -0.00000000000E+00 -0.00000000000E+00 -0.45593999997E+02  0.45594000000E+02  0.51100000000E-03 0.  1.
    9900012    2    1    2    0    0  0.11534592359E+01  0.15954634699E+02 -0.37380295027E+02  0.50528839988E+02  0.29999939628E+02 0.  0.
         12    1    1    2    0    0 -0.11534592359E+01 -0.15954634699E+02  0.37380295027E+02  0.40659160012E+02  0.00000000000E+00 0. -1.
         11    1    3    3    0    0  0.42249479972E+00  0.12798942934E+01 -0.24138030295E+01  0.27646114708E+01  0.51100000000E-03 0. -1.
        -11    1    3    3    0    0 -0.14042805841E+02  0.91586821647E+01 -0.18355093357E+02  0.24859430952E+02  0.51100000000E-03 0.  1.
         12    1    3    3    0    0  0.14773770277E+02  0.55160582409E+01 -0.16611398640E+02  0.22904797565E+02  0.00000000000E+00 0. -1.
</event>
<event>
 7    1  0.4836188E-013  0.5052886E+02  0.7816164E-02  0.1300439E+00
        -11   -1    0    0    0    0  0.00000000000E+00  0.00000000000E+00  0.45593999997E+02  0.45594000000E+02  0.51100000000E-03 0.  1.
         11   -1    0    0    0    0 -0.00000000000E+00 -0.00000000000E+00 -0.45593999997E+02  0.45594000000E+02  0.51100000000E-03 0. -1.
    9900012    2    1    2    0    0 -0.10002890224E+01  0.36946104788E+02  0.16945505236E+02  0.50528863452E+02  0.30000010949E+02 0.  0.
         12    1    1    2    0    0  0.10002890224E+01 -0.36946104788E+02 -0.16945505236E+02  0.40659136548E+02  0.00000000000E+00 0. -1.
         11    1    3    3    0    0 -0.40575278981E+01  0.16487946318E+01  0.13931880881E+02  0.14604087151E+02  0.51100000000E-03 0.  1.
        -11    1    3    3    0    0 -0.14173515559E+01  0.91977679436E+01  0.11833534374E+01  0.93812657033E+01  0.51100000000E-03 0. -1.
        -12    1    3    3    0    0  0.44745904316E+01  0.26099542212E+02  0.18302709178E+01  0.26543510598E+02  0.00000000000E+00 0.  1.
</event>
<event>
 7    1  0.4836188E-013  0.5052885E+02  0.7816164E-02  0.1300439E+00
        -11   -1    0    0    0    0  0.00000000000E+00  0.00000000000E+00  0.45593999997E+02  0.45594000000E+02  0.51100000000E-03 0. -1.
         11   -1    0    0    0    0 -0.00000000000E+00 -0.00000000000E+00 -0.45593999997E+02  0.45594000000E+02  0.51100000000E-03 0.  1.
    9900012    2    1    2    0    0 -0.78847029988E+01  0.31767971000E+02 -0.24120406040E+02  0.50528849611E+02  0.29999968877E+02 0.  0.
         12    1    1    2    0    0  0.78847029988E+01 -0.31767971000E+02  0.24120406040E+02  0.40659150389E+02  0.00000000000E+00 0. -1.
         11    1    3    3    0    0 -0.26836213760E+01 -0.12222913571E+01 -0.61131133898E+01  0.67871920136E+01  0.51100000000E-03 0. -1.
        -11    1    3    3    0    0  0.30758034709E+01  0.57041161800E+01  0.40938632337E+01  0.76653261394E+01  0.51100000000E-03 0.  1.
        -12    1    3    3    0    0 -0.82768850937E+01  0.27286146177E+02 -0.22101155884E+02  0.36076331458E+02  0.00000000000E+00 0.  1.
</event>
<event>
 7    1  0.4836188E-013  0.5052886E+02  0.7816164E-02  0.1300439E+00
        -11   -1    0    0    0    0  0.00000000000E+00  0.00000000000E+00  0.45593999997E+02  0.45594000000E+02  0.51100000000E-03 0.  1.
         11   -1    0    0    0    0 -0.00000000000E+00 -0.00000000000E+00 -0.45593999997E+02  0.45594000000E+02  0.51100000000E-03 0. -1.
    9900012    2    1    2    0    0  0.17567115579E+02 -0.28806441833E+02 -0.22688124807E+02  0.50528860215E+02  0.30000001109E+02 0.  0.
         12    1    1    2    0    0 -0.17567115579E+02  0.28806441833E+02  0.22688124807E+02  0.40659139785E+02  0.00000000000E+00 0. -1.
         11    1    3    3    0    0 -0.29698774764E+01 -0.43541906245E+01 -0.94535362770E+01  0.10823515908E+02  0.51100000000E-03 0. -1.
        -11    1    3    3    0    0  0.24324163269E+01 -0.42831450245E+01  0.50162332253E+01  0.70302614831E+01  0.51100000000E-03 0.  1.
         12    1    3    3    0    0  0.18104576728E+02 -0.20169106184E+02 -0.18250821755E+02  0.32675082823E+02  0.00000000000E+00 0. -1.
</event>
<event>
 7    1  0.4836188E-013  0.5052886E+02  0.7816164E-02  0.1300439E+00
        -11   -1    0    0    0    0  0.00000000000E+00  0.00000000000E+00  0.45593999997E+02  0.45594000000E+02  0.51100000000E-03 0. -1.
         11   -1    0    0    0    0 -0.00000000000E+00 -0.00000000000E+00 -0.45593999997E+02  0.45594000000E+02  0.51100000000E-03 0.  1.
    9900012    2    1    2    0    0  0.33782387039E+02 -0.92610082522E+00 -0.22606605679E+02  0.50528856415E+02  0.29999989559E+02 0.  0.
         12    1    1    2    0    0 -0.33782387039E+02  0.92610082522E+00  0.22606605679E+02  0.40659143585E+02  0.00000000000E+00 0. -1.
         11    1    3    3    0    0 -0.20874793340E+01 -0.80972401669E+01 -0.41330738109E+01  0.93276560656E+01  0.51100000000E-03 0. -1.
        -11    1    3    3    0    0  0.13289448287E+02  0.57605083517E+00 -0.68678438143E+01  0.14970255484E+02  0.51100000000E-03 0.  1.
        -12    1    3    3    0    0  0.22580418085E+02  0.65950885065E+01 -0.11605688054E+02  0.26230944865E+02  0.00000000000E+00 0.  1.
</event>
<event>
 7    1  0.4836188E-013  0.5052887E+02  0.7816164E-02  0.1300439E+00
        -11   -1    0    0    0    0  0.00000000000E+00  0.00000000000E+00  0.45593999997E+02  0.45594000000E+02  0.51100000000E-03 0. -1.
         11   -1    0    0    0    0 -0.00000000000E+00 -0.00000000000E+00 -0.45593999997E+02  0.45594000000E+02  0.51100000000E-03 0.  1.
    9900012    2    1    2    0    0  0.26982247141E+02  0.29657332137E+02 -0.67502304110E+01  0.50528872847E+02  0.30000039505E+02 0.  0.
         12    1    1    2    0    0 -0.26982247141E+02 -0.29657332137E+02  0.67502304110E+01  0.40659127153E+02  0.00000000000E+00 0. -1.
         11    1    3    3    0    0  0.65633061394E+00 -0.92695179939E+00  0.59048710554E+01  0.60131116699E+01  0.51100000000E-03 0. -1.
        -11    1    3    3    0    0  0.11255149009E+02  0.37216368980E+01 -0.41761412415E+01  0.12568576544E+02  0.51100000000E-03 0.  1.
        -12    1    3    3    0    0  0.15070767519E+02  0.26862647038E+02 -0.84789602249E+01  0.31947184633E+02  0.00000000000E+00 0.  1.
</event>
<event>
 7    1  0.4836188E-013  0.5052886E+02  0.7816164E-02  0.1300439E+00
        -11   -1    0    0    0    0  0.00000000000E+00  0.00000000000E+00  0.45593999997E+02  0.45594000000E+02  0.51100000000E-03 0. -1.
         11   -1    0    0    0    0 -0.00000000000E+00 -0.00000000000E+00 -0.45593999997E+02  0.45594000000E+02  0.51100000000E-03 0.  1.
    9900012    2    1    2    0    0  0.54971762670E+01 -0.35922749279E+02 -0.18234654851E+02  0.50528862033E+02  0.30000006636E+02 0.  0.
         12    1    1    2    0    0 -0.54971762670E+01  0.35922749279E+02  0.18234654851E+02  0.40659137967E+02  0.00000000000E+00 0. -1.
         11    1    3    3    0    0  0.42221277429E+01 -0.78545392348E+00 -0.11208517682E+02  0.12003089996E+02  0.51100000000E-03 0. -1.
        -11    1    3    3    0    0  0.10443637304E+01 -0.13719217519E+02  0.41431697828E+01  0.14369185121E+02  0.51100000000E-03 0.  1.
        -12    1    3    3    0    0  0.23068479363E+00 -0.21418077837E+02 -0.11169306951E+02  0.24156586917E+02  0.00000000000E+00 0.  1.
</event>
<event>
 7    1  0.4836188E-013  0.5052887E+02  0.7816164E-02  0.1300439E+00
        -11   -1    0    0    0    0  0.00000000000E+00  0.00000000000E+00  0.45593999997E+02  0.45594000000E+02  0.51100000000E-03 0. -1.
         11   -1    0    0    0    0 -0.00000000000E+00 -0.00000000000E+00 -0.45593999997E+02  0.45594000000E+02  0.51100000000E-03 0.  1.
    9900012    2    1    2    0    0  0.13956718047E+02  0.33048233226E+02 -0.19136069769E+02  0.50528869855E+02  0.30000030410E+02 0.  0.
         12    1    1    2    0    0 -0.13956718047E+02 -0.33048233226E+02  0.19136069769E+02  0.40659130145E+02  0.00000000000E+00 0. -1.
         11    1    3    3    0    0 -0.31140242973E+01  0.29973038742E+01  0.18305182963E+01  0.46938017994E+01  0.51100000000E-03 0. -1.
        -11    1    3    3    0    0  0.91945291077E+00  0.17706158912E+01 -0.11848436491E+02  0.12015237070E+02  0.51100000000E-03 0.  1.
        -12    1    3    3    0    0  0.16151289433E+02  0.28280313461E+02 -0.91181515737E+01  0.33819830986E+02  0.00000000000E+00 0.  1.
</event>
<event>
 7    1  0.4836188E-013  0.5052893E+02  0.7816164E-02  0.1300439E+00
        -11   -1    0    0    0    0  0.00000000000E+00  0.00000000000E+00  0.45593999997E+02  0.45594000000E+02  0.51100000000E-03 0.  1.
         11   -1    0    0    0    0 -0.00000000000E+00 -0.00000000000E+00 -0.45593999997E+02  0.45594000000E+02  0.51100000000E-03 0. -1.
    9900012    2    1    2    0    0  0.36816906519E+02 -0.15622074195E+02  0.73229920678E+01  0.50528929417E+02  0.30000211456E+02 0.  0.
         12    1    1    2    0    0 -0.36816906519E+02  0.15622074195E+02 -0.73229920678E+01  0.40659070583E+02  0.00000000000E+00 0. -1.
         11    1    3    3    0    0  0.18758991316E+02 -0.49886556404E+01  0.10907321719E+02  0.22265581233E+02  0.51100000000E-03 0. -1.
        -11    1    3    3    0    0  0.20973452403E+02 -0.56190272914E+01 -0.55649592938E+00  0.21720240822E+02  0.51100000000E-03 0.  1.
         12    1    3    3    0    0 -0.29155371996E+01 -0.50143912636E+01 -0.30278337215E+01  0.65431073621E+01  0.00000000000E+00 0. -1.
</event>
<event>
 7    1  0.4836188E-013  0.5052884E+02  0.7816164E-02  0.1300439E+00
        -11   -1    0    0    0    0  0.00000000000E+00  0.00000000000E+00  0.45593999997E+02  0.45594000000E+02  0.51100000000E-03 0. -1.
         11   -1    0    0    0    0 -0.00000000000E+00 -0.00000000000E+00 -0.45593999997E+02  0.45594000000E+02  0.51100000000E-03 0.  1.
    9900012    2    1    2    0    0 -0.63046719021E+01 -0.18587361899E+02 -0.35607977230E+02  0.50528844173E+02  0.29999952348E+02 0.  0.
         12    1    1    2    0    0  0.63046719021E+01  0.18587361899E+02  0.35607977230E+02  0.40659155827E+02  0.00000000000E+00 0. -1.
         11    1    3    3    0    0  0.33805273582E+01 -0.11596732744E+02 -0.24797031405E+02  0.27582692804E+02  0.51100000000E-03 0. -1.
        -11    1    3    3    0    0 -0.13243000830E+01 -0.59373036682E+01 -0.12901493022E+02  0.14263725601E+02  0.51100000000E-03 0.  1.
         12    1    3    3    0    0 -0.83608991772E+01 -0.10533254871E+01  0.20905471972E+01  0.86824257680E+01  0.00000000000E+00 0. -1.
</event>
<event>
 7    1  0.4836188E-013  0.5052887E+02  0.7816164E-02  0.1300439E+00
        -11   -1    0    0    0    0  0.00000000000E+00  0.00000000000E+00  0.45593999997E+02  0.45594000000E+02  0.51100000000E-03 0.  1.
         11   -1    0    0    0    0 -0.00000000000E+00 -0.00000000000E+00 -0.45593999997E+02  0.45594000000E+02  0.51100000000E-03 0. -1.
    9900012    2    1    2    0    0  0.23816324241E+02  0.58018027978E+01  0.32438972603E+02  0.50528866221E+02  0.30000019367E+02 0.  0.
         12    1    1    2    0    0 -0.23816324241E+02 -0.58018027978E+01 -0.32438972603E+02  0.40659133779E+02  0.00000000000E+00 0. -1.
         11    1    3    3    0    0  0.53053245187E+01 -0.72655745388E+01  0.25862691379E+01  0.93607601156E+01  0.51100000000E-03 0. -1.
        -11    1    3    3    0    0  0.15115244663E+02  0.10200895662E+01  0.20747859686E+02  0.25690170995E+02  0.51100000000E-03 0.  1.
        -12    1    3    3    0    0  0.33957550597E+01  0.12047287770E+02  0.91048437793E+01  0.15477935111E+02  0.00000000000E+00 0.  1.
</event>
<event>
 7    1  0.4836188E-013  0.5052886E+02  0.7816164E-02  0.1300439E+00
        -11   -1    0    0    0    0  0.00000000000E+00  0.00000000000E+00  0.45593999997E+02  0.45594000000E+02  0.51100000000E-03 0.  1.
         11   -1    0    0    0    0 -0.00000000000E+00 -0.00000000000E+00 -0.45593999997E+02  0.45594000000E+02  0.51100000000E-03 0. -1.
    9900012    2    1    2    0    0  0.35878981668E+02 -0.16698677579E+02  0.93283905364E+01  0.50528855538E+02  0.29999986892E+02 0.  0.
         12    1    1    2    0    0 -0.35878981668E+02  0.16698677579E+02 -0.93283905364E+01  0.40659144462E+02  0.00000000000E+00 0. -1.
         11    1    3    3    0    0  0.41545587164E+01 -0.64659503956E+01 -0.18751775088E+01  0.79110785356E+01  0.51100000000E-03 0. -1.
        -11    1    3    3    0    0  0.63435897252E+01 -0.81473947841E+01  0.13558562661E+02  0.17042763686E+02  0.51100000000E-03 0.  1.
         12    1    3    3    0    0  0.25380833226E+02 -0.20853323997E+01 -0.23549946154E+01  0.25575013316E+02  0.00000000000E+00 0. -1.
</event>
<event>
 7    1  0.4836188E-013  0.5052886E+02  0.7816164E-02  0.1300439E+00
        -11   -1    0    0    0    0  0.00000000000E+00  0.00000000000E+00  0.45593999997E+02  0.45594000000E+02  0.51100000000E-03 0. -1.
         11   -1    0    0    0    0 -0.00000000000E+00 -0.00000000000E+00 -0.45593999997E+02  0.45594000000E+02  0.51100000000E-03 0.  1.
    9900012    2    1    2    0    0 -0.27517098540E+02 -0.62101232543E+01 -0.29281556211E+02  0.50528857399E+02  0.29999992549E+02 0.  0.
         12    1    1    2    0    0  0.27517098540E+02  0.62101232543E+01  0.29281556211E+02  0.40659142601E+02  0.00000000000E+00 0. -1.
         11    1    3    3    0    0 -0.49161985192E+01 -0.52775588293E+01 -0.42994383140E+01  0.83968330431E+01  0.51100000000E-03 0. -1.
        -11    1    3    3    0    0  0.47749634736E+01  0.44558660941E+00 -0.95236708925E+01  0.10662979468E+02  0.51100000000E-03 0.  1.
        -12    1    3    3    0    0 -0.27375863495E+02 -0.13781510344E+01 -0.15458447005E+02  0.31469044888E+02  0.00000000000E+00 0.  1.
</event>
<event>
 7    1  0.4836188E-013  0.5052886E+02  0.7816164E-02  0.1300439E+00
        -11   -1    0    0    0    0  0.00000000000E+00  0.00000000000E+00  0.45593999997E+02  0.45594000000E+02  0.51100000000E-03 0.  1.
         11   -1    0    0    0    0 -0.00000000000E+00 -0.00000000000E+00 -0.45593999997E+02  0.45594000000E+02  0.51100000000E-03 0. -1.
    9900012    2    1    2    0    0 -0.84726530782E+00  0.26147422993E+02  0.31124905727E+02  0.50528863952E+02  0.30000012468E+02 0.  0.
         12    1    1    2    0    0  0.84726530782E+00 -0.26147422993E+02 -0.31124905727E+02  0.40659136048E+02  0.00000000000E+00 0. -1.
         11    1    3    3    0    0 -0.44963930206E+00  0.13633492284E+02  0.18203268766E+02  0.22747159853E+02  0.51100000000E-03 0.  1.
        -11    1    3    3    0    0 -0.17938230548E+01  0.14648159882E+02  0.15044522699E+00  0.14758354350E+02  0.51100000000E-03 0. -1.
        -12    1    3    3    0    0  0.13961970491E+01 -0.21342291734E+01  0.12771191734E+02  0.13023349749E+02  0.00000000000E+00 0.  1.
</event>
<event>
 7    1  0.4836188E-013  0.5052886E+02  0.7816164E-02  0.1300439E+00
        -11   -1    0    0    0    0  0.00000000000E+00  0.00000000000E+00  0.45593999997E+02  0.45594000000E+02  0.51100000000E-03 0. -1.
         11   -1    0    0    0    0 -0.00000000000E+00 -0.00000000000E+00 -0.45593999997E+02  0.45594000000E+02  0.51100000000E-03 0.  1.
    9900012    2    1    2    0    0 -0.37958065400E+02 -0.28289420553E+01 -0.14295031679E+02  0.50528861140E+02  0.30000003923E+02 0.  0.
         12    1    1    2    0    0  0.37958065400E+02  0.28289420553E+01  0.14295031679E+02  0.40659138860E+02  0.00000000000E+00 0. -1.
         11    1    3    3    0    0 -0.53267563968E+01 -0.31362755028E+01 -0.44354297165E+01  0.76081268898E+01  0.51100000000E-03 0. -1.
        -11    1    3    3    0    0 -0.31353680742E+02  0.87008467944E+01 -0.11014716833E+02  0.34352321875E+02  0.51100000000E-03 0.  1.
         12    1    3    3    0    0 -0.12776282612E+01 -0.83935133468E+01  0.11551148701E+01  0.85684123757E+01  0.00000000000E+00 0. -1.
</event>
<event>
 7    1  0.4836188E-013  0.5052887E+02  0.7816164E-02  0.1300439E+00
        -11   -1    0    0    0    0  0.00000000000E+00  0.00000000000E+00  0.45593999997E+02  0.45594000000E+02  0.51100000000E-03 0.  1.
         11   -1    0    0    0    0 -0.00000000000E+00 -0.00000000000E+00 -0.45593999997E+02  0.45594000000E+02  0.51100000000E-03 0. -1.
    9900012    2    1    2    0    0  0.10983282052E+02 -0.30177159819E+02  0.24937356503E+02  0.50528865618E+02  0.30000017531E+02 0.  0.
         12    1    1    2    0    0 -0.10983282052E+02  0.30177159819E+02 -0.24937356503E+02  0.40659134382E+02  0.00000000000E+00 0. -1.
         11    1    3    3    0    0  0.73881974386E+01 -0.39448074601E+01  0.49787361499E+01  0.97434481166E+01  0.51100000000E-03 0. -1.
        -11    1    3    3    0    0  0.11415812397E+02 -0.11398246962E+02  0.20676089679E+01  0.16263942130E+02  0.51100000000E-03 0.  1.
        -12    1    3    3    0    0 -0.78207277838E+01 -0.14834105397E+02  0.17891011385E+02  0.24521475371E+02  0.00000000000E+00 0.  1.
</event>
<event>
 7    1  0.4836188E-013  0.5052886E+02  0.7816164E-02  0.1300439E+00
        -11   -1    0    0    0    0  0.00000000000E+00  0.00000000000E+00  0.45593999997E+02  0.45594000000E+02  0.51100000000E-03 0.  1.
         11   -1    0    0    0    0 -0.00000000000E+00 -0.00000000000E+00 -0.45593999997E+02  0.45594000000E+02  0.51100000000E-03 0. -1.
    9900012    2    1    2    0    0 -0.16296274889E+02  0.31882848982E+02  0.19263462704E+02  0.50528860439E+02  0.30000001790E+02 0.  0.
         12    1    1    2    0    0  0.16296274889E+02 -0.31882848982E+02 -0.19263462704E+02  0.40659139561E+02  0.00000000000E+00 0. -1.
         11    1    3    3    0    0 -0.17476395516E+02  0.16246639764E+02  0.12889565302E+02  0.27120446121E+02  0.51100000000E-03 0. -1.
        -11    1    3    3    0    0 -0.94230539617E+00  0.11448563896E+02  0.11639733498E+02  0.16353621951E+02  0.51100000000E-03 0.  1.
         12    1    3    3    0    0  0.21224260232E+01  0.41876453219E+01 -0.52658360953E+01  0.70547923675E+01  0.00000000000E+00 0. -1.
</event>
<event>
 7    1  0.4836188E-013  0.5052887E+02  0.7816164E-02  0.1300439E+00
        -11   -1    0    0    0    0  0.00000000000E+00  0.00000000000E+00  0.45593999997E+02  0.45594000000E+02  0.51100000000E-03 0.  1.
         11   -1    0    0    0    0 -0.00000000000E+00 -0.00000000000E+00 -0.45593999997E+02  0.45594000000E+02  0.51100000000E-03 0. -1.
    9900012    2    1    2    0    0 -0.25625232746E+02 -0.11196092723E+02  0.29515412338E+02  0.50528872967E+02  0.30000039872E+02 0.  0.
         12    1    1    2    0    0  0.25625232746E+02  0.11196092723E+02 -0.29515412338E+02  0.40659127033E+02  0.00000000000E+00 0. -1.
         11    1    3    3    0    0 -0.11280298067E+02 -0.98781704961E+00  0.58681463667E+01  0.12753668062E+02  0.51100000000E-03 0. -1.
        -11    1    3    3    0    0 -0.12594814439E+02 -0.17722074733E+02  0.17613172489E+02  0.27980799292E+02  0.51100000000E-03 0.  1.
         12    1    3    3    0    0 -0.17501202400E+01  0.75137990596E+01  0.60340934822E+01  0.97944056131E+01  0.00000000000E+00 0. -1.
</event>
<event>
 7    1  0.4836188E-013  0.5052887E+02  0.7816164E-02  0.1300439E+00
        -11   -1    0    0    0    0  0.00000000000E+00  0.00000000000E+00  0.45593999997E+02  0.45594000000E+02  0.51100000000E-03 0.  1.
         11   -1    0    0    0    0 -0.00000000000E+00 -0.00000000000E+00 -0.45593999997E+02  0.45594000000E+02  0.51100000000E-03 0. -1.
    9900012    2    1    2    0    0  0.45266715193E+01 -0.18173751641E+02  0.36088630281E+02  0.50528865241E+02  0.30000016387E+02 0.  0.
         12    1    1    2    0    0 -0.45266715193E+01  0.18173751641E+02 -0.36088630281E+02  0.40659134759E+02  0.00000000000E+00 0. -1.
         11    1    3    3    0    0 -0.40976357781E+01 -0.54858067636E+01 -0.69899212523E-01  0.68475967301E+01  0.51100000000E-03 0. -1.
        -11    1    3    3    0    0 -0.11480287130E+01 -0.11471894029E+02  0.29816998114E+02  0.31968354655E+02  0.51100000000E-03 0.  1.
         12    1    3    3    0    0  0.97723360103E+01 -0.12160508480E+01  0.63415313797E+01  0.11712913856E+02  0.00000000000E+00 0. -1.
</event>
<event>
 7    1  0.4836188E-013  0.5052887E+02  0.7816164E-02  0.1300439E+00
        -11   -1    0    0    0    0  0.00000000000E+00  0.00000000000E+00  0.45593999997E+02  0.45594000000E+02  0.51100000000E-03 0.  1.
         11   -1    0    0    0    0 -0.00000000000E+00 -0.00000000000E+00 -0.45593999997E+02  0.45594000000E+02  0.51100000000E-03 0. -1.
    9900012    2    1    2    0    0 -0.14153157702E+02 -0.33824720952E+02 -0.17571027247E+02  0.50528872871E+02  0.30000039578E+02 0.  0.
         12    1    1    2    0    0  0.14153157702E+02  0.33824720952E+02  0.17571027247E+02  0.40659127129E+02  0.00000000000E+00 0. -1.
         11    1    3    3    0    0 -0.39264463977E+01  0.39548302564E+01 -0.29325962191E+01  0.62974426966E+01  0.51100000000E-03 0. -1.
        -11    1    3    3    0    0 -0.15313134147E+01 -0.74372570557E+01 -0.96448308465E+01  0.12275197579E+02  0.51100000000E-03 0.  1.
        -12    1    3    3    0    0 -0.86953978892E+01 -0.30342294153E+02 -0.49936001814E+01  0.31956232595E+02  0.00000000000E+00 0.  1.
</event>
<event>
 7    1  0.4836188E-013  0.5052887E+02  0.7816164E-02  0.1300439E+00
        -11   -1    0    0    0    0  0.00000000000E+00  0.00000000000E+00  0.45593999997E+02  0.45594000000E+02  0.51100000000E-03 0.  1.
         11   -1    0    0    0    0 -0.00000000000E+00 -0.00000000000E+00 -0.45593999997E+02  0.45594000000E+02  0.51100000000E-03 0. -1.
    9900012    2    1    2    0    0  0.16213821831E+02 -0.26945096135E+02  0.25772825451E+02  0.50528871188E+02  0.30000034462E+02 0.  0.
         12    1    1    2    0    0 -0.16213821831E+02  0.26945096135E+02 -0.25772825451E+02  0.40659128812E+02  0.00000000000E+00 0. -1.
         11    1    3    3    0    0  0.20264943526E+01 -0.17780072250E+02  0.16233408212E+02  0.24161150449E+02  0.51100000000E-03 0. -1.
        -11    1    3    3    0    0  0.15944321109E+02 -0.58462997833E+01  0.12901681748E+02  0.21327306182E+02  0.51100000000E-03 0.  1.
         12    1    3    3    0    0 -0.17569936306E+01 -0.33187241018E+01 -0.33622645092E+01  0.50404145576E+01  0.00000000000E+00 0. -1.
</event>
<event>
 7    1  0.4836188E-013  0.5052885E+02  0.7816164E-02  0.1300439E+00
        -11   -1    0    0    0    0  0.00000000000E+00  0.00000000000E+00  0.45593999997E+02  0.45594000000E+02  0.51100000000E-03 0. -1.
         11   -1    0    0    0    0 -0.00000000000E+00 -0.00000000000E+00 -0.45593999997E+02  0.45594000000E+02  0.51100000000E-03 0.  1.
    9900012    2    1    2    0    0 -0.39360568640E+02  0.10191782713E+02 -0.19912418122E+00  0.50528850365E+02  0.29999971171E+02 0.  0.
         12    1    1    2    0    0  0.39360568640E+02 -0.10191782713E+02  0.19912418122E+00  0.40659149635E+02  0.00000000000E+00 0. -1.
         11    1    3    3    0    0 -0.36876677418E+01 -0.48533481589E+01 -0.32217806232E+01  0.68944725955E+01  0.51100000000E-03 0. -1.
        -11    1    3    3    0    0 -0.27976972033E+02  0.32453949797E+01 -0.29788363814E+01  0.28321670487E+02  0.51100000000E-03 0.  1.
        -12    1    3    3    0    0 -0.76959288655E+01  0.11799735892E+02  0.60014928234E+01  0.15312707283E+02  0.00000000000E+00 0.  1.
</event>
<event>
 7    1  0.4836188E-013  0.5052886E+02  0.7816164E-02  0.1300439E+00
        -11   -1    0    0    0    0  0.00000000000E+00  0.00000000000E+00  0.45593999997E+02  0.45594000000E+02  0.51100000000E-03 0. -1.
         11   -1    0    0    0    0 -0.00000000000E+00 -0.00000000000E+00 -0.45593999997E+02  0.45594000000E+02  0.51100000000E-03 0.  1.
    9900012    2    1    2    0    0 -0.36325231951E+02  0.15478023838E+02  0.96991820748E+01  0.50528857963E+02  0.29999994265E+02 0.  0.
         12    1    1    2    0    0  0.36325231951E+02 -0.15478023838E+02 -0.96991820748E+01  0.40659142037E+02  0.00000000000E+00 0. -1.
         11    1    3    3    0    0 -0.20757874051E+01 -0.35624837647E+01 -0.50934315789E+01  0.65531083796E+01  0.51100000000E-03 0. -1.
        -11    1    3    3    0    0 -0.22909752800E+02  0.59230206528E+01  0.11566885073E+02  0.26338788460E+02  0.51100000000E-03 0.  1.
        -12    1    3    3    0    0 -0.11339691747E+02  0.13117486950E+02  0.32257285810E+01  0.17636961123E+02  0.00000000000E+00 0.  1.
</event>
<event>
 7    1  0.5364000E-013  0.5052894E+02  0.7816164E-02  0.1300439E+00
        -11   -1    0    0    0    0  0.00000000000E+00  0.00000000000E+00  0.45593999997E+02  0.45594000000E+02  0.51100000000E-03 0.  1.
         11   -1    0    0    0    0 -0.00000000000E+00 -0.00000000000E+00 -0.45593999997E+02  0.45594000000E+02  0.51100000000E-03 0. -1.
    9900012    2    1    2    0    0  0.40222647807E+02  0.42090030417E+01 -0.41930808286E+01  0.50528941599E+02  0.30000248484E+02 0.  0.
         12    1    1    2    0    0 -0.40222647807E+02 -0.42090030417E+01  0.41930808286E+01  0.40659058401E+02  0.00000000000E+00 0. -1.
         11    1    3    3    0    0  0.35483769071E+01 -0.67010375851E+01 -0.30121216043E+00  0.75885184600E+01  0.51100000000E-03 0. -1.
        -11    1    3    3    0    0  0.26296401577E+02 -0.17963573028E+01 -0.24503348340E+01  0.26471338774E+02  0.51100000000E-03 0.  1.
        -12    1    3    3    0    0  0.10377869323E+02  0.12706397930E+02 -0.14415338341E+01  0.16469084365E+02  0.00000000000E+00 0.  1.
</event>
<event>
 7    1  0.4836188E-013  0.5052885E+02  0.7816164E-02  0.1300439E+00
        -11   -1    0    0    0    0  0.00000000000E+00  0.00000000000E+00  0.45593999997E+02  0.45594000000E+02  0.51100000000E-03 0.  1.
         11   -1    0    0    0    0 -0.00000000000E+00 -0.00000000000E+00 -0.45593999997E+02  0.45594000000E+02  0.51100000000E-03 0. -1.
    9900012    2    1    2    0    0  0.18620289272E+02 -0.33486074516E+02  0.13606393515E+02  0.50528852154E+02  0.29999976608E+02 0.  0.
         12    1    1    2    0    0 -0.18620289272E+02  0.33486074516E+02 -0.13606393515E+02  0.40659147846E+02  0.00000000000E+00 0. -1.
         11    1    3    3    0    0 -0.30941677934E+01 -0.11730985122E+02  0.24656121240E+01  0.12380191020E+02  0.51100000000E-03 0. -1.
        -11    1    3    3    0    0  0.19008870199E+01 -0.15320448634E+02  0.67989868073E+01  0.16868780029E+02  0.51100000000E-03 0.  1.
         12    1    3    3    0    0  0.19813570046E+02 -0.64346407597E+01  0.43417945840E+01  0.21279881106E+02  0.00000000000E+00 0. -1.
</event>
<event>
 7    1  0.4836188E-013  0.5052885E+02  0.7816164E-02  0.1300439E+00
        -11   -1    0    0    0    0  0.00000000000E+00  0.00000000000E+00  0.45593999997E+02  0.45594000000E+02  0.51100000000E-03 0.  1.
         11   -1    0    0    0    0 -0.00000000000E+00 -0.00000000000E+00 -0.45593999997E+02  0.45594000000E+02  0.51100000000E-03 0. -1.
    9900012    2    1    2    0    0 -0.10850561266E+02 -0.26779357053E+02  0.28605909127E+02  0.50528847513E+02  0.29999962500E+02 0.  0.
         12    1    1    2    0    0  0.10850561266E+02  0.26779357053E+02 -0.28605909127E+02  0.40659152487E+02  0.00000000000E+00 0. -1.
         11    1    3    3    0    0 -0.87426135763E+01 -0.85234713526E+01  0.22946865171E+01  0.12423704863E+02  0.51100000000E-03 0. -1.
        -11    1    3    3    0    0  0.58164539871E+01 -0.34240589615E+01 -0.15180942723E+00  0.67511749436E+01  0.51100000000E-03 0.  1.
        -12    1    3    3    0    0 -0.79244016770E+01 -0.14831826739E+02  0.26463032037E+02  0.31353967707E+02  0.00000000000E+00 0.  1.
</event>
<event>
 7    1  0.4836188E-013  0.5052886E+02  0.7816164E-02  0.1300439E+00
        -11   -1    0    0    0    0  0.00000000000E+00  0.00000000000E+00  0.45593999997E+02  0.45594000000E+02  0.51100000000E-03 0.  1.
         11   -1    0    0    0    0 -0.00000000000E+00 -0.00000000000E+00 -0.45593999997E+02  0.45594000000E+02  0.51100000000E-03 0. -1.
    9900012    2    1    2    0    0 -0.37652747600E+02  0.76974048865E+01  0.13273505052E+02  0.50528863509E+02  0.30000011122E+02 0.  0.
         12    1    1    2    0    0  0.37652747600E+02 -0.76974048865E+01 -0.13273505052E+02  0.40659136491E+02  0.00000000000E+00 0. -1.
         11    1    3    3    0    0 -0.24598636375E+02 -0.45222700290E+01  0.32901993526E+01  0.25226360217E+02  0.51100000000E-03 0.  1.
        -11    1    3    3    0    0 -0.14929997631E+01 -0.14622055624E+01  0.67943644819E+01  0.71084796105E+01  0.51100000000E-03 0. -1.
        -12    1    3    3    0    0 -0.11561111462E+02  0.13681880478E+02  0.31889412172E+01  0.18194023682E+02  0.00000000000E+00 0.  1.
</event>
<event>
 7    1  0.4836188E-013  0.5052887E+02  0.7816164E-02  0.1300439E+00
        -11   -1    0    0    0    0  0.00000000000E+00  0.00000000000E+00  0.45593999997E+02  0.45594000000E+02  0.51100000000E-03 0.  1.
         11   -1    0    0    0    0 -0.00000000000E+00 -0.00000000000E+00 -0.45593999997E+02  0.45594000000E+02  0.51100000000E-03 0. -1.
    9900012    2    1    2    0    0  0.19044108385E+02  0.19209837505E+02  0.30355712753E+02  0.50528865505E+02  0.30000017190E+02 0.  0.
         12    1    1    2    0    0 -0.19044108385E+02 -0.19209837505E+02 -0.30355712753E+02  0.40659134495E+02  0.00000000000E+00 0. -1.
         11    1    3    3    0    0 -0.72002943355E+01  0.20154594618E+01  0.41229393894E+01  0.85384392502E+01  0.51100000000E-03 0. -1.
        -11    1    3    3    0    0  0.28280494643E+01  0.59617567477E+01  0.73689164386E+01  0.98914780003E+01  0.51100000000E-03 0.  1.
        -12    1    3    3    0    0  0.23416353256E+02  0.11232621296E+02  0.18863856925E+02  0.32098948255E+02  0.00000000000E+00 0.  1.
</event>
<event>
 7    1  0.4872401E-013  0.5052883E+02  0.7816164E-02  0.1300439E+00
        -11   -1    0    0    0    0  0.00000000000E+00  0.00000000000E+00  0.45593999997E+02  0.45594000000E+02  0.51100000000E-03 0.  1.
         11   -1    0    0    0    0 -0.00000000000E+00 -0.00000000000E+00 -0.45593999997E+02  0.45594000000E+02  0.51100000000E-03 0. -1.
    9900012    2    1    2    0    0 -0.37496942519E+02  0.72823975860E+01  0.13932481989E+02  0.50528830465E+02  0.29999910681E+02 0.  0.
         12    1    1    2    0    0  0.37496942519E+02 -0.72823975860E+01 -0.13932481989E+02  0.40659169535E+02  0.00000000000E+00 0. -1.
         11    1    3    3    0    0 -0.22546264202E+00  0.66525632470E+01 -0.26698338465E+00  0.66617348752E+01  0.51100000000E-03 0. -1.
        -11    1    3    3    0    0 -0.15947872871E+02  0.31853300718E+01  0.15346099802E+02  0.22360316549E+02  0.51100000000E-03 0.  1.
         12    1    3    3    0    0 -0.21323607007E+02 -0.25554957327E+01 -0.11466344284E+01  0.21506779041E+02  0.00000000000E+00 0. -1.
</event>
<event>
 7    1  0.4836188E-013  0.5052892E+02  0.7816164E-02  0.1300439E+00
        -11   -1    0    0    0    0  0.00000000000E+00  0.00000000000E+00  0.45593999997E+02  0.45594000000E+02  0.51100000000E-03 0.  1.
         11   -1    0    0    0    0 -0.00000000000E+00 -0.00000000000E+00 -0.45593999997E+02  0.45594000000E+02  0.51100000000E-03 0. -1.
    9900012    2    1    2    0    0  0.35850225108E+02  0.18647362938E+02 -0.44941788536E+01  0.50528924403E+02  0.30000196216E+02 0.  0.
         12    1    1    2    0    0 -0.35850225108E+02 -0.18647362938E+02  0.44941788536E+01  0.40659075597E+02  0.00000000000E+00 0. -1.
         11    1    3    3    0    0 -0.11776139551E+01  0.28108145849E+01 -0.24397893894E+01  0.39038475615E+01  0.51100000000E-03 0. -1.
        -11    1    3    3    0    0  0.47020133054E+01  0.86931755455E+01 -0.83351768228E+01  0.12928859312E+02  0.51100000000E-03 0.  1.
        -12    1    3    3    0    0  0.32325825757E+02  0.71433728075E+01  0.62807873586E+01  0.33696217530E+02  0.00000000000E+00 0.  1.
</event>
<event>
 7    1  0.4836188E-013  0.5052874E+02  0.7816164E-02  0.1300439E+00
        -11   -1    0    0    0    0  0.00000000000E+00  0.00000000000E+00  0.45593999997E+02  0.45594000000E+02  0.51100000000E-03 0. -1.
         11   -1    0    0    0    0 -0.00000000000E+00 -0.00000000000E+00 -0.45593999997E+02  0.45594000000E+02  0.51100000000E-03 0.  1.
    9900012    2    1    2    0    0 -0.25317206129E+02  0.16247338189E+02 -0.27353946956E+02  0.50528741049E+02  0.29999638889E+02 0.  0.
         12    1    1    2    0    0  0.25317206129E+02 -0.16247338189E+02  0.27353946956E+02  0.40659258951E+02  0.00000000000E+00 0. -1.
         11    1    3    3    0    0 -0.98482082306E+01  0.88576363811E+01 -0.52790528089E+01  0.14258798211E+02  0.51100000000E-03 0. -1.
        -11    1    3    3    0    0  0.14477240053E+01  0.11000251151E+02 -0.11580231459E+02  0.16037555646E+02  0.51100000000E-03 0.  1.
         12    1    3    3    0    0 -0.16916721904E+02 -0.36105493433E+01 -0.10494662688E+02  0.20232387192E+02  0.00000000000E+00 0. -1.
</event>
<event>
 7    1  0.4836188E-013  0.5052886E+02  0.7816164E-02  0.1300439E+00
        -11   -1    0    0    0    0  0.00000000000E+00  0.00000000000E+00  0.45593999997E+02  0.45594000000E+02  0.51100000000E-03 0. -1.
         11   -1    0    0    0    0 -0.00000000000E+00 -0.00000000000E+00 -0.45593999997E+02  0.45594000000E+02  0.51100000000E-03 0.  1.
    9900012    2    1    2    0    0  0.41371048977E+01  0.26171374135E+02 -0.30840053395E+02  0.50528863826E+02  0.30000012084E+02 0.  0.
         12    1    1    2    0    0 -0.41371048977E+01 -0.26171374135E+02  0.30840053395E+02  0.40659136174E+02  0.00000000000E+00 0. -1.
         11    1    3    3    0    0  0.91152422351E+01  0.16312034206E+02 -0.88208199657E+01  0.20663420967E+02  0.51100000000E-03 0. -1.
        -11    1    3    3    0    0  0.55376742958E+01  0.46971614543E+01 -0.13673550772E+02  0.15482091374E+02  0.51100000000E-03 0.  1.
         12    1    3    3    0    0 -0.10515811633E+02  0.51621784742E+01 -0.83456826577E+01  0.14383351485E+02  0.00000000000E+00 0. -1.
</event>
<event>
 7    1  0.4836188E-013  0.5052891E+02  0.7816164E-02  0.1300439E+00
        -11   -1    0    0    0    0  0.00000000000E+00  0.00000000000E+00  0.45593999997E+02  0.45594000000E+02  0.51100000000E-03 0.  1.
         11   -1    0    0    0    0 -0.00000000000E+00 -0.00000000000E+00 -0.45593999997E+02  0.45594000000E+02  0.51100000000E-03 0. -1.
    9900012    2    1    2    0    0 -0.35181373784E+02  0.36831969005E+01 -0.20046605443E+02  0.50528912571E+02  0.30000160251E+02 0.  0.
         12    1    1    2    0    0  0.35181373784E+02 -0.36831969005E+01  0.20046605443E+02  0.40659087429E+02  0.00000000000E+00 0. -1.
         11    1    3    3    0    0 -0.11418863934E+02 -0.17842544362E-01  0.74232668789E+01  0.13619679267E+02  0.51100000000E-03 0. -1.
        -11    1    3    3    0    0 -0.52476552403E+01 -0.11906380483E+01 -0.45900538941E+01  0.70727716982E+01  0.51100000000E-03 0.  1.
        -12    1    3    3    0    0 -0.18514854610E+02  0.48916774932E+01 -0.22879818428E+02  0.29836461606E+02  0.00000000000E+00 0.  1.
</event>
<event>
 7    1  0.4836188E-013  0.5052885E+02  0.7816164E-02  0.1300439E+00
        -11   -1    0    0    0    0  0.00000000000E+00  0.00000000000E+00  0.45593999997E+02  0.45594000000E+02  0.51100000000E-03 0. -1.
         11   -1    0    0    0    0 -0.00000000000E+00 -0.00000000000E+00 -0.45593999997E+02  0.45594000000E+02  0.51100000000E-03 0.  1.
    9900012    2    1    2    0    0 -0.33944405153E+02 -0.11051277843E+02 -0.19463126892E+02  0.50528847382E+02  0.29999962104E+02 0.  0.
         12    1    1    2    0    0  0.33944405153E+02  0.11051277843E+02  0.19463126892E+02  0.40659152618E+02  0.00000000000E+00 0. -1.
         11    1    3    3    0    0 -0.84670050850E+01  0.20770336939E+01 -0.78609131407E+01  0.11738747793E+02  0.51100000000E-03 0.  1.
        -11    1    3    3    0    0 -0.17419083824E+02  0.12258605034E+01  0.18110469443E+01  0.17555828278E+02  0.51100000000E-03 0. -1.
         12    1    3    3    0    0 -0.80583162444E+01 -0.14354172040E+02 -0.13413260695E+02  0.21234271311E+02  0.00000000000E+00 0. -1.
</event>
<event>
 7    1  0.4836188E-013  0.5052886E+02  0.7816164E-02  0.1300439E+00
        -11   -1    0    0    0    0  0.00000000000E+00  0.00000000000E+00  0.45593999997E+02  0.45594000000E+02  0.51100000000E-03 0.  1.
         11   -1    0    0    0    0 -0.00000000000E+00 -0.00000000000E+00 -0.45593999997E+02  0.45594000000E+02  0.51100000000E-03 0. -1.
    9900012    2    1    2    0    0  0.22752469255E+02  0.17149824004E+02  0.29006452656E+02  0.50528860606E+02  0.30000002298E+02 0.  0.
         12    1    1    2    0    0 -0.22752469255E+02 -0.17149824004E+02 -0.29006452656E+02  0.40659139394E+02  0.00000000000E+00 0. -1.
         11    1    3    3    0    0  0.11433854813E+02  0.13223406073E+02  0.17656122518E+01  0.17570113572E+02  0.51100000000E-03 0. -1.
        -11    1    3    3    0    0  0.12292142349E+02  0.72275799655E+01  0.17187497119E+02  0.22332593516E+02  0.51100000000E-03 0.  1.
        -12    1    3    3    0    0 -0.97352790728E+00 -0.33011620345E+01  0.10053343285E+02  0.10626153517E+02  0.00000000000E+00 0.  1.
</event>
<event>
 7    1  0.4836188E-013  0.5052886E+02  0.7816164E-02  0.1300439E+00
        -11   -1    0    0    0    0  0.00000000000E+00  0.00000000000E+00  0.45593999997E+02  0.45594000000E+02  0.51100000000E-03 0.  1.
         11   -1    0    0    0    0 -0.00000000000E+00 -0.00000000000E+00 -0.45593999997E+02  0.45594000000E+02  0.51100000000E-03 0. -1.
    9900012    2    1    2    0    0 -0.13687703175E+02 -0.26516541203E+02 -0.27616760809E+02  0.50528860152E+02  0.30000000918E+02 0.  0.
         12    1    1    2    0    0  0.13687703175E+02  0.26516541203E+02  0.27616760809E+02  0.40659139848E+02  0.00000000000E+00 0. -1.
         11    1    3    3    0    0 -0.13425285893E+02 -0.17133286355E+02 -0.66278255301E+01  0.22753370611E+02  0.51100000000E-03 0.  1.
        -11    1    3    3    0    0 -0.73417276650E+01 -0.68319883839E+01 -0.82771892716E+01  0.13003418508E+02  0.51100000000E-03 0. -1.
         12    1    3    3    0    0  0.70793103833E+01 -0.25512664646E+01 -0.12711746007E+02  0.14772071034E+02  0.00000000000E+00 0. -1.
</event>
<event>
 7    1  0.5807928E-013  0.5052886E+02  0.7816164E-02  0.1300439E+00
        -11   -1    0    0    0    0  0.00000000000E+00  0.00000000000E+00  0.45593999997E+02  0.45594000000E+02  0.51100000000E-03 0.  1.
         11   -1    0    0    0    0 -0.00000000000E+00 -0.00000000000E+00 -0.45593999997E+02  0.45594000000E+02  0.51100000000E-03 0. -1.
    9900012    2    1    2    0    0 -0.32875524694E+02  0.18266212838E+02  0.15450275531E+02  0.50528859954E+02  0.30000000316E+02 0.  0.
         12    1    1    2    0    0  0.32875524694E+02 -0.18266212838E+02 -0.15450275531E+02  0.40659140046E+02  0.00000000000E+00 0. -1.
         11    1    3    3    0    0 -0.55375495845E+01  0.91526512237E+00 -0.50225147638E+01  0.75317873349E+01  0.51100000000E-03 0. -1.
        -11    1    3    3    0    0 -0.29652734764E+02  0.13794229456E+02  0.14760225471E+02  0.35880770637E+02  0.51100000000E-03 0.  1.
         12    1    3    3    0    0  0.23147596553E+01  0.35567182595E+01  0.57125648231E+01  0.71163019818E+01  0.00000000000E+00 0. -1.
</event>
<event>
 7    1  0.4836188E-013  0.5052885E+02  0.7816164E-02  0.1300439E+00
        -11   -1    0    0    0    0  0.00000000000E+00  0.00000000000E+00  0.45593999997E+02  0.45594000000E+02  0.51100000000E-03 0. -1.
         11   -1    0    0    0    0 -0.00000000000E+00 -0.00000000000E+00 -0.45593999997E+02  0.45594000000E+02  0.51100000000E-03 0.  1.
    9900012    2    1    2    0    0 -0.19450565469E+02 -0.32295665699E+02 -0.15226027170E+02  0.50528850681E+02  0.29999972129E+02 0.  0.
         12    1    1    2    0    0  0.19450565469E+02  0.32295665699E+02  0.15226027170E+02  0.40659149319E+02  0.00000000000E+00 0. -1.
         11    1    3    3    0    0  0.27939986820E+01 -0.14268870804E+02 -0.89364255887E+00  0.14567281831E+02  0.51100000000E-03 0. -1.
        -11    1    3    3    0    0 -0.77823618167E+01 -0.16111985296E+02 -0.47681094643E+01  0.18517453760E+02  0.51100000000E-03 0.  1.
        -12    1    3    3    0    0 -0.14462202334E+02 -0.19148095980E+01 -0.95642751473E+01  0.17444115089E+02  0.00000000000E+00 0.  1.
</event>
<event>
 7    1  0.4836188E-013  0.5052887E+02  0.7816164E-02  0.1300439E+00
        -11   -1    0    0    0    0  0.00000000000E+00  0.00000000000E+00  0.45593999997E+02  0.45594000000E+02  0.51100000000E-03 0. -1.
         11   -1    0    0    0    0 -0.00000000000E+00 -0.00000000000E+00 -0.45593999997E+02  0.45594000000E+02  0.51100000000E-03 0.  1.
    9900012    2    1    2    0    0 -0.39124541638E+02 -0.10463270082E+02 -0.35992766596E+01  0.50528873451E+02  0.30000041343E+02 0.  0.
         12    1    1    2    0    0  0.39124541638E+02  0.10463270082E+02  0.35992766596E+01  0.40659126549E+02  0.00000000000E+00 0. -1.
         11    1    3    3    0    0 -0.10451415422E+02  0.12859983824E+01  0.21383832705E+01  0.10745164467E+02  0.51100000000E-03 0. -1.
        -11    1    3    3    0    0 -0.29561576191E+02 -0.50416194143E+01 -0.10203305758E+02  0.31676681674E+02  0.51100000000E-03 0.  1.
         12    1    3    3    0    0  0.88844997471E+00 -0.67076490504E+01  0.44656458282E+01  0.81070273099E+01  0.00000000000E+00 0. -1.
</event>
<event>
 7    1  0.4836188E-013  0.5052885E+02  0.7816164E-02  0.1300439E+00
        -11   -1    0    0    0    0  0.00000000000E+00  0.00000000000E+00  0.45593999997E+02  0.45594000000E+02  0.51100000000E-03 0. -1.
         11   -1    0    0    0    0 -0.00000000000E+00 -0.00000000000E+00 -0.45593999997E+02  0.45594000000E+02  0.51100000000E-03 0.  1.
    9900012    2    1    2    0    0  0.29952791406E+02 -0.17457080774E+02  0.21242571954E+02  0.50528852870E+02  0.29999978782E+02 0.  0.
         12    1    1    2    0    0 -0.29952791406E+02  0.17457080774E+02 -0.21242571954E+02  0.40659147130E+02  0.00000000000E+00 0. -1.
         11    1    3    3    0    0  0.10415539597E+02 -0.17918980031E+02  0.12614352472E+02  0.24263041833E+02  0.51100000000E-03 0.  1.
        -11    1    3    3    0    0  0.16425277192E+01  0.11596544672E+01  0.81041235980E+01  0.83498212762E+01  0.51100000000E-03 0. -1.
         12    1    3    3    0    0  0.17894724090E+02 -0.69775520975E+00  0.52409588404E+00  0.17915989760E+02  0.00000000000E+00 0. -1.
</event>
<event>
 7    1  0.4836188E-013  0.5052886E+02  0.7816164E-02  0.1300439E+00
        -11   -1    0    0    0    0  0.00000000000E+00  0.00000000000E+00  0.45593999997E+02  0.45594000000E+02  0.51100000000E-03 0. -1.
         11   -1    0    0    0    0 -0.00000000000E+00 -0.00000000000E+00 -0.45593999997E+02  0.45594000000E+02  0.51100000000E-03 0.  1.
    9900012    2    1    2    0    0 -0.21922922271E+02  0.33784299555E+02 -0.55832372927E+01  0.50528856428E+02  0.29999989599E+02 0.  0.
         12    1    1    2    0    0  0.21922922271E+02 -0.33784299555E+02  0.55832372927E+01  0.40659143572E+02  0.00000000000E+00 0. -1.
         11    1    3    3    0    0 -0.59720357881E+00  0.20116288950E+02 -0.52004291423E+01  0.20786202076E+02  0.51100000000E-03 0. -1.
        -11    1    3    3    0    0 -0.13929372451E+01 -0.20969665101E+01 -0.33127263777E+01  0.41607329917E+01  0.51100000000E-03 0.  1.
        -12    1    3    3    0    0 -0.19932781447E+02  0.15764977116E+02  0.29299182273E+01  0.25581921360E+02  0.00000000000E+00 0.  1.
</event>
<event>
 7    1  0.4836188E-013  0.5052885E+02  0.7816164E-02  0.1300439E+00
        -11   -1    0    0    0    0  0.00000000000E+00  0.00000000000E+00  0.45593999997E+02  0.45594000000E+02  0.51100000000E-03 0.  1.
         11   -1    0    0    0    0 -0.00000000000E+00 -0.00000000000E+00 -0.45593999997E+02  0.45594000000E+02  0.51100000000E-03 0. -1.
    9900012    2    1    2    0    0  0.23163821771E+02  0.31300317651E+00  0.33414161712E+02  0.50528845890E+02  0.29999957567E+02 0.  0.
         12    1    1    2    0    0 -0.23163821771E+02 -0.31300317651E+00 -0.33414161712E+02  0.40659154110E+02  0.00000000000E+00 0. -1.
         11    1    3    3    0    0  0.10073255441E+02 -0.38897061824E+01  0.21294435002E+02  0.23875787980E+02  0.51100000000E-03 0.  1.
        -11    1    3    3    0    0  0.90804284412E+01 -0.71327048638E+01  0.43593304071E+01  0.12342342614E+02  0.51100000000E-03 0. -1.
        -12    1    3    3    0    0  0.40101378893E+01  0.11335414223E+02  0.77603963026E+01  0.14310715295E+02  0.00000000000E+00 0.  1.
</event>
<event>
 7    1  0.4836188E-013  0.5052884E+02  0.7816164E-02  0.1300439E+00
        -11   -1    0    0    0    0  0.00000000000E+00  0.00000000000E+00  0.45593999997E+02  0.45594000000E+02  0.51100000000E-03 0. -1.
         11   -1    0    0    0    0 -0.00000000000E+00 -0.00000000000E+00 -0.45593999997E+02  0.45594000000E+02  0.51100000000E-03 0.  1.
    9900012    2    1    2    0    0 -0.18480333192E+02  0.36113428231E+02  0.27322083441E+01  0.50528838967E+02  0.29999936525E+02 0.  0.
         12    1    1    2    0    0  0.18480333192E+02 -0.36113428231E+02 -0.27322083441E+01  0.40659161033E+02  0.00000000000E+00 0. -1.
         11    1    3    3    0    0 -0.11752437227E+02  0.41428908403E+01 -0.21044383693E+01  0.12637720775E+02  0.51100000000E-03 0. -1.
        -11    1    3    3    0    0 -0.37379661873E+01  0.45025189250E+01  0.81817137993E+01  0.10059100797E+02  0.51100000000E-03 0.  1.
        -12    1    3    3    0    0 -0.29899297780E+01  0.27468018465E+02 -0.33450670859E+01  0.27832017395E+02  0.00000000000E+00 0.  1.
</event>
<event>
 7    1  0.4836188E-013  0.5052886E+02  0.7816164E-02  0.1300439E+00
        -11   -1    0    0    0    0  0.00000000000E+00  0.00000000000E+00  0.45593999997E+02  0.45594000000E+02  0.51100000000E-03 0.  1.
         11   -1    0    0    0    0 -0.00000000000E+00 -0.00000000000E+00 -0.45593999997E+02  0.45594000000E+02  0.51100000000E-03 0. -1.
    9900012    2    1    2    0    0 -0.23690751391E+02  0.12313445769E+02  0.30664192036E+02  0.50528864232E+02  0.30000013319E+02 0.  0.
         12    1    1    2    0    0  0.23690751391E+02 -0.12313445769E+02 -0.30664192036E+02  0.40659135768E+02  0.00000000000E+00 0. -1.
         11    1    3    3    0    0 -0.53313479435E+01  0.55258976115E+01  0.85633264986E+01  0.11501711885E+02  0.51100000000E-03 0.  1.
        -11    1    3    3    0    0 -0.13967633416E+02  0.86490129891E+01  0.11504136728E-01  0.16428643935E+02  0.51100000000E-03 0. -1.
         12    1    3    3    0    0 -0.43917700313E+01 -0.18614648314E+01  0.22089361401E+02  0.22598508412E+02  0.00000000000E+00 0. -1.
</event>
<event>
 7    1  0.4836188E-013  0.5052886E+02  0.7816164E-02  0.1300439E+00
        -11   -1    0    0    0    0  0.00000000000E+00  0.00000000000E+00  0.45593999997E+02  0.45594000000E+02  0.51100000000E-03 0.  1.
         11   -1    0    0    0    0 -0.00000000000E+00 -0.00000000000E+00 -0.45593999997E+02  0.45594000000E+02  0.51100000000E-03 0. -1.
    9900012    2    1    2    0    0  0.48049621632E+01  0.14218252339E+02  0.37787816804E+02  0.50528862530E+02  0.30000008146E+02 0.  0.
         12    1    1    2    0    0 -0.48049621632E+01 -0.14218252339E+02 -0.37787816804E+02  0.40659137470E+02  0.00000000000E+00 0. -1.
         11    1    3    3    0    0  0.95203284496E+01  0.31353144594E+00  0.82475662711E+01  0.12599893072E+02  0.51100000000E-03 0. -1.
        -11    1    3    3    0    0 -0.15311813207E+01 -0.46844849278E+01  0.63215911117E+01  0.80156989540E+01  0.51100000000E-03 0.  1.
         12    1    3    3    0    0 -0.31841849658E+01  0.18589205821E+02  0.23218659422E+02  0.29913270504E+02  0.00000000000E+00 0. -1.
</event>
<event>
 7    1  0.4836188E-013  0.5052885E+02  0.7816164E-02  0.1300439E+00
        -11   -1    0    0    0    0  0.00000000000E+00  0.00000000000E+00  0.45593999997E+02  0.45594000000E+02  0.51100000000E-03 0. -1.
         11   -1    0    0    0    0 -0.00000000000E+00 -0.00000000000E+00 -0.45593999997E+02  0.45594000000E+02  0.51100000000E-03 0.  1.
    9900012    2    1    2    0    0 -0.15124458582E+02 -0.30913186957E+02 -0.21651613810E+02  0.50528846592E+02  0.29999959702E+02 0.  0.
         12    1    1    2    0    0  0.15124458582E+02  0.30913186957E+02  0.21651613810E+02  0.40659153408E+02  0.00000000000E+00 0. -1.
         11    1    3    3    0    0  0.55750669196E+01 -0.73929559319E+01 -0.62622232301E+01  0.11178220279E+02  0.51100000000E-03 0. -1.
        -11    1    3    3    0    0 -0.24590958286E+01 -0.13047157984E+02  0.19732155665E-01  0.13276892459E+02  0.51100000000E-03 0.  1.
        -12    1    3    3    0    0 -0.18240429673E+02 -0.10473073041E+02 -0.15409122736E+02  0.26073733854E+02  0.00000000000E+00 0.  1.
</event>
<event>
 7    1  0.4836188E-013  0.5052886E+02  0.7816164E-02  0.1300439E+00
        -11   -1    0    0    0    0  0.00000000000E+00  0.00000000000E+00  0.45593999997E+02  0.45594000000E+02  0.51100000000E-03 0.  1.
         11   -1    0    0    0    0 -0.00000000000E+00 -0.00000000000E+00 -0.45593999997E+02  0.45594000000E+02  0.51100000000E-03 0. -1.
    9900012    2    1    2    0    0 -0.38580368892E+02  0.73190760762E+01  0.10542879377E+02  0.50528855346E+02  0.29999986308E+02 0.  0.
         12    1    1    2    0    0  0.38580368892E+02 -0.73190760762E+01 -0.10542879377E+02  0.40659144654E+02  0.00000000000E+00 0. -1.
         11    1    3    3    0    0 -0.68548992630E+01  0.26836489428E+01  0.11822001649E+02  0.13926641332E+02  0.51100000000E-03 0. -1.
        -11    1    3    3    0    0 -0.17875033457E+02 -0.53374374408E+01 -0.46027165330E+01  0.19214319121E+02  0.51100000000E-03 0.  1.
         12    1    3    3    0    0 -0.13850436172E+02  0.99728645742E+01  0.33235942611E+01  0.17387894893E+02  0.00000000000E+00 0. -1.
</event>
<event>
 7    1  0.4836188E-013  0.5052886E+02  0.7816164E-02  0.1300439E+00
        -11   -1    0    0    0    0  0.00000000000E+00  0.00000000000E+00  0.45593999997E+02  0.45594000000E+02  0.51100000000E-03 0.  1.
         11   -1    0    0    0    0 -0.00000000000E+00 -0.00000000000E+00 -0.45593999997E+02  0.45594000000E+02  0.51100000000E-03 0. -1.
    9900012    2    1    2    0    0 -0.24081901013E+02 -0.26471859003E+02  0.19299433924E+02  0.50528862955E+02  0.30000009439E+02 0.  0.
         12    1    1    2    0    0  0.24081901013E+02  0.26471859003E+02 -0.19299433924E+02  0.40659137045E+02  0.00000000000E+00 0. -1.
         11    1    3    3    0    0 -0.81092814415E+01 -0.12225881294E+02 -0.55185531684E+01  0.15674407429E+02  0.51100000000E-03 0. -1.
        -11    1    3    3    0    0 -0.77506817754E+01  0.21452612024E+00  0.65746520842E+01  0.10165881159E+02  0.51100000000E-03 0.  1.
        -12    1    3    3    0    0 -0.82219377958E+01 -0.14460503829E+02  0.18243335008E+02  0.24688574368E+02  0.00000000000E+00 0.  1.
</event>
<event>
 7    1  0.4836188E-013  0.5052886E+02  0.7816164E-02  0.1300439E+00
        -11   -1    0    0    0    0  0.00000000000E+00  0.00000000000E+00  0.45593999997E+02  0.45594000000E+02  0.51100000000E-03 0.  1.
         11   -1    0    0    0    0 -0.00000000000E+00 -0.00000000000E+00 -0.45593999997E+02  0.45594000000E+02  0.51100000000E-03 0. -1.
    9900012    2    1    2    0    0  0.11075981809E+02  0.62504690621E+01  0.38618904815E+02  0.50528861474E+02  0.30000004938E+02 0.  0.
         12    1    1    2    0    0 -0.11075981809E+02 -0.62504690621E+01 -0.38618904815E+02  0.40659138526E+02  0.00000000000E+00 0. -1.
         11    1    3    3    0    0  0.15165598160E+02 -0.23844178119E+01  0.74631373144E+01  0.17069834055E+02  0.51100000000E-03 0.  1.
        -11    1    3    3    0    0 -0.36538764151E+00  0.84575263565E+01  0.21160824223E+02  0.22791308481E+02  0.51100000000E-03 0. -1.
        -12    1    3    3    0    0 -0.37242287088E+01  0.17736051754E+00  0.99949432773E+01  0.10667718938E+02  0.00000000000E+00 0.  1.
</event>
<event>
 7    1  0.4836188E-013  0.5052886E+02  0.7816164E-02  0.1300439E+00
        -11   -1    0    0    0    0  0.00000000000E+00  0.00000000000E+00  0.45593999997E+02  0.45594000000E+02  0.51100000000E-03 0.  1.
         11   -1    0    0    0    0 -0.00000000000E+00 -0.00000000000E+00 -0.45593999997E+02  0.45594000000E+02  0.51100000000E-03 0. -1.
    9900012    2    1    2    0    0 -0.37610224729E+02 -0.83113021998E+01  0.13021479110E+02  0.50528859986E+02  0.30000000415E+02 0.  0.
         12    1    1    2    0    0  0.37610224729E+02  0.83113021998E+01 -0.13021479110E+02  0.40659140014E+02  0.00000000000E+00 0. -1.
         11    1    3    3    0    0 -0.12225935382E+02  0.34658246682E-01  0.16198652850E+02  0.20294606465E+02  0.51100000000E-03 0.  1.
        -11    1    3    3    0    0 -0.13845089884E+01 -0.54368448532E+01  0.10051812023E+01  0.56996961855E+01  0.51100000000E-03 0. -1.
         12    1    3    3    0    0 -0.23999780359E+02 -0.29091155932E+01 -0.41823549422E+01  0.24534557336E+02  0.00000000000E+00 0. -1.
</event>
<event>
 7    1  0.4836188E-013  0.5052886E+02  0.7816164E-02  0.1300439E+00
        -11   -1    0    0    0    0  0.00000000000E+00  0.00000000000E+00  0.45593999997E+02  0.45594000000E+02  0.51100000000E-03 0.  1.
         11   -1    0    0    0    0 -0.00000000000E+00 -0.00000000000E+00 -0.45593999997E+02  0.45594000000E+02  0.51100000000E-03 0. -1.
    9900012    2    1    2    0    0  0.39289907185E+02  0.74378664089E+00  0.10436278961E+02  0.50528856579E+02  0.29999990059E+02 0.  0.
         12    1    1    2    0    0 -0.39289907185E+02 -0.74378664089E+00 -0.10436278961E+02  0.40659143421E+02  0.00000000000E+00 0. -1.
         11    1    3    3    0    0 -0.42175309649E+01  0.39365293738E+00  0.30019669048E+01  0.51917565075E+01  0.51100000000E-03 0. -1.
        -11    1    3    3    0    0  0.25444482084E+02 -0.15860057694E+01  0.91585284473E+01  0.27089033323E+02  0.51100000000E-03 0.  1.
        -12    1    3    3    0    0  0.18062956066E+02  0.19361394730E+01 -0.17242163913E+01  0.18248066749E+02  0.00000000000E+00 0.  1.
</event>
<event>
 7    1  0.4836188E-013  0.5052886E+02  0.7816164E-02  0.1300439E+00
        -11   -1    0    0    0    0  0.00000000000E+00  0.00000000000E+00  0.45593999997E+02  0.45594000000E+02  0.51100000000E-03 0.  1.
         11   -1    0    0    0    0 -0.00000000000E+00 -0.00000000000E+00 -0.45593999997E+02  0.45594000000E+02  0.51100000000E-03 0. -1.
    9900012    2    1    2    0    0 -0.33508692494E+02  0.15219079728E+01  0.22978615469E+02  0.50528862707E+02  0.30000008683E+02 0.  0.
         12    1    1    2    0    0  0.33508692494E+02 -0.15219079728E+01 -0.22978615469E+02  0.40659137293E+02  0.00000000000E+00 0. -1.
         11    1    3    3    0    0 -0.16746820384E+02  0.78185132328E+00 -0.22417292724E+01  0.16914273110E+02  0.51100000000E-03 0. -1.
        -11    1    3    3    0    0  0.26323237045E+01 -0.68067277449E+00  0.39439750008E+01  0.47903426369E+01  0.51100000000E-03 0.  1.
         12    1    3    3    0    0 -0.19394195815E+02  0.14207294240E+01  0.21276369741E+02  0.28824246959E+02  0.00000000000E+00 0. -1.
</event>
<event>
 7    1  0.4836188E-013  0.5052887E+02  0.7816164E-02  0.1300439E+00
        -11   -1    0    0    0    0  0.00000000000E+00  0.00000000000E+00  0.45593999997E+02  0.45594000000E+02  0.51100000000E-03 0. -1.
         11   -1    0    0    0    0 -0.00000000000E+00 -0.00000000000E+00 -0.45593999997E+02  0.45594000000E+02  0.51100000000E-03 0.  1.
    9900012    2    1    2    0    0 -0.18451907309E+01 -0.15027646729E+01 -0.40589431817E+02  0.50528868114E+02  0.30000025121E+02 0.  0.
         12    1    1    2    0    0  0.18451907309E+01  0.15027646729E+01  0.40589431817E+02  0.40659131886E+02  0.00000000000E+00 0. -1.
         11    1    3    3    0    0 -0.31657122411E+01 -0.20002314216E+01 -0.93251651129E+00  0.38590474262E+01  0.51100000000E-03 0. -1.
        -11    1    3    3    0    0 -0.67539141787E+01  0.78087724943E+01 -0.31246617466E+02  0.32908105202E+02  0.51100000000E-03 0.  1.
         12    1    3    3    0    0  0.80744356889E+01 -0.73113057456E+01 -0.84102978388E+01  0.13761715487E+02  0.00000000000E+00 0. -1.
</event>
<event>
 7    1  0.4836188E-013  0.5052885E+02  0.7816164E-02  0.1300439E+00
        -11   -1    0    0    0    0  0.00000000000E+00  0.00000000000E+00  0.45593999997E+02  0.45594000000E+02  0.51100000000E-03 0.  1.
         11   -1    0    0    0    0 -0.00000000000E+00 -0.00000000000E+00 -0.45593999997E+02  0.45594000000E+02  0.51100000000E-03 0. -1.
    9900012    2    1    2    0    0 -0.33479060703E+02  0.61983381008E+01  0.22223844036E+02  0.50528854110E+02  0.29999982552E+02 0.  0.
         12    1    1    2    0    0  0.33479060703E+02 -0.61983381008E+01 -0.22223844036E+02  0.40659145890E+02  0.00000000000E+00 0. -1.
         11    1    3    3    0    0 -0.15020753874E+02  0.11152054549E+01  0.73543073001E-01  0.15062275360E+02  0.51100000000E-03 0. -1.
        -11    1    3    3    0    0 -0.15196872540E+02  0.35186960102E+01  0.25913849066E+02  0.30246549064E+02  0.51100000000E-03 0.  1.
         12    1    3    3    0    0 -0.32614342886E+01  0.15644366356E+01 -0.37635481023E+01  0.52200296861E+01  0.00000000000E+00 0. -1.
</event>
<event>
 7    1  0.4836188E-013  0.5052886E+02  0.7816164E-02  0.1300439E+00
        -11   -1    0    0    0    0  0.00000000000E+00  0.00000000000E+00  0.45593999997E+02  0.45594000000E+02  0.51100000000E-03 0. -1.
         11   -1    0    0    0    0 -0.00000000000E+00 -0.00000000000E+00 -0.45593999997E+02  0.45594000000E+02  0.51100000000E-03 0.  1.
    9900012    2    1    2    0    0  0.83743772527E+01  0.28829777194E+02 -0.27420414057E+02  0.50528863825E+02  0.30000012082E+02 0.  0.
         12    1    1    2    0    0 -0.83743772527E+01 -0.28829777194E+02  0.27420414057E+02  0.40659136175E+02  0.00000000000E+00 0. -1.
         11    1    3    3    0    0  0.13657849044E+02  0.13860880819E+02 -0.42086357364E+01  0.19909130383E+02  0.51100000000E-03 0. -1.
        -11    1    3    3    0    0  0.10985218717E+01  0.31394481448E+01  0.49982248898E+00  0.33634368938E+01  0.51100000000E-03 0.  1.
        -12    1    3    3    0    0 -0.63819936629E+01  0.11829448230E+02 -0.23711600810E+02  0.27256296548E+02  0.00000000000E+00 0.  1.
</event>
<event>
 7    1  0.4836188E-013  0.5052886E+02  0.7816164E-02  0.1300439E+00
        -11   -1    0    0    0    0  0.00000000000E+00  0.00000000000E+00  0.45593999997E+02  0.45594000000E+02  0.51100000000E-03 0. -1.
         11   -1    0    0    0    0 -0.00000000000E+00 -0.00000000000E+00 -0.45593999997E+02  0.45594000000E+02  0.51100000000E-03 0.  1.
    9900012    2    1    2    0    0 -0.54195820159E+01 -0.26080337055E+02 -0.30718236975E+02  0.50528856711E+02  0.29999990459E+02 0.  0.
         12    1    1    2    0    0  0.54195820159E+01  0.26080337055E+02  0.30718236975E+02  0.40659143289E+02  0.00000000000E+00 0. -1.
         11    1    3    3    0    0 -0.55513922718E+01 -0.20094593327E+02 -0.16405909715E+02  0.26528560289E+02  0.51100000000E-03 0. -1.
        -11    1    3    3    0    0  0.14959165737E+01 -0.85580740530E+01 -0.17588551140E+02  0.19617225323E+02  0.51100000000E-03 0.  1.
         12    1    3    3    0    0 -0.13641063178E+01  0.25723303247E+01  0.32762238811E+01  0.43830710997E+01  0.00000000000E+00 0. -1.
</event>
<event>
 7    1  0.4836188E-013  0.5052887E+02  0.7816164E-02  0.1300439E+00
        -11   -1    0    0    0    0  0.00000000000E+00  0.00000000000E+00  0.45593999997E+02  0.45594000000E+02  0.51100000000E-03 0.  1.
         11   -1    0    0    0    0 -0.00000000000E+00 -0.00000000000E+00 -0.45593999997E+02  0.45594000000E+02  0.51100000000E-03 0. -1.
    9900012    2    1    2    0    0  0.19354899731E+02  0.28951659650E+02  0.20984612658E+02  0.50528871769E+02  0.30000036229E+02 0.  0.
         12    1    1    2    0    0 -0.19354899731E+02 -0.28951659650E+02 -0.20984612658E+02  0.40659128231E+02  0.00000000000E+00 0. -1.
         11    1    3    3    0    0  0.67281623660E+01  0.38520949421E-01 -0.37684941425E+01  0.77117573257E+01  0.51100000000E-03 0. -1.
        -11    1    3    3    0    0  0.13465222007E+02  0.19845494340E+02  0.11150781748E+02  0.26447982591E+02  0.51100000000E-03 0.  1.
         12    1    3    3    0    0 -0.83848464195E+00  0.90676443607E+01  0.13602325053E+02  0.16369131852E+02  0.00000000000E+00 0. -1.
</event>
<event>
 7    1  0.4836188E-013  0.5052885E+02  0.7816164E-02  0.1300439E+00
        -11   -1    0    0    0    0  0.00000000000E+00  0.00000000000E+00  0.45593999997E+02  0.45594000000E+02  0.51100000000E-03 0.  1.
         11   -1    0    0    0    0 -0.00000000000E+00 -0.00000000000E+00 -0.45593999997E+02  0.45594000000E+02  0.51100000000E-03 0. -1.
    9900012    2    1    2    0    0  0.21519993255E+01  0.14542045329E+02  0.37908631078E+02  0.50528849817E+02  0.29999969503E+02 0.  0.
         12    1    1    2    0    0 -0.21519993255E+01 -0.14542045329E+02 -0.37908631078E+02  0.40659150183E+02  0.00000000000E+00 0. -1.
         11    1    3    3    0    0 -0.86425647848E+00  0.13026454178E+01 -0.33097855609E+01  0.36603968453E+01  0.51100000000E-03 0. -1.
        -11    1    3    3    0    0  0.34713751822E+01  0.12286619786E+02  0.11658405131E+02  0.17289588830E+02  0.51100000000E-03 0.  1.
        -12    1    3    3    0    0 -0.45511937823E+00  0.95278012497E+00  0.29560011507E+02  0.29578864142E+02  0.00000000000E+00 0.  1.
</event>
<event>
 7    1  0.4836188E-013  0.5052885E+02  0.7816164E-02  0.1300439E+00
        -11   -1    0    0    0    0  0.00000000000E+00  0.00000000000E+00  0.45593999997E+02  0.45594000000E+02  0.51100000000E-03 0.  1.
         11   -1    0    0    0    0 -0.00000000000E+00 -0.00000000000E+00 -0.45593999997E+02  0.45594000000E+02  0.51100000000E-03 0. -1.
    9900012    2    1    2    0    0 -0.57515089019E+01  0.24943976341E+02  0.31589312424E+02  0.50528850110E+02  0.29999970396E+02 0.  0.
         12    1    1    2    0    0  0.57515089019E+01 -0.24943976341E+02 -0.31589312424E+02  0.40659149890E+02  0.00000000000E+00 0. -1.
         11    1    3    3    0    0  0.33770713080E+01  0.13218992604E+02 -0.19954551711E-01  0.13643561651E+02  0.51100000000E-03 0. -1.
        -11    1    3    3    0    0 -0.28320758005E+01  0.12073803335E+02  0.17688695384E+02  0.21602947136E+02  0.51100000000E-03 0.  1.
        -12    1    3    3    0    0 -0.62965044093E+01 -0.34881959816E+00  0.13920571592E+02  0.15282341324E+02  0.00000000000E+00 0.  1.
</event>
<event>
 7    1  0.4836188E-013  0.5052885E+02  0.7816164E-02  0.1300439E+00
        -11   -1    0    0    0    0  0.00000000000E+00  0.00000000000E+00  0.45593999997E+02  0.45594000000E+02  0.51100000000E-03 0.  1.
         11   -1    0    0    0    0 -0.00000000000E+00 -0.00000000000E+00 -0.45593999997E+02  0.45594000000E+02  0.51100000000E-03 0. -1.
    9900012    2    1    2    0    0 -0.17724586018E+02  0.13941951609E+02  0.33832338874E+02  0.50528854438E+02  0.29999983549E+02 0.  0.
         12    1    1    2    0    0  0.17724586018E+02 -0.13941951609E+02 -0.33832338874E+02  0.40659145562E+02  0.00000000000E+00 0. -1.
         11    1    3    3    0    0  0.25793815480E+01 -0.43859599647E+01  0.11285546234E+02  0.12379556052E+02  0.51100000000E-03 0. -1.
        -11    1    3    3    0    0 -0.59259552869E+01  0.86782570323E+01  0.16964904081E+02  0.19955877879E+02  0.51100000000E-03 0.  1.
        -12    1    3    3    0    0 -0.14378012279E+02  0.96496545417E+01  0.55818885590E+01  0.18193420507E+02  0.00000000000E+00 0.  1.
</event>
<event>
 7    1  0.4836188E-013  0.5052885E+02  0.7816164E-02  0.1300439E+00
        -11   -1    0    0    0    0  0.00000000000E+00  0.00000000000E+00  0.45593999997E+02  0.45594000000E+02  0.51100000000E-03 0. -1.
         11   -1    0    0    0    0 -0.00000000000E+00 -0.00000000000E+00 -0.45593999997E+02  0.45594000000E+02  0.51100000000E-03 0.  1.
    9900012    2    1    2    0    0 -0.10688622189E+02  0.12580231065E+02 -0.37157196679E+02  0.50528854375E+02  0.29999983358E+02 0.  0.
         12    1    1    2    0    0  0.10688622189E+02 -0.12580231065E+02  0.37157196679E+02  0.40659145625E+02  0.00000000000E+00 0. -1.
         11    1    3    3    0    0  0.68530836926E+01  0.33531756201E+01 -0.11818584936E+02  0.14067248949E+02  0.51100000000E-03 0.  1.
        -11    1    3    3    0    0 -0.76132627489E+01  0.13369712685E+02 -0.13543381237E+02  0.20497174502E+02  0.51100000000E-03 0. -1.
         12    1    3    3    0    0 -0.99284431329E+01 -0.41426572406E+01 -0.11795230506E+02  0.15964430925E+02  0.00000000000E+00 0. -1.
</event>
<event>
 7    1  0.4836188E-013  0.5052885E+02  0.7816164E-02  0.1300439E+00
        -11   -1    0    0    0    0  0.00000000000E+00  0.00000000000E+00  0.45593999997E+02  0.45594000000E+02  0.51100000000E-03 0.  1.
         11   -1    0    0    0    0 -0.00000000000E+00 -0.00000000000E+00 -0.45593999997E+02  0.45594000000E+02  0.51100000000E-03 0. -1.
    9900012    2    1    2    0    0  0.16401776023E+02  0.25671957100E+02  0.26927652591E+02  0.50528854509E+02  0.29999983765E+02 0.  0.
         12    1    1    2    0    0 -0.16401776023E+02 -0.25671957100E+02 -0.26927652591E+02  0.40659145491E+02  0.00000000000E+00 0. -1.
         11    1    3    3    0    0 -0.33416684766E+01 -0.24260492289E+01  0.90089928410E+01  0.99103186296E+01  0.51100000000E-03 0. -1.
        -11    1    3    3    0    0  0.32010848133E+01  0.13669192145E+02  0.10188021640E+02  0.17346167966E+02  0.51100000000E-03 0.  1.
        -12    1    3    3    0    0  0.16542359686E+02  0.14428814184E+02  0.77306381090E+01  0.23272367913E+02  0.00000000000E+00 0.  1.
</event>
<event>
 7    1  0.4836188E-013  0.5052886E+02  0.7816164E-02  0.1300439E+00
        -11   -1    0    0    0    0  0.00000000000E+00  0.00000000000E+00  0.45593999997E+02  0.45594000000E+02  0.51100000000E-03 0. -1.
         11   -1    0    0    0    0 -0.00000000000E+00 -0.00000000000E+00 -0.45593999997E+02  0.45594000000E+02  0.51100000000E-03 0.  1.
    9900012    2    1    2    0    0 -0.21230186338E+02  0.12048330462E+02 -0.32515883426E+02  0.50528858914E+02  0.29999997155E+02 0.  0.
         12    1    1    2    0    0  0.21230186338E+02 -0.12048330462E+02  0.32515883426E+02  0.40659141086E+02  0.00000000000E+00 0. -1.
         11    1    3    3    0    0  0.11219307662E+01  0.27217123630E+01  0.16889867885E+00  0.29487241065E+01  0.51100000000E-03 0. -1.
        -11    1    3    3    0    0 -0.67923282246E+01  0.11813919660E+02 -0.28001713501E+02  0.31141618129E+02  0.51100000000E-03 0.  1.
         12    1    3    3    0    0 -0.15559788880E+02 -0.24873015608E+01 -0.46830686038E+01  0.16438516678E+02  0.00000000000E+00 0. -1.
</event>
<event>
 7    1  0.4836188E-013  0.5052886E+02  0.7816164E-02  0.1300439E+00
        -11   -1    0    0    0    0  0.00000000000E+00  0.00000000000E+00  0.45593999997E+02  0.45594000000E+02  0.51100000000E-03 0. -1.
         11   -1    0    0    0    0 -0.00000000000E+00 -0.00000000000E+00 -0.45593999997E+02  0.45594000000E+02  0.51100000000E-03 0.  1.
    9900012    2    1    2    0    0  0.16876455825E+02 -0.11333323168E+02 -0.35212304421E+02  0.50528863783E+02  0.30000011955E+02 0.  0.
         12    1    1    2    0    0 -0.16876455825E+02  0.11333323168E+02  0.35212304421E+02  0.40659136217E+02  0.00000000000E+00 0. -1.
         11    1    3    3    0    0  0.62569995179E+01 -0.33790601370E+01 -0.79960376747E+01  0.10700687321E+02  0.51100000000E-03 0. -1.
        -11    1    3    3    0    0  0.45481917772E+01  0.66783054367E+01 -0.21530416623E+02  0.22996622625E+02  0.51100000000E-03 0.  1.
         12    1    3    3    0    0  0.60712645298E+01 -0.14632568468E+02 -0.56858501240E+01  0.16831553838E+02  0.00000000000E+00 0. -1.
</event>
<event>
 7    1  0.4836188E-013  0.5052887E+02  0.7816164E-02  0.1300439E+00
        -11   -1    0    0    0    0  0.00000000000E+00  0.00000000000E+00  0.45593999997E+02  0.45594000000E+02  0.51100000000E-03 0.  1.
         11   -1    0    0    0    0 -0.00000000000E+00 -0.00000000000E+00 -0.45593999997E+02  0.45594000000E+02  0.51100000000E-03 0. -1.
    9900012    2    1    2    0    0 -0.11548502263E+02 -0.38500229954E+02  0.61260995511E+01  0.50528871791E+02  0.30000036295E+02 0.  0.
         12    1    1    2    0    0  0.11548502263E+02  0.38500229954E+02 -0.61260995511E+01  0.40659128209E+02  0.00000000000E+00 0. -1.
         11    1    3    3    0    0 -0.53981189484E+01 -0.89730206924E+01 -0.40963200765E+01  0.11244315317E+02  0.51100000000E-03 0. -1.
        -11    1    3    3    0    0  0.61414606362E+01 -0.15868527217E+02 -0.21227797636E+01  0.17147416393E+02  0.51100000000E-03 0.  1.
        -12    1    3    3    0    0 -0.12291843951E+02 -0.13658682045E+02  0.12345199391E+02  0.22137140080E+02  0.00000000000E+00 0.  1.
</event>
<event>
 7    1  0.4836188E-013  0.5052886E+02  0.7816164E-02  0.1300439E+00
        -11   -1    0    0    0    0  0.00000000000E+00  0.00000000000E+00  0.45593999997E+02  0.45594000000E+02  0.51100000000E-03 0. -1.
         11   -1    0    0    0    0 -0.00000000000E+00 -0.00000000000E+00 -0.45593999997E+02  0.45594000000E+02  0.51100000000E-03 0.  1.
    9900012    2    1    2    0    0 -0.25384662522E+02 -0.44379456598E+01 -0.31449794620E+02  0.50528855461E+02  0.29999986659E+02 0.  0.
         12    1    1    2    0    0  0.25384662522E+02  0.44379456598E+01  0.31449794620E+02  0.40659144539E+02  0.00000000000E+00 0. -1.
         11    1    3    3    0    0 -0.27149483864E+00 -0.54239405462E+01 -0.31710116938E+00  0.54399810578E+01  0.51100000000E-03 0. -1.
        -11    1    3    3    0    0 -0.22041401422E+02 -0.65851478507E+01 -0.16431689255E+02  0.28269912644E+02  0.51100000000E-03 0.  1.
        -12    1    3    3    0    0 -0.30717662618E+01  0.75711427372E+01 -0.14701004195E+02  0.16818961759E+02  0.00000000000E+00 0.  1.
</event>
<event>
 7    1  0.4836188E-013  0.5052884E+02  0.7816164E-02  0.1300439E+00
        -11   -1    0    0    0    0  0.00000000000E+00  0.00000000000E+00  0.45593999997E+02  0.45594000000E+02  0.51100000000E-03 0.  1.
         11   -1    0    0    0    0 -0.00000000000E+00 -0.00000000000E+00 -0.45593999997E+02  0.45594000000E+02  0.51100000000E-03 0. -1.
    9900012    2    1    2    0    0  0.22506334633E+02  0.31516331936E+01  0.33714970789E+02  0.50528841797E+02  0.29999945127E+02 0.  0.
         12    1    1    2    0    0 -0.22506334633E+02 -0.31516331936E+01 -0.33714970789E+02  0.40659158203E+02  0.00000000000E+00 0. -1.
         11    1    3    3    0    0  0.11314959982E+02  0.59767483520E+01  0.36394027185E+01  0.13303950265E+02  0.51100000000E-03 0. -1.
        -11    1    3    3    0    0  0.63604735245E+01  0.78524856944E+01  0.15795814347E+02  0.18751664091E+02  0.51100000000E-03 0.  1.
        -12    1    3    3    0    0  0.48309011272E+01 -0.10677600853E+02  0.14279753724E+02  0.18473227441E+02  0.00000000000E+00 0.  1.
</event>
<event>
 7    1  0.4836188E-013  0.5052884E+02  0.7816164E-02  0.1300439E+00
        -11   -1    0    0    0    0  0.00000000000E+00  0.00000000000E+00  0.45593999997E+02  0.45594000000E+02  0.51100000000E-03 0.  1.
         11   -1    0    0    0    0 -0.00000000000E+00 -0.00000000000E+00 -0.45593999997E+02  0.45594000000E+02  0.51100000000E-03 0. -1.
    9900012    2    1    2    0    0 -0.36476585545E+02 -0.12590304187E+02  0.12810550041E+02  0.50528840578E+02  0.29999941422E+02 0.  0.
         12    1    1    2    0    0  0.36476585545E+02  0.12590304187E+02 -0.12810550041E+02  0.40659159422E+02  0.00000000000E+00 0. -1.
         11    1    3    3    0    0 -0.25906652378E+02 -0.90361201008E+01  0.59251377796E+01  0.28069794476E+02  0.51100000000E-03 0. -1.
        -11    1    3    3    0    0 -0.12192874467E+02  0.32914848244E+01  0.20588741377E-01  0.12629350113E+02  0.51100000000E-03 0.  1.
        -12    1    3    3    0    0  0.16229413007E+01 -0.68456689104E+01  0.68648235197E+01  0.98296959899E+01  0.00000000000E+00 0.  1.
</event>
<event>
 7    1  0.4836188E-013  0.5052886E+02  0.7816164E-02  0.1300439E+00
        -11   -1    0    0    0    0  0.00000000000E+00  0.00000000000E+00  0.45593999997E+02  0.45594000000E+02  0.51100000000E-03 0.  1.
         11   -1    0    0    0    0 -0.00000000000E+00 -0.00000000000E+00 -0.45593999997E+02  0.45594000000E+02  0.51100000000E-03 0. -1.
    9900012    2    1    2    0    0  0.32019564048E+02  0.24988976948E+02 -0.18612004721E+01  0.50528861815E+02  0.30000005973E+02 0.  0.
         12    1    1    2    0    0 -0.32019564048E+02 -0.24988976948E+02  0.18612004721E+01  0.40659138185E+02  0.00000000000E+00 0. -1.
         11    1    3    3    0    0  0.92467882553E+01  0.30705356996E+01 -0.27746492425E+01  0.10130644659E+02  0.51100000000E-03 0. -1.
        -11    1    3    3    0    0  0.35665229476E+01 -0.56283374648E+01  0.14210912704E+01  0.68130587267E+01  0.51100000000E-03 0.  1.
        -12    1    3    3    0    0  0.19206252845E+02  0.27546778714E+02 -0.50764249995E+00  0.33585158430E+02  0.00000000000E+00 0.  1.
</event>
<event>
 7    1  0.4836188E-013  0.5052885E+02  0.7816164E-02  0.1300439E+00
        -11   -1    0    0    0    0  0.00000000000E+00  0.00000000000E+00  0.45593999997E+02  0.45594000000E+02  0.51100000000E-03 0.  1.
         11   -1    0    0    0    0 -0.00000000000E+00 -0.00000000000E+00 -0.45593999997E+02  0.45594000000E+02  0.51100000000E-03 0. -1.
    9900012    2    1    2    0    0  0.37225161078E+02 -0.15132342693E+02  0.62021127388E+01  0.50528848323E+02  0.29999964963E+02 0.  0.
         12    1    1    2    0    0 -0.37225161078E+02  0.15132342693E+02 -0.62021127388E+01  0.40659151677E+02  0.00000000000E+00 0. -1.
         11    1    3    3    0    0  0.18461790254E-01 -0.85309240585E+01  0.57205547914E+00  0.85501025644E+01  0.51100000000E-03 0. -1.
        -11    1    3    3    0    0  0.13037553695E+02 -0.44540858511E+00  0.10279128338E+02  0.16608331488E+02  0.51100000000E-03 0.  1.
         12    1    3    3    0    0  0.24169145593E+02 -0.61560100497E+01 -0.46490710780E+01  0.25370414271E+02  0.00000000000E+00 0. -1.
</event>
<event>
 7    1  0.4836188E-013  0.5052885E+02  0.7816164E-02  0.1300439E+00
        -11   -1    0    0    0    0  0.00000000000E+00  0.00000000000E+00  0.45593999997E+02  0.45594000000E+02  0.51100000000E-03 0. -1.
         11   -1    0    0    0    0 -0.00000000000E+00 -0.00000000000E+00 -0.45593999997E+02  0.45594000000E+02  0.51100000000E-03 0.  1.
    9900012    2    1    2    0    0 -0.92674169461E+01  0.37342132369E+02  0.13147100127E+02  0.50528854554E+02  0.29999983901E+02 0.  0.
         12    1    1    2    0    0  0.92674169461E+01 -0.37342132369E+02 -0.13147100127E+02  0.40659145446E+02  0.00000000000E+00 0. -1.
         11    1    3    3    0    0  0.28320523880E+00  0.27553424888E+01 -0.64781903403E+01  0.70454998250E+01  0.51100000000E-03 0. -1.
        -11    1    3    3    0    0 -0.71062341742E+01  0.12592994236E+02  0.88783574921E+00  0.14486901689E+02  0.51100000000E-03 0.  1.
         12    1    3    3    0    0 -0.24443880107E+01  0.21993795644E+02  0.18737454718E+02  0.28996453040E+02  0.00000000000E+00 0. -1.
</event>
<event>
 7    1  0.4836188E-013  0.5052888E+02  0.7816164E-02  0.1300439E+00
        -11   -1    0    0    0    0  0.00000000000E+00  0.00000000000E+00  0.45593999997E+02  0.45594000000E+02  0.51100000000E-03 0. -1.
         11   -1    0    0    0    0 -0.00000000000E+00 -0.00000000000E+00 -0.45593999997E+02  0.45594000000E+02  0.51100000000E-03 0.  1.
    9900012    2    1    2    0    0 -0.26122142874E+02 -0.23233946949E+02 -0.20760098562E+02  0.50528876406E+02  0.30000050322E+02 0.  0.
         12    1    1    2    0    0  0.26122142874E+02  0.23233946949E+02  0.20760098562E+02  0.40659123594E+02  0.00000000000E+00 0. -1.
         11    1    3    3    0    0 -0.16380787233E+01 -0.23415784526E+01  0.38158300479E+01  0.47672686906E+01  0.51100000000E-03 0. -1.
        -11    1    3    3    0    0 -0.55529351352E+01  0.30146890876E+01  0.41868698466E+00  0.63323564305E+01  0.51100000000E-03 0.  1.
        -12    1    3    3    0    0 -0.18931129016E+02 -0.23907057584E+02 -0.24994615594E+02  0.39429251284E+02  0.00000000000E+00 0.  1.
</event>
<event>
 7    1  0.4836188E-013  0.5052883E+02  0.7816164E-02  0.1300439E+00
        -11   -1    0    0    0    0  0.00000000000E+00  0.00000000000E+00  0.45593999997E+02  0.45594000000E+02  0.51100000000E-03 0. -1.
         11   -1    0    0    0    0 -0.00000000000E+00 -0.00000000000E+00 -0.45593999997E+02  0.45594000000E+02  0.51100000000E-03 0.  1.
    9900012    2    1    2    0    0  0.28210528529E+02  0.16418599207E+02 -0.24243840924E+02  0.50528829540E+02  0.29999907868E+02 0.  0.
         12    1    1    2    0    0 -0.28210528529E+02 -0.16418599207E+02  0.24243840924E+02  0.40659170460E+02  0.00000000000E+00 0. -1.
         11    1    3    3    0    0  0.42075051971E+01  0.57055953820E+01  0.24966717916E+01  0.75160021915E+01  0.51100000000E-03 0. -1.
        -11    1    3    3    0    0  0.27739593128E+02  0.10731638769E+02 -0.22099704066E+02  0.37054689550E+02  0.51100000000E-03 0.  1.
         12    1    3    3    0    0 -0.37365697962E+01 -0.18634943924E-01 -0.46408086494E+01  0.59581377983E+01  0.00000000000E+00 0. -1.
</event>
<event>
 7    1  0.4836188E-013  0.5052886E+02  0.7816164E-02  0.1300439E+00
        -11   -1    0    0    0    0  0.00000000000E+00  0.00000000000E+00  0.45593999997E+02  0.45594000000E+02  0.51100000000E-03 0.  1.
         11   -1    0    0    0    0 -0.00000000000E+00 -0.00000000000E+00 -0.45593999997E+02  0.45594000000E+02  0.51100000000E-03 0. -1.
    9900012    2    1    2    0    0  0.13441104644E+02 -0.33135953464E+02  0.19352285887E+02  0.50528859882E+02  0.30000000099E+02 0.  0.
         12    1    1    2    0    0 -0.13441104644E+02  0.33135953464E+02 -0.19352285887E+02  0.40659140118E+02  0.00000000000E+00 0. -1.
         11    1    3    3    0    0  0.40744006142E+01  0.14666483447E+01  0.43199409540E+00  0.43518291432E+01  0.51100000000E-03 0.  1.
        -11    1    3    3    0    0  0.96233803442E+01 -0.37487259959E+02  0.19314058126E+02  0.43254328685E+02  0.51100000000E-03 0. -1.
         12    1    3    3    0    0 -0.25667631455E+00  0.28846581496E+01 -0.39376633415E+00  0.29227020540E+01  0.00000000000E+00 0. -1.
</event>
<event>
 7    1  0.4836188E-013  0.5052886E+02  0.7816164E-02  0.1300439E+00
        -11   -1    0    0    0    0  0.00000000000E+00  0.00000000000E+00  0.45593999997E+02  0.45594000000E+02  0.51100000000E-03 0.  1.
         11   -1    0    0    0    0 -0.00000000000E+00 -0.00000000000E+00 -0.45593999997E+02  0.45594000000E+02  0.51100000000E-03 0. -1.
    9900012    2    1    2    0    0  0.17767775795E+02 -0.35891026116E+02  0.70218311086E+01  0.50528859275E+02  0.29999998253E+02 0.  0.
         12    1    1    2    0    0 -0.17767775795E+02  0.35891026116E+02 -0.70218311086E+01  0.40659140725E+02  0.00000000000E+00 0. -1.
         11    1    3    3    0    0  0.30267782853E-01 -0.43332587943E+01  0.63121775865E+01  0.76564766088E+01  0.51100000000E-03 0. -1.
        -11    1    3    3    0    0  0.11681456864E+02 -0.25692344654E+02  0.10353959224E+02  0.30062559441E+02  0.51100000000E-03 0.  1.
         12    1    3    3    0    0  0.60560511485E+01 -0.58654226677E+01 -0.96443057022E+01  0.12809823225E+02  0.00000000000E+00 0. -1.
</event>
<event>
 7    1  0.4836188E-013  0.5052885E+02  0.7816164E-02  0.1300439E+00
        -11   -1    0    0    0    0  0.00000000000E+00  0.00000000000E+00  0.45593999997E+02  0.45594000000E+02  0.51100000000E-03 0.  1.
         11   -1    0    0    0    0 -0.00000000000E+00 -0.00000000000E+00 -0.45593999997E+02  0.45594000000E+02  0.51100000000E-03 0. -1.
    9900012    2    1    2    0    0  0.18607325625E+02 -0.21586051695E+02  0.28999586552E+02  0.50528853245E+02  0.29999979922E+02 0.  0.
         12    1    1    2    0    0 -0.18607325625E+02  0.21586051695E+02 -0.28999586552E+02  0.40659146755E+02  0.00000000000E+00 0. -1.
         11    1    3    3    0    0 -0.39656131308E+01 -0.17814490580E+01  0.30825000753E+01  0.53293015701E+01  0.51100000000E-03 0. -1.
        -11    1    3    3    0    0  0.15792877111E+02 -0.85084855231E+01  0.26512696854E+02  0.32011441518E+02  0.51100000000E-03 0.  1.
         12    1    3    3    0    0  0.67800616452E+01 -0.11296117114E+02 -0.59561037799E+00  0.13188110156E+02  0.00000000000E+00 0. -1.
</event>
<event>
 7    1  0.4836188E-013  0.5052887E+02  0.7816164E-02  0.1300439E+00
        -11   -1    0    0    0    0  0.00000000000E+00  0.00000000000E+00  0.45593999997E+02  0.45594000000E+02  0.51100000000E-03 0.  1.
         11   -1    0    0    0    0 -0.00000000000E+00 -0.00000000000E+00 -0.45593999997E+02  0.45594000000E+02  0.51100000000E-03 0. -1.
    9900012    2    1    2    0    0  0.96099362377E+01  0.39507003162E+02  0.10427484608E+00  0.50528867611E+02  0.30000023591E+02 0.  0.
         12    1    1    2    0    0 -0.96099362377E+01 -0.39507003162E+02 -0.10427484608E+00  0.40659132389E+02  0.00000000000E+00 0. -1.
         11    1    3    3    0    0 -0.37037412304E+01  0.36566678599E+01  0.65938299676E+01  0.84004471811E+01  0.51100000000E-03 0.  1.
        -11    1    3    3    0    0 -0.10618607743E+01  0.11799888397E+02 -0.76197433357E+01  0.14086355215E+02  0.51100000000E-03 0. -1.
         12    1    3    3    0    0  0.14375538242E+02  0.24050446906E+02  0.11301882142E+01  0.28042065215E+02  0.00000000000E+00 0. -1.
</event>
<event>
 7    1  0.4836188E-013  0.5052886E+02  0.7816164E-02  0.1300439E+00
        -11   -1    0    0    0    0  0.00000000000E+00  0.00000000000E+00  0.45593999997E+02  0.45594000000E+02  0.51100000000E-03 0. -1.
         11   -1    0    0    0    0 -0.00000000000E+00 -0.00000000000E+00 -0.45593999997E+02  0.45594000000E+02  0.51100000000E-03 0.  1.
    9900012    2    1    2    0    0 -0.46157935893E+01 -0.34862614977E+02 -0.20407307852E+02  0.50528859732E+02  0.29999999642E+02 0.  0.
         12    1    1    2    0    0  0.46157935893E+01  0.34862614977E+02  0.20407307852E+02  0.40659140268E+02  0.00000000000E+00 0. -1.
         11    1    3    3    0    0 -0.12710161064E+01 -0.15243765240E+02 -0.38736336642E+01  0.15779508822E+02  0.51100000000E-03 0. -1.
        -11    1    3    3    0    0  0.24068083802E+01 -0.16572848606E+02 -0.20997044816E+02  0.26857548823E+02  0.51100000000E-03 0.  1.
        -12    1    3    3    0    0 -0.57515858631E+01 -0.30460011319E+01  0.44633706278E+01  0.78918020881E+01  0.00000000000E+00 0.  1.
</event>
<event>
 7    1  0.4836188E-013  0.5052886E+02  0.7816164E-02  0.1300439E+00
        -11   -1    0    0    0    0  0.00000000000E+00  0.00000000000E+00  0.45593999997E+02  0.45594000000E+02  0.51100000000E-03 0. -1.
         11   -1    0    0    0    0 -0.00000000000E+00 -0.00000000000E+00 -0.45593999997E+02  0.45594000000E+02  0.51100000000E-03 0.  1.
    9900012    2    1    2    0    0 -0.40216937455E+02  0.56860286124E+01 -0.18528294474E+01  0.50528856420E+02  0.29999989575E+02 0.  0.
         12    1    1    2    0    0  0.40216937455E+02 -0.56860286124E+01  0.18528294474E+01  0.40659143580E+02  0.00000000000E+00 0. -1.
         11    1    3    3    0    0 -0.94260539710E+01 -0.19357315238E+01  0.30509736902E+01  0.10094849712E+02  0.51100000000E-03 0. -1.
        -11    1    3    3    0    0 -0.32624529292E+02  0.59517952764E+01 -0.10107851624E+02  0.34669185789E+02  0.51100000000E-03 0.  1.
         12    1    3    3    0    0  0.18336458078E+01  0.16699648598E+01  0.52040484862E+01  0.57648209190E+01  0.00000000000E+00 0. -1.
</event>
<event>
 7    1  0.4836188E-013  0.5052886E+02  0.7816164E-02  0.1300439E+00
        -11   -1    0    0    0    0  0.00000000000E+00  0.00000000000E+00  0.45593999997E+02  0.45594000000E+02  0.51100000000E-03 0.  1.
         11   -1    0    0    0    0 -0.00000000000E+00 -0.00000000000E+00 -0.45593999997E+02  0.45594000000E+02  0.51100000000E-03 0. -1.
    9900012    2    1    2    0    0 -0.25939560500E+02  0.31309514557E+02 -0.13967942662E+00  0.50528855751E+02  0.29999987539E+02 0.  0.
         12    1    1    2    0    0  0.25939560500E+02 -0.31309514557E+02  0.13967942662E+00  0.40659144249E+02  0.00000000000E+00 0. -1.
         11    1    3    3    0    0  0.47471688842E+01  0.72364387601E+01  0.18070282471E+01  0.88412108724E+01  0.51100000000E-03 0. -1.
        -11    1    3    3    0    0  0.10038410096E+01 -0.49055745955E+00 -0.11220753413E+01  0.15834761527E+01  0.51100000000E-03 0.  1.
        -12    1    3    3    0    0 -0.31690570394E+02  0.24563633257E+02 -0.82463233238E+00  0.40104168725E+02  0.00000000000E+00 0.  1.
</event>
<event>
 7    1  0.4836188E-013  0.5052884E+02  0.7816164E-02  0.1300439E+00
        -11   -1    0    0    0    0  0.00000000000E+00  0.00000000000E+00  0.45593999997E+02  0.45594000000E+02  0.51100000000E-03 0.  1.
         11   -1    0    0    0    0 -0.00000000000E+00 -0.00000000000E+00 -0.45593999997E+02  0.45594000000E+02  0.51100000000E-03 0. -1.
    9900012    2    1    2    0    0  0.27939568349E+02 -0.29476575491E+02  0.19182219766E+01  0.50528836731E+02  0.29999929726E+02 0.  0.
         12    1    1    2    0    0 -0.27939568349E+02  0.29476575491E+02 -0.19182219766E+01  0.40659163269E+02  0.00000000000E+00 0. -1.
         11    1    3    3    0    0 -0.13767853613E+01 -0.38275374972E+01 -0.51619753216E+01  0.65720294206E+01  0.51100000000E-03 0. -1.
        -11    1    3    3    0    0  0.23498012362E+01 -0.13357330526E+02  0.41153135307E+01  0.14173060726E+02  0.51100000000E-03 0.  1.
         12    1    3    3    0    0  0.26966552474E+02 -0.12291707468E+02  0.29648837674E+01  0.29783746584E+02  0.00000000000E+00 0. -1.
</event>
<event>
 7    1  0.4836188E-013  0.5052886E+02  0.7816164E-02  0.1300439E+00
        -11   -1    0    0    0    0  0.00000000000E+00  0.00000000000E+00  0.45593999997E+02  0.45594000000E+02  0.51100000000E-03 0.  1.
         11   -1    0    0    0    0 -0.00000000000E+00 -0.00000000000E+00 -0.45593999997E+02  0.45594000000E+02  0.51100000000E-03 0. -1.
    9900012    2    1    2    0    0 -0.31533592034E+02 -0.11154919148E+02  0.23116353996E+02  0.50528862407E+02  0.30000007772E+02 0.  0.
         12    1    1    2    0    0  0.31533592034E+02  0.11154919148E+02 -0.23116353996E+02  0.40659137593E+02  0.00000000000E+00 0. -1.
         11    1    3    3    0    0 -0.12423710376E+02 -0.44628801915E+01  0.18472322743E+02  0.22704461828E+02  0.51100000000E-03 0.  1.
        -11    1    3    3    0    0  0.13958712785E+00 -0.73217543202E+01  0.44392276468E+01  0.85635456006E+01  0.51100000000E-03 0. -1.
         12    1    3    3    0    0 -0.19249468786E+02  0.62971536383E+00  0.20480360633E+00  0.19260854979E+02  0.00000000000E+00 0. -1.
</event>
<event>
 7    1  0.4836188E-013  0.5052885E+02  0.7816164E-02  0.1300439E+00
        -11   -1    0    0    0    0  0.00000000000E+00  0.00000000000E+00  0.45593999997E+02  0.45594000000E+02  0.51100000000E-03 0.  1.
         11   -1    0    0    0    0 -0.00000000000E+00 -0.00000000000E+00 -0.45593999997E+02  0.45594000000E+02  0.51100000000E-03 0. -1.
    9900012    2    1    2    0    0 -0.20783767253E+01  0.59949343302E+01  0.40161020417E+02  0.50528850373E+02  0.29999971195E+02 0.  0.
         12    1    1    2    0    0  0.20783767253E+01 -0.59949343302E+01 -0.40161020417E+02  0.40659149627E+02  0.00000000000E+00 0. -1.
         11    1    3    3    0    0  0.53223803228E+01  0.41681916225E+01  0.12423384633E+01  0.68734968408E+01  0.51100000000E-03 0. -1.
        -11    1    3    3    0    0 -0.23416747975E+01  0.76019501012E+01  0.33043994234E+02  0.33987919051E+02  0.51100000000E-03 0.  1.
        -12    1    3    3    0    0 -0.50590822506E+01 -0.57752073935E+01  0.58746877194E+01  0.96674344817E+01  0.00000000000E+00 0.  1.
</event>
<event>
 7    1  0.4836188E-013  0.5052886E+02  0.7816164E-02  0.1300439E+00
        -11   -1    0    0    0    0  0.00000000000E+00  0.00000000000E+00  0.45593999997E+02  0.45594000000E+02  0.51100000000E-03 0.  1.
         11   -1    0    0    0    0 -0.00000000000E+00 -0.00000000000E+00 -0.45593999997E+02  0.45594000000E+02  0.51100000000E-03 0. -1.
    9900012    2    1    2    0    0 -0.40185666023E+02  0.51929663876E+01  0.33632442763E+01  0.50528855079E+02  0.29999985499E+02 0.  0.
         12    1    1    2    0    0  0.40185666023E+02 -0.51929663876E+01 -0.33632442763E+01  0.40659144921E+02  0.00000000000E+00 0. -1.
         11    1    3    3    0    0 -0.25296839032E+02 -0.65544616711E+00  0.73394695857E+01  0.26348197068E+02  0.51100000000E-03 0. -1.
        -11    1    3    3    0    0 -0.97816961445E+01  0.59995845175E+01  0.60170946293E+01  0.12956929493E+02  0.51100000000E-03 0.  1.
         12    1    3    3    0    0 -0.51071308465E+01 -0.15117196276E+00 -0.99933199387E+01  0.11223728518E+02  0.00000000000E+00 0. -1.
</event>
<event>
 7    1  0.4836188E-013  0.5052887E+02  0.7816164E-02  0.1300439E+00
        -11   -1    0    0    0    0  0.00000000000E+00  0.00000000000E+00  0.45593999997E+02  0.45594000000E+02  0.51100000000E-03 0.  1.
         11   -1    0    0    0    0 -0.00000000000E+00 -0.00000000000E+00 -0.45593999997E+02  0.45594000000E+02  0.51100000000E-03 0. -1.
    9900012    2    1    2    0    0 -0.19572804602E+02 -0.28334417643E+02  0.21615526727E+02  0.50528869428E+02  0.30000029115E+02 0.  0.
         12    1    1    2    0    0  0.19572804602E+02  0.28334417643E+02 -0.21615526727E+02  0.40659130572E+02  0.00000000000E+00 0. -1.
         11    1    3    3    0    0  0.21901797565E+01 -0.60211361699E+01  0.35005658307E+01  0.73010224995E+01  0.51100000000E-03 0. -1.
        -11    1    3    3    0    0 -0.65908707604E+01 -0.23920044777E+01 -0.54206350353E+01  0.88625361634E+01  0.51100000000E-03 0.  1.
        -12    1    3    3    0    0 -0.15172113598E+02 -0.19921276995E+02  0.23535595931E+02  0.34365310765E+02  0.00000000000E+00 0.  1.
</event>
<event>
 7    1  0.4836188E-013  0.5052885E+02  0.7816164E-02  0.1300439E+00
        -11   -1    0    0    0    0  0.00000000000E+00  0.00000000000E+00  0.45593999997E+02  0.45594000000E+02  0.51100000000E-03 0.  1.
         11   -1    0    0    0    0 -0.00000000000E+00 -0.00000000000E+00 -0.45593999997E+02  0.45594000000E+02  0.51100000000E-03 0. -1.
    9900012    2    1    2    0    0 -0.11995746801E+02  0.37746812077E+02  0.91894737974E+01  0.50528853527E+02  0.29999980780E+02 0.  0.
         12    1    1    2    0    0  0.11995746801E+02 -0.37746812077E+02 -0.91894737974E+01  0.40659146473E+02  0.00000000000E+00 0. -1.
         11    1    3    3    0    0  0.51431186565E+01  0.90529897906E+01 -0.29964072490E+01  0.10834516617E+02  0.51100000000E-03 0. -1.
        -11    1    3    3    0    0 -0.37405916532E+01  0.21684686480E+02  0.35748641470E+01  0.22293436424E+02  0.51100000000E-03 0.  1.
        -12    1    3    3    0    0 -0.13398273804E+02  0.70091358060E+01  0.86110168993E+01  0.17400900486E+02  0.00000000000E+00 0.  1.
</event>
<event>
 7    1  0.4836188E-013  0.5052885E+02  0.7816164E-02  0.1300439E+00
        -11   -1    0    0    0    0  0.00000000000E+00  0.00000000000E+00  0.45593999997E+02  0.45594000000E+02  0.51100000000E-03 0.  1.
         11   -1    0    0    0    0 -0.00000000000E+00 -0.00000000000E+00 -0.45593999997E+02  0.45594000000E+02  0.51100000000E-03 0. -1.
    9900012    2    1    2    0    0 -0.27845441505E+02  0.27226291767E+02  0.11684472275E+02  0.50528850128E+02  0.29999970449E+02 0.  0.
         12    1    1    2    0    0  0.27845441505E+02 -0.27226291767E+02 -0.11684472275E+02  0.40659149872E+02  0.00000000000E+00 0. -1.
         11    1    3    3    0    0 -0.71627614526E+00  0.16549526222E+02  0.10105559178E+02  0.19404179866E+02  0.51100000000E-03 0. -1.
        -11    1    3    3    0    0 -0.14100633729E+02  0.95568025837E+01  0.47203748184E+01  0.17676037052E+02  0.51100000000E-03 0.  1.
        -12    1    3    3    0    0 -0.13028531630E+02  0.11199629608E+01 -0.31414617214E+01  0.13448633210E+02  0.00000000000E+00 0.  1.
</event>
<event>
 7    1  0.4836188E-013  0.5052886E+02  0.7816164E-02  0.1300439E+00
        -11   -1    0    0    0    0  0.00000000000E+00  0.00000000000E+00  0.45593999997E+02  0.45594000000E+02  0.51100000000E-03 0. -1.
         11   -1    0    0    0    0 -0.00000000000E+00 -0.00000000000E+00 -0.45593999997E+02  0.45594000000E+02  0.51100000000E-03 0.  1.
    9900012    2    1    2    0    0 -0.12054128161E+02  0.25536524457E+02 -0.29253195258E+02  0.50528861791E+02  0.30000005900E+02 0.  0.
         12    1    1    2    0    0  0.12054128161E+02 -0.25536524457E+02  0.29253195258E+02  0.40659138209E+02  0.00000000000E+00 0. -1.
         11    1    3    3    0    0  0.16493775991E+01 -0.34852967408E+01  0.22056312272E+00  0.38621740235E+01  0.51100000000E-03 0. -1.
        -11    1    3    3    0    0  0.32303494871E+01  0.10754756157E+02 -0.81178557502E+01  0.13856389142E+02  0.51100000000E-03 0.  1.
        -12    1    3    3    0    0 -0.16933855247E+02  0.18267065040E+02 -0.21355902631E+02  0.32810298626E+02  0.00000000000E+00 0.  1.
</event>
<event>
 7    1  0.4836188E-013  0.5052886E+02  0.7816164E-02  0.1300439E+00
        -11   -1    0    0    0    0  0.00000000000E+00  0.00000000000E+00  0.45593999997E+02  0.45594000000E+02  0.51100000000E-03 0. -1.
         11   -1    0    0    0    0 -0.00000000000E+00 -0.00000000000E+00 -0.45593999997E+02  0.45594000000E+02  0.51100000000E-03 0.  1.
    9900012    2    1    2    0    0  0.24483155012E+02 -0.31580679052E+02 -0.75100930540E+01  0.50528859990E+02  0.30000000425E+02 0.  0.
         12    1    1    2    0    0 -0.24483155012E+02  0.31580679052E+02  0.75100930540E+01  0.40659140010E+02  0.00000000000E+00 0. -1.
         11    1    3    3    0    0 -0.13427945373E+01 -0.36667345544E+01  0.34757380691E+01  0.52276949842E+01  0.51100000000E-03 0. -1.
        -11    1    3    3    0    0  0.21907578041E+01 -0.42817466810E+01 -0.10860491077E+02  0.11877838233E+02  0.51100000000E-03 0.  1.
        -12    1    3    3    0    0  0.23635191745E+02 -0.23632197816E+02 -0.12534004639E+00  0.33423326773E+02  0.00000000000E+00 0.  1.
</event>
<event>
 7    1  0.4836188E-013  0.5052885E+02  0.7816164E-02  0.1300439E+00
        -11   -1    0    0    0    0  0.00000000000E+00  0.00000000000E+00  0.45593999997E+02  0.45594000000E+02  0.51100000000E-03 0.  1.
         11   -1    0    0    0    0 -0.00000000000E+00 -0.00000000000E+00 -0.45593999997E+02  0.45594000000E+02  0.51100000000E-03 0. -1.
    9900012    2    1    2    0    0  0.11967594587E+02  0.26379432508E+02  0.28531883597E+02  0.50528853904E+02  0.29999981928E+02 0.  0.
         12    1    1    2    0    0 -0.11967594587E+02 -0.26379432508E+02 -0.28531883597E+02  0.40659146096E+02  0.00000000000E+00 0. -1.
         11    1    3    3    0    0  0.42190292458E+01  0.10269796425E+02  0.12213070399E+02  0.16505393520E+02  0.51100000000E-03 0. -1.
        -11    1    3    3    0    0  0.59417642061E+01  0.91539142634E+00  0.17667983262E+02  0.18662800866E+02  0.51100000000E-03 0.  1.
         12    1    3    3    0    0  0.18068011351E+01  0.15194244656E+02 -0.13491700639E+01  0.15360659519E+02  0.00000000000E+00 0. -1.
</event>
<event>
 7    1  0.4836188E-013  0.5052882E+02  0.7816164E-02  0.1300439E+00
        -11   -1    0    0    0    0  0.00000000000E+00  0.00000000000E+00  0.45593999997E+02  0.45594000000E+02  0.51100000000E-03 0.  1.
         11   -1    0    0    0    0 -0.00000000000E+00 -0.00000000000E+00 -0.45593999997E+02  0.45594000000E+02  0.51100000000E-03 0. -1.
    9900012    2    1    2    0    0 -0.17626000495E+02 -0.33967197378E+02 -0.13737623340E+02  0.50528822854E+02  0.29999887547E+02 0.  0.
         12    1    1    2    0    0  0.17626000495E+02  0.33967197378E+02  0.13737623340E+02  0.40659177146E+02  0.00000000000E+00 0. -1.
         11    1    3    3    0    0  0.75360867335E+00 -0.27935445871E+00 -0.28145351566E+01  0.29270417412E+01  0.51100000000E-03 0. -1.
        -11    1    3    3    0    0 -0.52214764510E+01 -0.42850811893E+01  0.78197198336E+01  0.10333138713E+02  0.51100000000E-03 0.  1.
         12    1    3    3    0    0 -0.13158132718E+02 -0.29402761730E+02 -0.18742808017E+02  0.37268642400E+02  0.00000000000E+00 0. -1.
</event>
<event>
 7    1  0.4836188E-013  0.5052885E+02  0.7816164E-02  0.1300439E+00
        -11   -1    0    0    0    0  0.00000000000E+00  0.00000000000E+00  0.45593999997E+02  0.45594000000E+02  0.51100000000E-03 0.  1.
         11   -1    0    0    0    0 -0.00000000000E+00 -0.00000000000E+00 -0.45593999997E+02  0.45594000000E+02  0.51100000000E-03 0. -1.
    9900012    2    1    2    0    0  0.99485668773E+01 -0.19054960095E+02  0.34512331548E+02  0.50528849541E+02  0.29999968665E+02 0.  0.
         12    1    1    2    0    0 -0.99485668773E+01  0.19054960095E+02 -0.34512331548E+02  0.40659150459E+02  0.00000000000E+00 0. -1.
         11    1    3    3    0    0 -0.38297761448E+01  0.25809004698E+01  0.33136565046E+01  0.56840612459E+01  0.51100000000E-03 0. -1.
        -11    1    3    3    0    0 -0.22075717946E+01 -0.90926205887E+01  0.18910166827E+02  0.21098424872E+02  0.51100000000E-03 0.  1.
         12    1    3    3    0    0  0.15985914817E+02 -0.12543239977E+02  0.12288508216E+02  0.23746363423E+02  0.00000000000E+00 0. -1.
</event>
<event>
 7    1  0.4836188E-013  0.5052885E+02  0.7816164E-02  0.1300439E+00
        -11   -1    0    0    0    0  0.00000000000E+00  0.00000000000E+00  0.45593999997E+02  0.45594000000E+02  0.51100000000E-03 0.  1.
         11   -1    0    0    0    0 -0.00000000000E+00 -0.00000000000E+00 -0.45593999997E+02  0.45594000000E+02  0.51100000000E-03 0. -1.
    9900012    2    1    2    0    0 -0.82304683829E+00 -0.17338519340E+02  0.36767711339E+02  0.50528852737E+02  0.29999978380E+02 0.  0.
         12    1    1    2    0    0  0.82304683829E+00  0.17338519340E+02 -0.36767711339E+02  0.40659147263E+02  0.00000000000E+00 0. -1.
         11    1    3    3    0    0 -0.19534791087E+01 -0.10087687991E+02  0.23687615987E+01  0.10544598684E+02  0.51100000000E-03 0. -1.
        -11    1    3    3    0    0  0.73721355807E+01 -0.10730041940E+02  0.19307942237E+02  0.23286880786E+02  0.51100000000E-03 0.  1.
         12    1    3    3    0    0 -0.62417033102E+01  0.34792105912E+01  0.15091007504E+02  0.16697373267E+02  0.00000000000E+00 0. -1.
</event>
<event>
 7    1  0.4836188E-013  0.5052886E+02  0.7816164E-02  0.1300439E+00
        -11   -1    0    0    0    0  0.00000000000E+00  0.00000000000E+00  0.45593999997E+02  0.45594000000E+02  0.51100000000E-03 0.  1.
         11   -1    0    0    0    0 -0.00000000000E+00 -0.00000000000E+00 -0.45593999997E+02  0.45594000000E+02  0.51100000000E-03 0. -1.
    9900012    2    1    2    0    0  0.18513298436E+01 -0.61693326152E+01  0.40145706371E+02  0.50528858013E+02  0.29999994415E+02 0.  0.
         12    1    1    2    0    0 -0.18513298436E+01  0.61693326152E+01 -0.40145706371E+02  0.40659141987E+02  0.00000000000E+00 0. -1.
         11    1    3    3    0    0  0.22303586794E+00  0.39997788463E+01  0.35131468128E+01  0.53282432946E+01  0.51100000000E-03 0.  1.
        -11    1    3    3    0    0  0.26475967984E+01 -0.13514764122E+02  0.71608922391E+01  0.15522145341E+02  0.51100000000E-03 0. -1.
         12    1    3    3    0    0 -0.10193028228E+01  0.33456526605E+01  0.29471667319E+02  0.29678469377E+02  0.00000000000E+00 0. -1.
</event>
<event>
 7    1  0.4836188E-013  0.5052886E+02  0.7816164E-02  0.1300439E+00
        -11   -1    0    0    0    0  0.00000000000E+00  0.00000000000E+00  0.45593999997E+02  0.45594000000E+02  0.51100000000E-03 0. -1.
         11   -1    0    0    0    0 -0.00000000000E+00 -0.00000000000E+00 -0.45593999997E+02  0.45594000000E+02  0.51100000000E-03 0.  1.
    9900012    2    1    2    0    0 -0.17055566234E+02  0.40769746454E+01 -0.36683127956E+02  0.50528856644E+02  0.29999990256E+02 0.  0.
         12    1    1    2    0    0  0.17055566234E+02 -0.40769746454E+01  0.36683127956E+02  0.40659143356E+02  0.00000000000E+00 0. -1.
         11    1    3    3    0    0  0.20199381828E+01 -0.14768714052E+00 -0.25014803548E+01  0.32185968962E+01  0.51100000000E-03 0. -1.
        -11    1    3    3    0    0 -0.16568514044E+02  0.47390251213E+01 -0.38561799142E+02  0.42237262814E+02  0.51100000000E-03 0.  1.
         12    1    3    3    0    0 -0.25069903730E+01 -0.51436333529E+00  0.43801515408E+01  0.50729969339E+01  0.00000000000E+00 0. -1.
</event>
<event>
 7    1  0.4836188E-013  0.5052880E+02  0.7816164E-02  0.1300439E+00
        -11   -1    0    0    0    0  0.00000000000E+00  0.00000000000E+00  0.45593999997E+02  0.45594000000E+02  0.51100000000E-03 0.  1.
         11   -1    0    0    0    0 -0.00000000000E+00 -0.00000000000E+00 -0.45593999997E+02  0.45594000000E+02  0.51100000000E-03 0. -1.
    9900012    2    1    2    0    0  0.14380583951E+02 -0.24937978725E+02  0.28713531965E+02  0.50528795684E+02  0.29999804962E+02 0.  0.
         12    1    1    2    0    0 -0.14380583951E+02  0.24937978725E+02 -0.28713531965E+02  0.40659204316E+02  0.00000000000E+00 0. -1.
         11    1    3    3    0    0  0.17194575994E+02 -0.50474317367E+01  0.86036972529E+01  0.19878471205E+02  0.51100000000E-03 0. -1.
        -11    1    3    3    0    0 -0.28079927745E+01 -0.15557145133E+02  0.78562236876E+01  0.17653040503E+02  0.51100000000E-03 0.  1.
        -12    1    3    3    0    0 -0.59992683450E-02 -0.43334018551E+01  0.12253611025E+02  0.12997283977E+02  0.00000000000E+00 0.  1.
</event>
<event>
 7    1  0.4836188E-013  0.5052885E+02  0.7816164E-02  0.1300439E+00
        -11   -1    0    0    0    0  0.00000000000E+00  0.00000000000E+00  0.45593999997E+02  0.45594000000E+02  0.51100000000E-03 0.  1.
         11   -1    0    0    0    0 -0.00000000000E+00 -0.00000000000E+00 -0.45593999997E+02  0.45594000000E+02  0.51100000000E-03 0. -1.
    9900012    2    1    2    0    0  0.32706274288E+02  0.72183624527E+01  0.23051271136E+02  0.50528852994E+02  0.29999979159E+02 0.  0.
         12    1    1    2    0    0 -0.32706274288E+02 -0.72183624527E+01 -0.23051271136E+02  0.40659147006E+02  0.00000000000E+00 0. -1.
         11    1    3    3    0    0  0.36703186137E+00  0.37413781367E+01 -0.10786073114E+01  0.39110122401E+01  0.51100000000E-03 0. -1.
        -11    1    3    3    0    0  0.15251704408E+02  0.92041969011E+01  0.17731343373E+01  0.17901836040E+02  0.51100000000E-03 0.  1.
         12    1    3    3    0    0  0.17087538018E+02 -0.57272125851E+01  0.22356744110E+02  0.28716004714E+02  0.00000000000E+00 0. -1.
</event>
<event>
 7    1  0.4836188E-013  0.5052886E+02  0.7816164E-02  0.1300439E+00
        -11   -1    0    0    0    0  0.00000000000E+00  0.00000000000E+00  0.45593999997E+02  0.45594000000E+02  0.51100000000E-03 0.  1.
         11   -1    0    0    0    0 -0.00000000000E+00 -0.00000000000E+00 -0.45593999997E+02  0.45594000000E+02  0.51100000000E-03 0. -1.
    9900012    2    1    2    0    0  0.71598717045E+01  0.18051152862E+02  0.35721950250E+02  0.50528860657E+02  0.30000002452E+02 0.  0.
         12    1    1    2    0    0 -0.71598717045E+01 -0.18051152862E+02 -0.35721950250E+02  0.40659139343E+02  0.00000000000E+00 0. -1.
         11    1    3    3    0    0 -0.16681162971E+01  0.68618765242E+01  0.52998793172E+01  0.88293081525E+01  0.51100000000E-03 0. -1.
        -11    1    3    3    0    0 -0.75456666670E+01  0.85659387037E+01  0.86026887178E+01  0.14294007302E+02  0.51100000000E-03 0.  1.
         12    1    3    3    0    0  0.16373654669E+02  0.26233376344E+01  0.21819382215E+02  0.27405545202E+02  0.00000000000E+00 0. -1.
</event>
<event>
 7    1  0.4836188E-013  0.5052889E+02  0.7816164E-02  0.1300439E+00
        -11   -1    0    0    0    0  0.00000000000E+00  0.00000000000E+00  0.45593999997E+02  0.45594000000E+02  0.51100000000E-03 0.  1.
         11   -1    0    0    0    0 -0.00000000000E+00 -0.00000000000E+00 -0.45593999997E+02  0.45594000000E+02  0.51100000000E-03 0. -1.
    9900012    2    1    2    0    0 -0.47095730807E+01  0.26087765962E+02  0.30828749481E+02  0.50528887786E+02  0.30000084914E+02 0.  0.
         12    1    1    2    0    0  0.47095730807E+01 -0.26087765962E+02 -0.30828749481E+02  0.40659112214E+02  0.00000000000E+00 0. -1.
         11    1    3    3    0    0 -0.39004640143E+01  0.24284426570E+02  0.16166151167E+02  0.29432829242E+02  0.51100000000E-03 0. -1.
        -11    1    3    3    0    0 -0.71172967670E+01  0.31723133566E+01  0.11542414794E+02  0.13926479270E+02  0.51100000000E-03 0.  1.
         12    1    3    3    0    0  0.63081877006E+01 -0.13689739644E+01  0.31201835194E+01  0.71695792747E+01  0.00000000000E+00 0. -1.
</event>
<event>
 7    1  0.4836188E-013  0.5052888E+02  0.7816164E-02  0.1300439E+00
        -11   -1    0    0    0    0  0.00000000000E+00  0.00000000000E+00  0.45593999997E+02  0.45594000000E+02  0.51100000000E-03 0.  1.
         11   -1    0    0    0    0 -0.00000000000E+00 -0.00000000000E+00 -0.45593999997E+02  0.45594000000E+02  0.51100000000E-03 0. -1.
    9900012    2    1    2    0    0  0.30375644159E+02  0.24523672068E+02  0.11361078572E+02  0.50528876103E+02  0.30000049402E+02 0.  0.
         12    1    1    2    0    0 -0.30375644159E+02 -0.24523672068E+02 -0.11361078572E+02  0.40659123897E+02  0.00000000000E+00 0. -1.
         11    1    3    3    0    0  0.21308299341E+02  0.72902145886E+00  0.78278830995E+01  0.22712350102E+02  0.51100000000E-03 0. -1.
        -11    1    3    3    0    0 -0.19738669002E-01 -0.10462572656E+01  0.59303141199E+00  0.12028010631E+01  0.51100000000E-03 0.  1.
        -12    1    3    3    0    0  0.90870834873E+01  0.24840907875E+02  0.29401640610E+01  0.26613724937E+02  0.00000000000E+00 0.  1.
</event>
<event>
 7    1  0.4836188E-013  0.5052886E+02  0.7816164E-02  0.1300439E+00
        -11   -1    0    0    0    0  0.00000000000E+00  0.00000000000E+00  0.45593999997E+02  0.45594000000E+02  0.51100000000E-03 0.  1.
         11   -1    0    0    0    0 -0.00000000000E+00 -0.00000000000E+00 -0.45593999997E+02  0.45594000000E+02  0.51100000000E-03 0. -1.
    9900012    2    1    2    0    0 -0.23089117104E+01 -0.16776546966E+02  0.36964600859E+02  0.50528864273E+02  0.30000013445E+02 0.  0.
         12    1    1    2    0    0  0.23089117104E+01  0.16776546966E+02 -0.36964600859E+02  0.40659135727E+02  0.00000000000E+00 0. -1.
         11    1    3    3    0    0  0.80317376383E+01 -0.60031339691E+01  0.85157308183E+01  0.13155382874E+02  0.51100000000E-03 0. -1.
        -11    1    3    3    0    0 -0.16479254809E+01  0.54166590040E+01  0.47882636043E+01  0.74150739552E+01  0.51100000000E-03 0.  1.
        -12    1    3    3    0    0 -0.86927238678E+01 -0.16190072001E+02  0.23660606436E+02  0.29958407444E+02  0.00000000000E+00 0.  1.
</event>
<event>
 7    1  0.4836188E-013  0.5052887E+02  0.7816164E-02  0.1300439E+00
        -11   -1    0    0    0    0  0.00000000000E+00  0.00000000000E+00  0.45593999997E+02  0.45594000000E+02  0.51100000000E-03 0. -1.
         11   -1    0    0    0    0 -0.00000000000E+00 -0.00000000000E+00 -0.45593999997E+02  0.45594000000E+02  0.51100000000E-03 0.  1.
    9900012    2    1    2    0    0  0.37492434130E+02  0.63842385282E+01 -0.14377898050E+02  0.50528867312E+02  0.30000022681E+02 0.  0.
         12    1    1    2    0    0 -0.37492434130E+02 -0.63842385282E+01  0.14377898050E+02  0.40659132688E+02  0.00000000000E+00 0. -1.
         11    1    3    3    0    0  0.16508713568E+02 -0.57773852490E+01 -0.47914147137E+01  0.18134868602E+02  0.51100000000E-03 0. -1.
        -11    1    3    3    0    0  0.78747485559E+01  0.32085454718E+01 -0.13582033127E+02  0.16024295709E+02  0.51100000000E-03 0.  1.
         12    1    3    3    0    0  0.13108972006E+02  0.89530783054E+01  0.39955497902E+01  0.16369703001E+02  0.00000000000E+00 0. -1.
</event>
<event>
 7    1  0.8402185E-013  0.5052886E+02  0.7816164E-02  0.1300439E+00
        -11   -1    0    0    0    0  0.00000000000E+00  0.00000000000E+00  0.45593999997E+02  0.45594000000E+02  0.51100000000E-03 0. -1.
         11   -1    0    0    0    0 -0.00000000000E+00 -0.00000000000E+00 -0.45593999997E+02  0.45594000000E+02  0.51100000000E-03 0.  1.
    9900012    2    1    2    0    0  0.12047823342E+02 -0.32298264177E+02 -0.21560089056E+02  0.50528863804E+02  0.30000012017E+02 0.  0.
         12    1    1    2    0    0 -0.12047823342E+02  0.32298264177E+02  0.21560089056E+02  0.40659136196E+02  0.00000000000E+00 0. -1.
         11    1    3    3    0    0 -0.57725805292E+01 -0.41196492442E+01  0.10386307878E+01  0.71674925906E+01  0.51100000000E-03 0. -1.
        -11    1    3    3    0    0  0.92608623083E+01 -0.12673514769E+02 -0.14310296357E+01  0.15761643105E+02  0.51100000000E-03 0.  1.
        -12    1    3    3    0    0  0.85595415632E+01 -0.15505100163E+02 -0.21167690209E+02  0.27599728108E+02  0.00000000000E+00 0.  1.
</event>
<event>
 7    1  0.4836188E-013  0.5052886E+02  0.7816164E-02  0.1300439E+00
        -11   -1    0    0    0    0  0.00000000000E+00  0.00000000000E+00  0.45593999997E+02  0.45594000000E+02  0.51100000000E-03 0.  1.
         11   -1    0    0    0    0 -0.00000000000E+00 -0.00000000000E+00 -0.45593999997E+02  0.45594000000E+02  0.51100000000E-03 0. -1.
    9900012    2    1    2    0    0 -0.25949976262E+02 -0.19456876271E+02  0.24519262249E+02  0.50528861747E+02  0.30000005767E+02 0.  0.
         12    1    1    2    0    0  0.25949976262E+02  0.19456876271E+02 -0.24519262249E+02  0.40659138253E+02  0.00000000000E+00 0. -1.
         11    1    3    3    0    0 -0.70715724173E+01  0.35063793535E+01 -0.10926834075E+01  0.79684245566E+01  0.51100000000E-03 0. -1.
        -11    1    3    3    0    0 -0.13644461785E+02 -0.42409303258E+01  0.82687759338E+01  0.16508467014E+02  0.51100000000E-03 0.  1.
         12    1    3    3    0    0 -0.52339420589E+01 -0.18722325299E+02  0.17343169722E+02  0.26051970177E+02  0.00000000000E+00 0. -1.
</event>
<event>
 7    1  0.4836188E-013  0.5052887E+02  0.7816164E-02  0.1300439E+00
        -11   -1    0    0    0    0  0.00000000000E+00  0.00000000000E+00  0.45593999997E+02  0.45594000000E+02  0.51100000000E-03 0. -1.
         11   -1    0    0    0    0 -0.00000000000E+00 -0.00000000000E+00 -0.45593999997E+02  0.45594000000E+02  0.51100000000E-03 0.  1.
    9900012    2    1    2    0    0 -0.17908870176E+02 -0.34095467857E+02 -0.13035951459E+02  0.50528873229E+02  0.30000040666E+02 0.  0.
         12    1    1    2    0    0  0.17908870176E+02  0.34095467857E+02  0.13035951459E+02  0.40659126771E+02  0.00000000000E+00 0. -1.
         11    1    3    3    0    0 -0.48545761872E+01  0.34329996484E+01 -0.23158268443E+01  0.63808659896E+01  0.51100000000E-03 0. -1.
        -11    1    3    3    0    0 -0.81863099281E+01 -0.26228711393E+02 -0.14770148568E+02  0.31194843493E+02  0.51100000000E-03 0.  1.
         12    1    3    3    0    0 -0.48679840605E+01 -0.11299756113E+02  0.40500239533E+01  0.12953163747E+02  0.00000000000E+00 0. -1.
</event>
<event>
 7    1  0.4836188E-013  0.5052886E+02  0.7816164E-02  0.1300439E+00
        -11   -1    0    0    0    0  0.00000000000E+00  0.00000000000E+00  0.45593999997E+02  0.45594000000E+02  0.51100000000E-03 0.  1.
         11   -1    0    0    0    0 -0.00000000000E+00 -0.00000000000E+00 -0.45593999997E+02  0.45594000000E+02  0.51100000000E-03 0. -1.
    9900012    2    1    2    0    0 -0.59398793164E+01 -0.38554832799E+02 -0.11463354681E+02  0.50528858359E+02  0.29999995467E+02 0.  0.
         12    1    1    2    0    0  0.59398793164E+01  0.38554832799E+02  0.11463354681E+02  0.40659141641E+02  0.00000000000E+00 0. -1.
         11    1    3    3    0    0 -0.52617128607E+01  0.10780006786E+01 -0.43962995216E+01  0.69408326184E+01  0.51100000000E-03 0. -1.
        -11    1    3    3    0    0  0.35425410185E+01 -0.55869961864E+01  0.37653965287E+01  0.76119862411E+01  0.51100000000E-03 0.  1.
        -12    1    3    3    0    0 -0.42207074741E+01 -0.34045837292E+02 -0.10832451688E+02  0.35976039499E+02  0.00000000000E+00 0.  1.
</event>
<event>
 7    1  0.4836188E-013  0.5052887E+02  0.7816164E-02  0.1300439E+00
        -11   -1    0    0    0    0  0.00000000000E+00  0.00000000000E+00  0.45593999997E+02  0.45594000000E+02  0.51100000000E-03 0.  1.
         11   -1    0    0    0    0 -0.00000000000E+00 -0.00000000000E+00 -0.45593999997E+02  0.45594000000E+02  0.51100000000E-03 0. -1.
    9900012    2    1    2    0    0  0.22192642535E+02  0.13019180058E+02  0.31482571099E+02  0.50528871688E+02  0.30000035983E+02 0.  0.
         12    1    1    2    0    0 -0.22192642535E+02 -0.13019180058E+02 -0.31482571099E+02  0.40659128312E+02  0.00000000000E+00 0. -1.
         11    1    3    3    0    0 -0.14470996448E+01  0.12753139601E+01  0.84337826216E+01  0.86515439459E+01  0.51100000000E-03 0. -1.
        -11    1    3    3    0    0  0.38371060074E+01  0.10862330396E+02  0.18085874466E+02  0.21443238086E+02  0.51100000000E-03 0.  1.
        -12    1    3    3    0    0  0.19802636173E+02  0.88153570138E+00  0.49629140112E+01  0.20434089656E+02  0.00000000000E+00 0.  1.
</event>
<event>
 7    1  0.4836188E-013  0.5052889E+02  0.7816164E-02  0.1300439E+00
        -11   -1    0    0    0    0  0.00000000000E+00  0.00000000000E+00  0.45593999997E+02  0.45594000000E+02  0.51100000000E-03 0. -1.
         11   -1    0    0    0    0 -0.00000000000E+00 -0.00000000000E+00 -0.45593999997E+02  0.45594000000E+02  0.51100000000E-03 0.  1.
    9900012    2    1    2    0    0  0.33183541170E+02 -0.22996905289E+02 -0.48122794382E+01  0.50528891662E+02  0.30000096695E+02 0.  0.
         12    1    1    2    0    0 -0.33183541170E+02  0.22996905289E+02  0.48122794382E+01  0.40659108338E+02  0.00000000000E+00 0. -1.
         11    1    3    3    0    0  0.11505024026E+02 -0.11643509073E+02  0.89396466911E+01  0.18650848897E+02  0.51100000000E-03 0. -1.
        -11    1    3    3    0    0  0.67237216761E+01  0.26391553131E+01 -0.25117463840E-01  0.72231714013E+01  0.51100000000E-03 0.  1.
        -12    1    3    3    0    0  0.14954795468E+02 -0.13992551529E+02 -0.13726808665E+02  0.24654871363E+02  0.00000000000E+00 0.  1.
</event>
<event>
 7    1  0.4836188E-013  0.5052886E+02  0.7816164E-02  0.1300439E+00
        -11   -1    0    0    0    0  0.00000000000E+00  0.00000000000E+00  0.45593999997E+02  0.45594000000E+02  0.51100000000E-03 0.  1.
         11   -1    0    0    0    0 -0.00000000000E+00 -0.00000000000E+00 -0.45593999997E+02  0.45594000000E+02  0.51100000000E-03 0. -1.
    9900012    2    1    2    0    0  0.11678213486E+02 -0.91657747663E+01  0.37851998104E+02  0.50528857636E+02  0.29999993271E+02 0.  0.
         12    1    1    2    0    0 -0.11678213486E+02  0.91657747663E+01 -0.37851998104E+02  0.40659142364E+02  0.00000000000E+00 0. -1.
         11    1    3    3    0    0 -0.12728689603E+01  0.40314233886E+01 -0.10076158914E+01  0.43460165640E+01  0.51100000000E-03 0. -1.
        -11    1    3    3    0    0 -0.74787248949E-02 -0.67125065034E+01  0.25856060461E+02  0.26713173947E+02  0.51100000000E-03 0.  1.
        -12    1    3    3    0    0  0.12958561172E+02 -0.64846916515E+01  0.13003553534E+02  0.19469667125E+02  0.00000000000E+00 0.  1.
</event>
<event>
 7    1  0.4836188E-013  0.5052886E+02  0.7816164E-02  0.1300439E+00
        -11   -1    0    0    0    0  0.00000000000E+00  0.00000000000E+00  0.45593999997E+02  0.45594000000E+02  0.51100000000E-03 0.  1.
         11   -1    0    0    0    0 -0.00000000000E+00 -0.00000000000E+00 -0.45593999997E+02  0.45594000000E+02  0.51100000000E-03 0. -1.
    9900012    2    1    2    0    0  0.88787278921E+01 -0.20185739207E+02  0.34159477076E+02  0.50528858956E+02  0.29999997283E+02 0.  0.
         12    1    1    2    0    0 -0.88787278921E+01  0.20185739207E+02 -0.34159477076E+02  0.40659141044E+02  0.00000000000E+00 0. -1.
         11    1    3    3    0    0 -0.71120461855E+00  0.15447535508E+00  0.14220058505E+02  0.14238670542E+02  0.51100000000E-03 0. -1.
        -11    1    3    3    0    0  0.59202682222E+01 -0.22639430820E-01  0.13372897640E+02  0.14624789910E+02  0.51100000000E-03 0.  1.
         12    1    3    3    0    0  0.36696642884E+01 -0.20317575131E+02  0.65665209311E+01  0.21665398504E+02  0.00000000000E+00 0. -1.
</event>
<event>
 7    1  0.4836188E-013  0.5052886E+02  0.7816164E-02  0.1300439E+00
        -11   -1    0    0    0    0  0.00000000000E+00  0.00000000000E+00  0.45593999997E+02  0.45594000000E+02  0.51100000000E-03 0. -1.
         11   -1    0    0    0    0 -0.00000000000E+00 -0.00000000000E+00 -0.45593999997E+02  0.45594000000E+02  0.51100000000E-03 0.  1.
    9900012    2    1    2    0    0  0.38419563381E+02  0.13020075998E+02 -0.27532374771E+01  0.50528861471E+02  0.30000004926E+02 0.  0.
         12    1    1    2    0    0 -0.38419563381E+02 -0.13020075998E+02  0.27532374771E+01  0.40659138529E+02  0.00000000000E+00 0. -1.
         11    1    3    3    0    0  0.97435161932E+01  0.48534654390E+01 -0.47932179788E+01  0.11893997370E+02  0.51100000000E-03 0. -1.
        -11    1    3    3    0    0  0.18026527943E+02  0.13805507995E+02 -0.67860408251E+01  0.23698061335E+02  0.51100000000E-03 0.  1.
         12    1    3    3    0    0  0.10649519244E+02 -0.56388974353E+01  0.88260213269E+01  0.14936802766E+02  0.00000000000E+00 0. -1.
</event>
<event>
 7    1  0.4836188E-013  0.5052886E+02  0.7816164E-02  0.1300439E+00
        -11   -1    0    0    0    0  0.00000000000E+00  0.00000000000E+00  0.45593999997E+02  0.45594000000E+02  0.51100000000E-03 0.  1.
         11   -1    0    0    0    0 -0.00000000000E+00 -0.00000000000E+00 -0.45593999997E+02  0.45594000000E+02  0.51100000000E-03 0. -1.
    9900012    2    1    2    0    0 -0.38068271009E+01 -0.26689944279E+02  0.30435513280E+02  0.50528861706E+02  0.30000005642E+02 0.  0.
         12    1    1    2    0    0  0.38068271009E+01  0.26689944279E+02 -0.30435513280E+02  0.40659138294E+02  0.00000000000E+00 0. -1.
         11    1    3    3    0    0 -0.92487414299E+00  0.35824181092E+01  0.61275810776E+00  0.37502779163E+01  0.51100000000E-03 0. -1.
        -11    1    3    3    0    0  0.36509269875E+01  0.65294226321E+00  0.64924388368E+00  0.37652515652E+01  0.51100000000E-03 0.  1.
        -12    1    3    3    0    0 -0.65328799454E+01 -0.30925304651E+02  0.29173511289E+02  0.43013332225E+02  0.00000000000E+00 0.  1.
</event>
<event>
 7    1  0.4836188E-013  0.5052886E+02  0.7816164E-02  0.1300439E+00
        -11   -1    0    0    0    0  0.00000000000E+00  0.00000000000E+00  0.45593999997E+02  0.45594000000E+02  0.51100000000E-03 0.  1.
         11   -1    0    0    0    0 -0.00000000000E+00 -0.00000000000E+00 -0.45593999997E+02  0.45594000000E+02  0.51100000000E-03 0. -1.
    9900012    2    1    2    0    0 -0.26506925158E+02  0.23747025661E+02  0.19662839557E+02  0.50528861193E+02  0.30000004081E+02 0.  0.
         12    1    1    2    0    0  0.26506925158E+02 -0.23747025661E+02 -0.19662839557E+02  0.40659138807E+02  0.00000000000E+00 0. -1.
         11    1    3    3    0    0 -0.12033520092E+02  0.19567555248E+02  0.16882965485E+02  0.28508408374E+02  0.51100000000E-03 0.  1.
        -11    1    3    3    0    0 -0.15924243044E+02  0.14891271090E+01  0.64489978393E+01  0.17244958378E+02  0.51100000000E-03 0. -1.
        -12    1    3    3    0    0  0.14508379772E+01  0.26903433046E+01 -0.36691237677E+01  0.47754944409E+01  0.00000000000E+00 0.  1.
</event>
<event>
 7    1  0.4836188E-013  0.5052881E+02  0.7816164E-02  0.1300439E+00
        -11   -1    0    0    0    0  0.00000000000E+00  0.00000000000E+00  0.45593999997E+02  0.45594000000E+02  0.51100000000E-03 0.  1.
         11   -1    0    0    0    0 -0.00000000000E+00 -0.00000000000E+00 -0.45593999997E+02  0.45594000000E+02  0.51100000000E-03 0. -1.
    9900012    2    1    2    0    0  0.43061531405E+00 -0.33606280800E+02  0.22882348364E+02  0.50528814009E+02  0.29999860662E+02 0.  0.
         12    1    1    2    0    0 -0.43061531405E+00  0.33606280800E+02 -0.22882348364E+02  0.40659185991E+02  0.00000000000E+00 0. -1.
         11    1    3    3    0    0 -0.17286595448E+01  0.14530288023E+01  0.91628505736E+01  0.94370221689E+01  0.51100000000E-03 0. -1.
        -11    1    3    3    0    0  0.35799267533E+01 -0.10519409590E+01 -0.12126842808E+01  0.39233988793E+01  0.51100000000E-03 0.  1.
        -12    1    3    3    0    0 -0.14206518944E+01 -0.34007368644E+02  0.14932182071E+02  0.37168392961E+02  0.00000000000E+00 0.  1.
</event>
<event>
 7    1  0.4836188E-013  0.5052886E+02  0.7816164E-02  0.1300439E+00
        -11   -1    0    0    0    0  0.00000000000E+00  0.00000000000E+00  0.45593999997E+02  0.45594000000E+02  0.51100000000E-03 0.  1.
         11   -1    0    0    0    0 -0.00000000000E+00 -0.00000000000E+00 -0.45593999997E+02  0.45594000000E+02  0.51100000000E-03 0. -1.
    9900012    2    1    2    0    0 -0.19893307795E+02  0.14668929828E+02  0.32283815547E+02  0.50528856581E+02  0.29999990065E+02 0.  0.
         12    1    1    2    0    0  0.19893307795E+02 -0.14668929828E+02 -0.32283815547E+02  0.40659143419E+02  0.00000000000E+00 0. -1.
         11    1    3    3    0    0  0.36746845416E+01 -0.22606884377E+01  0.44870941584E+01  0.62247917989E+01  0.51100000000E-03 0. -1.
        -11    1    3    3    0    0 -0.10520892242E+02 -0.22095601162E+01  0.12774382413E+02  0.16695992806E+02  0.51100000000E-03 0.  1.
         12    1    3    3    0    0 -0.13047100094E+02  0.19139178381E+02  0.15022338975E+02  0.27608071976E+02  0.00000000000E+00 0. -1.
</event>
<event>
 7    1  0.4836188E-013  0.5052885E+02  0.7816164E-02  0.1300439E+00
        -11   -1    0    0    0    0  0.00000000000E+00  0.00000000000E+00  0.45593999997E+02  0.45594000000E+02  0.51100000000E-03 0.  1.
         11   -1    0    0    0    0 -0.00000000000E+00 -0.00000000000E+00 -0.45593999997E+02  0.45594000000E+02  0.51100000000E-03 0. -1.
    9900012    2    1    2    0    0 -0.25941577263E+01  0.56946232489E+01  0.40174716819E+02  0.50528852693E+02  0.29999978245E+02 0.  0.
         12    1    1    2    0    0  0.25941577263E+01 -0.56946232489E+01 -0.40174716819E+02  0.40659147307E+02  0.00000000000E+00 0. -1.
         11    1    3    3    0    0  0.82584982243E+01  0.62132972334E+01  0.49566319038E+01  0.11461939431E+02  0.51100000000E-03 0. -1.
        -11    1    3    3    0    0  0.79013436768E+00  0.40968654047E+01  0.11702952560E+02  0.12424480566E+02  0.51100000000E-03 0.  1.
         12    1    3    3    0    0 -0.11642790318E+02 -0.46155393892E+01  0.23515132355E+02  0.26642432696E+02  0.00000000000E+00 0. -1.
</event>
<event>
 7    1  0.4836188E-013  0.5052887E+02  0.7816164E-02  0.1300439E+00
        -11   -1    0    0    0    0  0.00000000000E+00  0.00000000000E+00  0.45593999997E+02  0.45594000000E+02  0.51100000000E-03 0. -1.
         11   -1    0    0    0    0 -0.00000000000E+00 -0.00000000000E+00 -0.45593999997E+02  0.45594000000E+02  0.51100000000E-03 0.  1.
    9900012    2    1    2    0    0 -0.29373831521E+02 -0.15645363361E+02 -0.23357335461E+02  0.50528874422E+02  0.30000044292E+02 0.  0.
         12    1    1    2    0    0  0.29373831521E+02  0.15645363361E+02  0.23357335461E+02  0.40659125578E+02  0.00000000000E+00 0. -1.
         11    1    3    3    0    0 -0.80790961081E+01 -0.12340863643E+02 -0.43867403334E+01  0.15388703662E+02  0.51100000000E-03 0. -1.
        -11    1    3    3    0    0 -0.62842810407E+01  0.32945091713E+00  0.40028167957E+01  0.74581008753E+01  0.51100000000E-03 0.  1.
        -12    1    3    3    0    0 -0.15010454373E+02 -0.36339506352E+01 -0.22973411923E+02  0.27682069885E+02  0.00000000000E+00 0.  1.
</event>
<event>
 7    1  0.4836188E-013  0.5052886E+02  0.7816164E-02  0.1300439E+00
        -11   -1    0    0    0    0  0.00000000000E+00  0.00000000000E+00  0.45593999997E+02  0.45594000000E+02  0.51100000000E-03 0. -1.
         11   -1    0    0    0    0 -0.00000000000E+00 -0.00000000000E+00 -0.45593999997E+02  0.45594000000E+02  0.51100000000E-03 0.  1.
    9900012    2    1    2    0    0  0.32189379631E+02  0.21318152095E+02 -0.12749345795E+02  0.50528860953E+02  0.30000003354E+02 0.  0.
         12    1    1    2    0    0 -0.32189379631E+02 -0.21318152095E+02  0.12749345795E+02  0.40659139047E+02  0.00000000000E+00 0. -1.
         11    1    3    3    0    0  0.67573032082E+01  0.15764280307E+02 -0.33427708564E+01  0.17474203773E+02  0.51100000000E-03 0. -1.
        -11    1    3    3    0    0  0.12553903193E+02  0.10305757029E+00  0.44964934693E+01  0.13335275026E+02  0.51100000000E-03 0.  1.
        -12    1    3    3    0    0  0.12878173230E+02  0.54508142180E+01 -0.13903068408E+02  0.19719382154E+02  0.00000000000E+00 0.  1.
</event>
<event>
 7    1  0.4836188E-013  0.5052886E+02  0.7816164E-02  0.1300439E+00
        -11   -1    0    0    0    0  0.00000000000E+00  0.00000000000E+00  0.45593999997E+02  0.45594000000E+02  0.51100000000E-03 0.  1.
         11   -1    0    0    0    0 -0.00000000000E+00 -0.00000000000E+00 -0.45593999997E+02  0.45594000000E+02  0.51100000000E-03 0. -1.
    9900012    2    1    2    0    0 -0.33839380887E+02 -0.17576488387E+02  0.14111315022E+02  0.50528857676E+02  0.29999993393E+02 0.  0.
         12    1    1    2    0    0  0.33839380887E+02  0.17576488387E+02 -0.14111315022E+02  0.40659142324E+02  0.00000000000E+00 0. -1.
         11    1    3    3    0    0 -0.35153648070E+01 -0.12259802289E+02  0.30055117245E+01  0.13103192087E+02  0.51100000000E-03 0. -1.
        -11    1    3    3    0    0 -0.10586622720E+02 -0.51673267665E+01 -0.41385314405E+01  0.12486203958E+02  0.51100000000E-03 0.  1.
         12    1    3    3    0    0 -0.19737393360E+02 -0.14935933213E+00  0.15244334737E+02  0.24939461631E+02  0.00000000000E+00 0. -1.
</event>
<event>
 7    1  0.4836188E-013  0.5052886E+02  0.7816164E-02  0.1300439E+00
        -11   -1    0    0    0    0  0.00000000000E+00  0.00000000000E+00  0.45593999997E+02  0.45594000000E+02  0.51100000000E-03 0. -1.
         11   -1    0    0    0    0 -0.00000000000E+00 -0.00000000000E+00 -0.45593999997E+02  0.45594000000E+02  0.51100000000E-03 0.  1.
    9900012    2    1    2    0    0  0.31556797723E+01  0.27656113505E+02 -0.29636911192E+02  0.50528862847E+02  0.30000009109E+02 0.  0.
         12    1    1    2    0    0 -0.31556797723E+01 -0.27656113505E+02  0.29636911192E+02  0.40659137153E+02  0.00000000000E+00 0. -1.
         11    1    3    3    0    0  0.69486082909E+01  0.34320632186E+01 -0.46851976803E+01  0.90561190740E+01  0.51100000000E-03 0. -1.
        -11    1    3    3    0    0  0.13904076211E+01  0.26242078352E+02 -0.15510537429E+02  0.30514860006E+02  0.51100000000E-03 0.  1.
        -12    1    3    3    0    0 -0.51833361397E+01 -0.20180280663E+01 -0.94411760827E+01  0.10957883766E+02  0.00000000000E+00 0.  1.
</event>
<event>
 7    1  0.4836188E-013  0.5052887E+02  0.7816164E-02  0.1300439E+00
        -11   -1    0    0    0    0  0.00000000000E+00  0.00000000000E+00  0.45593999997E+02  0.45594000000E+02  0.51100000000E-03 0. -1.
         11   -1    0    0    0    0 -0.00000000000E+00 -0.00000000000E+00 -0.45593999997E+02  0.45594000000E+02  0.51100000000E-03 0.  1.
    9900012    2    1    2    0    0  0.29372144523E+02  0.17046201786E+02 -0.22357755846E+02  0.50528866761E+02  0.30000021008E+02 0.  0.
         12    1    1    2    0    0 -0.29372144523E+02 -0.17046201786E+02  0.22357755846E+02  0.40659133239E+02  0.00000000000E+00 0. -1.
         11    1    3    3    0    0 -0.24387033357E+00 -0.46865958685E+01 -0.17240269960E+00  0.46961022696E+01  0.51100000000E-03 0. -1.
        -11    1    3    3    0    0  0.32236111154E+01  0.89058021800E+01 -0.76517002195E+00  0.95021295779E+01  0.51100000000E-03 0.  1.
         12    1    3    3    0    0  0.26392403741E+02  0.12826995475E+02 -0.21420183125E+02  0.36330634914E+02  0.00000000000E+00 0. -1.
</event>
<event>
 7    1  0.4836188E-013  0.5052886E+02  0.7816164E-02  0.1300439E+00
        -11   -1    0    0    0    0  0.00000000000E+00  0.00000000000E+00  0.45593999997E+02  0.45594000000E+02  0.51100000000E-03 0.  1.
         11   -1    0    0    0    0 -0.00000000000E+00 -0.00000000000E+00 -0.45593999997E+02  0.45594000000E+02  0.51100000000E-03 0. -1.
    9900012    2    1    2    0    0 -0.81809269632E+01 -0.37275864394E+02  0.14026699273E+02  0.50528856812E+02  0.29999990765E+02 0.  0.
         12    1    1    2    0    0  0.81809269632E+01  0.37275864394E+02 -0.14026699273E+02  0.40659143188E+02  0.00000000000E+00 0. -1.
         11    1    3    3    0    0  0.58227409533E+01 -0.76676059971E+01  0.13197983171E+02  0.16336561878E+02  0.51100000000E-03 0. -1.
        -11    1    3    3    0    0 -0.14488282856E+01 -0.70008371026E+00 -0.19791054058E+01  0.25507016821E+01  0.51100000000E-03 0.  1.
        -12    1    3    3    0    0 -0.12554839631E+02 -0.28908174687E+02  0.28078215075E+01  0.31641593252E+02  0.00000000000E+00 0.  1.
</event>
<event>
 7    1  0.4836188E-013  0.5052886E+02  0.7816164E-02  0.1300439E+00
        -11   -1    0    0    0    0  0.00000000000E+00  0.00000000000E+00  0.45593999997E+02  0.45594000000E+02  0.51100000000E-03 0.  1.
         11   -1    0    0    0    0 -0.00000000000E+00 -0.00000000000E+00 -0.45593999997E+02  0.45594000000E+02  0.51100000000E-03 0. -1.
    9900012    2    1    2    0    0  0.40372046662E+02  0.32728578951E+01  0.35429091085E+01  0.50528856435E+02  0.29999989621E+02 0.  0.
         12    1    1    2    0    0 -0.40372046662E+02 -0.32728578951E+01 -0.35429091085E+01  0.40659143565E+02  0.00000000000E+00 0. -1.
         11    1    3    3    0    0  0.32390165874E+02  0.25260714273E+01  0.42936794559E+00  0.32491356378E+02  0.51100000000E-03 0.  1.
        -11    1    3    3    0    0  0.95158978165E+01 -0.38653337013E+01  0.64624773497E+01  0.12134938386E+02  0.51100000000E-03 0. -1.
         12    1    3    3    0    0 -0.15340170288E+01  0.46121201692E+01 -0.33489361868E+01  0.59025616712E+01  0.00000000000E+00 0. -1.
</event>
<event>
 7    1  0.4836188E-013  0.5052886E+02  0.7816164E-02  0.1300439E+00
        -11   -1    0    0    0    0  0.00000000000E+00  0.00000000000E+00  0.45593999997E+02  0.45594000000E+02  0.51100000000E-03 0.  1.
         11   -1    0    0    0    0 -0.00000000000E+00 -0.00000000000E+00 -0.45593999997E+02  0.45594000000E+02  0.51100000000E-03 0. -1.
    9900012    2    1    2    0    0  0.11482592894E+02 -0.34420728960E+02 -0.18344733267E+02  0.50528858834E+02  0.29999996912E+02 0.  0.
         12    1    1    2    0    0 -0.11482592894E+02  0.34420728960E+02  0.18344733267E+02  0.40659141166E+02  0.00000000000E+00 0. -1.
         11    1    3    3    0    0 -0.25436525436E+01  0.20044753909E+01 -0.17148296210E+01  0.36645232631E+01  0.51100000000E-03 0. -1.
        -11    1    3    3    0    0  0.14019856845E+02 -0.17530362370E+02 -0.16685858849E+02  0.27969409657E+02  0.51100000000E-03 0.  1.
         12    1    3    3    0    0  0.63885927061E-02 -0.18894841981E+02  0.55955202686E-01  0.18894925914E+02  0.00000000000E+00 0. -1.
</event>
<event>
 7    1  0.4836188E-013  0.5052886E+02  0.7816164E-02  0.1300439E+00
        -11   -1    0    0    0    0  0.00000000000E+00  0.00000000000E+00  0.45593999997E+02  0.45594000000E+02  0.51100000000E-03 0.  1.
         11   -1    0    0    0    0 -0.00000000000E+00 -0.00000000000E+00 -0.45593999997E+02  0.45594000000E+02  0.51100000000E-03 0. -1.
    9900012    2    1    2    0    0  0.26759204546E+02 -0.30411255773E+02 -0.35023271897E+01  0.50528858329E+02  0.29999995378E+02 0.  0.
         12    1    1    2    0    0 -0.26759204546E+02  0.30411255773E+02  0.35023271897E+01  0.40659141671E+02  0.00000000000E+00 0. -1.
         11    1    3    3    0    0  0.12955081572E+02 -0.12696798899E+02 -0.12688821358E+02  0.22137051036E+02  0.51100000000E-03 0. -1.
        -11    1    3    3    0    0  0.31483592993E+01 -0.14622068029E+02  0.18058010095E+01  0.15065787642E+02  0.51100000000E-03 0.  1.
        -12    1    3    3    0    0  0.10655763674E+02 -0.30923888445E+01  0.73806931589E+01  0.13326019652E+02  0.00000000000E+00 0.  1.
</event>
<event>
 7    1  0.5719639E-013  0.5052885E+02  0.7816164E-02  0.1300439E+00
        -11   -1    0    0    0    0  0.00000000000E+00  0.00000000000E+00  0.45593999997E+02  0.45594000000E+02  0.51100000000E-03 0.  1.
         11   -1    0    0    0    0 -0.00000000000E+00 -0.00000000000E+00 -0.45593999997E+02  0.45594000000E+02  0.51100000000E-03 0. -1.
    9900012    2    1    2    0    0  0.33690547277E+02  0.22739362617E+01  0.22648244033E+02  0.50528847037E+02  0.29999961052E+02 0.  0.
         12    1    1    2    0    0 -0.33690547277E+02 -0.22739362617E+01 -0.22648244033E+02  0.40659152963E+02  0.00000000000E+00 0. -1.
         11    1    3    3    0    0  0.76825861049E+01  0.16372840411E+01 -0.54421903161E+01  0.95561636648E+01  0.51100000000E-03 0. -1.
        -11    1    3    3    0    0 -0.14966330345E+01 -0.31920171760E+00  0.44030860608E+01  0.46614340386E+01  0.51100000000E-03 0.  1.
        -12    1    3    3    0    0  0.27504594207E+02  0.95585393826E+00  0.23687348288E+02  0.36311249333E+02  0.00000000000E+00 0.  1.
</event>
<event>
 7    1  0.4836188E-013  0.5052886E+02  0.7816164E-02  0.1300439E+00
        -11   -1    0    0    0    0  0.00000000000E+00  0.00000000000E+00  0.45593999997E+02  0.45594000000E+02  0.51100000000E-03 0.  1.
         11   -1    0    0    0    0 -0.00000000000E+00 -0.00000000000E+00 -0.45593999997E+02  0.45594000000E+02  0.51100000000E-03 0. -1.
    9900012    2    1    2    0    0 -0.12936640823E+02  0.44274821872E+01  0.38291077363E+02  0.50528857364E+02  0.29999992443E+02 0.  0.
         12    1    1    2    0    0  0.12936640823E+02 -0.44274821872E+01 -0.38291077363E+02  0.40659142636E+02  0.00000000000E+00 0. -1.
         11    1    3    3    0    0 -0.98639896848E+01  0.12284611449E+01  0.16276081899E+01  0.10072562632E+02  0.51100000000E-03 0. -1.
        -11    1    3    3    0    0 -0.94648722606E+01 -0.59571120810E+00  0.23453631209E+02  0.25298448488E+02  0.51100000000E-03 0.  1.
        -12    1    3    3    0    0  0.63922211225E+01  0.37947322504E+01  0.13209837964E+02  0.15157846244E+02  0.00000000000E+00 0.  1.
</event>
<event>
 7    1  0.4836188E-013  0.5052890E+02  0.7816164E-02  0.1300439E+00
        -11   -1    0    0    0    0  0.00000000000E+00  0.00000000000E+00  0.45593999997E+02  0.45594000000E+02  0.51100000000E-03 0.  1.
         11   -1    0    0    0    0 -0.00000000000E+00 -0.00000000000E+00 -0.45593999997E+02  0.45594000000E+02  0.51100000000E-03 0. -1.
    9900012    2    1    2    0    0  0.22177834965E+02  0.34052949562E+02  0.13048451927E+01  0.50528900667E+02  0.30000124067E+02 0.  0.
         12    1    1    2    0    0 -0.22177834965E+02 -0.34052949562E+02 -0.13048451927E+01  0.40659099333E+02  0.00000000000E+00 0. -1.
         11    1    3    3    0    0 -0.27781311861E+01  0.46584839452E+01 -0.27986446778E+01  0.61034332837E+01  0.51100000000E-03 0. -1.
        -11    1    3    3    0    0  0.13704085257E+02  0.24626419066E+02 -0.57065508941E+01  0.28754602973E+02  0.51100000000E-03 0.  1.
        -12    1    3    3    0    0  0.11251880894E+02  0.47680465504E+01  0.98100407647E+01  0.15670864410E+02  0.00000000000E+00 0.  1.
</event>
<event>
 7    1  0.4836188E-013  0.5052885E+02  0.7816164E-02  0.1300439E+00
        -11   -1    0    0    0    0  0.00000000000E+00  0.00000000000E+00  0.45593999997E+02  0.45594000000E+02  0.51100000000E-03 0.  1.
         11   -1    0    0    0    0 -0.00000000000E+00 -0.00000000000E+00 -0.45593999997E+02  0.45594000000E+02  0.51100000000E-03 0. -1.
    9900012    2    1    2    0    0  0.10225386588E+02  0.16149992557E+02  0.35885726815E+02  0.50528853679E+02  0.29999981244E+02 0.  0.
         12    1    1    2    0    0 -0.10225386588E+02 -0.16149992557E+02 -0.35885726815E+02  0.40659146321E+02  0.00000000000E+00 0. -1.
         11    1    3    3    0    0 -0.25655480570E+00  0.14114388919E+02  0.91346175912E+01  0.16814369858E+02  0.51100000000E-03 0. -1.
        -11    1    3    3    0    0  0.10762181808E+02  0.58133486081E+01  0.27273167411E+02  0.29890554364E+02  0.51100000000E-03 0.  1.
         12    1    3    3    0    0 -0.28024041455E+00 -0.37777449698E+01 -0.52205818693E+00  0.38239294576E+01  0.00000000000E+00 0. -1.
</event>
<event>
 7    1  0.8008447E-013  0.5052886E+02  0.7816164E-02  0.1300439E+00
        -11   -1    0    0    0    0  0.00000000000E+00  0.00000000000E+00  0.45593999997E+02  0.45594000000E+02  0.51100000000E-03 0.  1.
         11   -1    0    0    0    0 -0.00000000000E+00 -0.00000000000E+00 -0.45593999997E+02  0.45594000000E+02  0.51100000000E-03 0. -1.
    9900012    2    1    2    0    0  0.11207031748E+02 -0.38679355149E+02  0.56103363595E+01  0.50528856509E+02  0.29999989846E+02 0.  0.
         12    1    1    2    0    0 -0.11207031748E+02  0.38679355149E+02 -0.56103363595E+01  0.40659143491E+02  0.00000000000E+00 0. -1.
         11    1    3    3    0    0  0.50262552687E+01 -0.81609208217E+01 -0.79835180413E+01  0.12473990190E+02  0.51100000000E-03 0. -1.
        -11    1    3    3    0    0  0.12036326429E+02 -0.17866195645E+02  0.71671852256E+01  0.22703361977E+02  0.51100000000E-03 0.  1.
        -12    1    3    3    0    0 -0.58555499500E+01 -0.12652238682E+02  0.64266691751E+01  0.15351504342E+02  0.00000000000E+00 0.  1.
</event>
<event>
 7    1  0.4836188E-013  0.5052886E+02  0.7816164E-02  0.1300439E+00
        -11   -1    0    0    0    0  0.00000000000E+00  0.00000000000E+00  0.45593999997E+02  0.45594000000E+02  0.51100000000E-03 0.  1.
         11   -1    0    0    0    0 -0.00000000000E+00 -0.00000000000E+00 -0.45593999997E+02  0.45594000000E+02  0.51100000000E-03 0. -1.
    9900012    2    1    2    0    0  0.10942086760E+02 -0.41442940759E+01  0.38939198556E+02  0.50528860557E+02  0.30000002150E+02 0.  0.
         12    1    1    2    0    0 -0.10942086760E+02  0.41442940759E+01 -0.38939198556E+02  0.40659139443E+02  0.00000000000E+00 0. -1.
         11    1    3    3    0    0 -0.22684626982E+01 -0.55803056322E+01 -0.23158121159E+01  0.64535819495E+01  0.51100000000E-03 0. -1.
        -11    1    3    3    0    0  0.83029456713E+00 -0.23856049554E+01  0.78057034898E+01  0.82042371555E+01  0.51100000000E-03 0.  1.
         12    1    3    3    0    0  0.12380254891E+02  0.38216165117E+01  0.33449307182E+02  0.35871041452E+02  0.00000000000E+00 0. -1.
</event>
<event>
 7    1  0.4836188E-013  0.5052886E+02  0.7816164E-02  0.1300439E+00
        -11   -1    0    0    0    0  0.00000000000E+00  0.00000000000E+00  0.45593999997E+02  0.45594000000E+02  0.51100000000E-03 0. -1.
         11   -1    0    0    0    0 -0.00000000000E+00 -0.00000000000E+00 -0.45593999997E+02  0.45594000000E+02  0.51100000000E-03 0.  1.
    9900012    2    1    2    0    0  0.36152032737E+02 -0.12463802055E+02 -0.13814849154E+02  0.50528857242E+02  0.29999992074E+02 0.  0.
         12    1    1    2    0    0 -0.36152032737E+02  0.12463802055E+02  0.13814849154E+02  0.40659142758E+02  0.00000000000E+00 0. -1.
         11    1    3    3    0    0  0.12632858320E+00  0.31008894009E+01 -0.36082851316E+01  0.47593272465E+01  0.51100000000E-03 0. -1.
        -11    1    3    3    0    0  0.28892900679E+02 -0.23857113698E+01 -0.10350290326E+02  0.30783434482E+02  0.51100000000E-03 0.  1.
         12    1    3    3    0    0  0.71328034739E+01 -0.13178980086E+02  0.14372630400E+00  0.14986095514E+02  0.00000000000E+00 0. -1.
</event>
<event>
 7    1  0.4836188E-013  0.5052892E+02  0.7816164E-02  0.1300439E+00
        -11   -1    0    0    0    0  0.00000000000E+00  0.00000000000E+00  0.45593999997E+02  0.45594000000E+02  0.51100000000E-03 0. -1.
         11   -1    0    0    0    0 -0.00000000000E+00 -0.00000000000E+00 -0.45593999997E+02  0.45594000000E+02  0.51100000000E-03 0.  1.
    9900012    2    1    2    0    0 -0.36127710340E+02  0.15596700118E+02 -0.10231938677E+02  0.50528916413E+02  0.30000171930E+02 0.  0.
         12    1    1    2    0    0  0.36127710340E+02 -0.15596700118E+02  0.10231938677E+02  0.40659083587E+02  0.00000000000E+00 0. -1.
         11    1    3    3    0    0 -0.26705385767E+02  0.66790412839E+01 -0.50793611901E+01  0.27992626383E+02  0.51100000000E-03 0. -1.
        -11    1    3    3    0    0 -0.10504920236E+02  0.66973386700E+01  0.39776397206E+01  0.13077817572E+02  0.51100000000E-03 0.  1.
        -12    1    3    3    0    0  0.10825956631E+01  0.22203201645E+01 -0.91302172075E+01  0.94584724590E+01  0.00000000000E+00 0.  1.
</event>
<event>
 7    1  0.4836188E-013  0.5052885E+02  0.7816164E-02  0.1300439E+00
        -11   -1    0    0    0    0  0.00000000000E+00  0.00000000000E+00  0.45593999997E+02  0.45594000000E+02  0.51100000000E-03 0. -1.
         11   -1    0    0    0    0 -0.00000000000E+00 -0.00000000000E+00 -0.45593999997E+02  0.45594000000E+02  0.51100000000E-03 0.  1.
    9900012    2    1    2    0    0 -0.13544171845E+02  0.36066834717E+02  0.12996343151E+02  0.50528854746E+02  0.29999984487E+02 0.  0.
         12    1    1    2    0    0  0.13544171845E+02 -0.36066834717E+02 -0.12996343151E+02  0.40659145254E+02  0.00000000000E+00 0. -1.
         11    1    3    3    0    0  0.29138938074E+01  0.75936328733E+01  0.28991454916E+01  0.86347601112E+01  0.51100000000E-03 0. -1.
        -11    1    3    3    0    0 -0.18749909537E+02  0.27877393564E+02  0.14735918046E+02  0.36685902749E+02  0.51100000000E-03 0.  1.
         12    1    3    3    0    0  0.22918438841E+01  0.59580827975E+00 -0.46387203873E+01  0.52081918865E+01  0.00000000000E+00 0. -1.
</event>
<event>
 7    1  0.4836188E-013  0.5052888E+02  0.7816164E-02  0.1300439E+00
        -11   -1    0    0    0    0  0.00000000000E+00  0.00000000000E+00  0.45593999997E+02  0.45594000000E+02  0.51100000000E-03 0. -1.
         11   -1    0    0    0    0 -0.00000000000E+00 -0.00000000000E+00 -0.45593999997E+02  0.45594000000E+02  0.51100000000E-03 0.  1.
    9900012    2    1    2    0    0  0.99444747588E+01 -0.41256282824E+01 -0.39207790598E+02  0.50528877647E+02  0.30000054096E+02 0.  0.
         12    1    1    2    0    0 -0.99444747588E+01  0.41256282824E+01  0.39207790598E+02  0.40659122353E+02  0.00000000000E+00 0. -1.
         11    1    3    3    0    0  0.56238767861E+00  0.62447520663E+01 -0.43562888958E+01  0.76348190205E+01  0.51100000000E-03 0. -1.
        -11    1    3    3    0    0  0.40841948590E+01 -0.39418167119E+01  0.12766645241E+01  0.58179411483E+01  0.51100000000E-03 0.  1.
        -12    1    3    3    0    0  0.52978922212E+01 -0.64285636369E+01 -0.36128166226E+02  0.37076117478E+02  0.00000000000E+00 0.  1.
</event>
<event>
 7    1  0.4836188E-013  0.5052886E+02  0.7816164E-02  0.1300439E+00
        -11   -1    0    0    0    0  0.00000000000E+00  0.00000000000E+00  0.45593999997E+02  0.45594000000E+02  0.51100000000E-03 0.  1.
         11   -1    0    0    0    0 -0.00000000000E+00 -0.00000000000E+00 -0.45593999997E+02  0.45594000000E+02  0.51100000000E-03 0. -1.
    9900012    2    1    2    0    0 -0.11750181458E+02  0.29214256287E+02  0.25722093331E+02  0.50528860560E+02  0.30000002157E+02 0.  0.
         12    1    1    2    0    0  0.11750181458E+02 -0.29214256287E+02 -0.25722093331E+02  0.40659139440E+02  0.00000000000E+00 0. -1.
         11    1    3    3    0    0  0.59022387834E+01  0.27752130649E+01  0.48023761476E+00  0.65397904125E+01  0.51100000000E-03 0. -1.
        -11    1    3    3    0    0 -0.39232267617E+01  0.20448234012E+02  0.12229221072E+02  0.24146963178E+02  0.51100000000E-03 0.  1.
         12    1    3    3    0    0 -0.13729193479E+02  0.59908092099E+01  0.13012634645E+02  0.19842106970E+02  0.00000000000E+00 0. -1.
</event>
<event>
 7    1  0.4836188E-013  0.5052886E+02  0.7816164E-02  0.1300439E+00
        -11   -1    0    0    0    0  0.00000000000E+00  0.00000000000E+00  0.45593999997E+02  0.45594000000E+02  0.51100000000E-03 0.  1.
         11   -1    0    0    0    0 -0.00000000000E+00 -0.00000000000E+00 -0.45593999997E+02  0.45594000000E+02  0.51100000000E-03 0. -1.
    9900012    2    1    2    0    0 -0.35473049653E+02 -0.42409701091E+01  0.19412440831E+02  0.50528856647E+02  0.29999990264E+02 0.  0.
         12    1    1    2    0    0  0.35473049653E+02  0.42409701091E+01 -0.19412440831E+02  0.40659143353E+02  0.00000000000E+00 0. -1.
         11    1    3    3    0    0 -0.23973548311E+02  0.12710734411E+01  0.76817402852E+01  0.25206264705E+02  0.51100000000E-03 0.  1.
        -11    1    3    3    0    0 -0.77008746561E+01 -0.69568602617E+01  0.16226970898E+02  0.19261774579E+02  0.51100000000E-03 0. -1.
         12    1    3    3    0    0 -0.37986266859E+01  0.14448167114E+01 -0.44962703515E+01  0.60608173626E+01  0.00000000000E+00 0. -1.
</event>
<event>
 7    1  0.4836188E-013  0.5052880E+02  0.7816164E-02  0.1300439E+00
        -11   -1    0    0    0    0  0.00000000000E+00  0.00000000000E+00  0.45593999997E+02  0.45594000000E+02  0.51100000000E-03 0.  1.
         11   -1    0    0    0    0 -0.00000000000E+00 -0.00000000000E+00 -0.45593999997E+02  0.45594000000E+02  0.51100000000E-03 0. -1.
    9900012    2    1    2    0    0  0.21006519902E+02 -0.24102330806E+01  0.34728770359E+02  0.50528799410E+02  0.29999816287E+02 0.  0.
         12    1    1    2    0    0 -0.21006519902E+02  0.24102330806E+01 -0.34728770359E+02  0.40659200590E+02  0.00000000000E+00 0. -1.
         11    1    3    3    0    0  0.14080215874E+01 -0.11666212839E+01 -0.23048437406E+01  0.29420800364E+01  0.51100000000E-03 0. -1.
        -11    1    3    3    0    0  0.18748608857E+02  0.64271691632E+01  0.16977799273E+02  0.26097212609E+02  0.51100000000E-03 0.  1.
         12    1    3    3    0    0  0.84988945757E+00 -0.76707809599E+01  0.20055814827E+02  0.21489506765E+02  0.00000000000E+00 0. -1.
</event>
<event>
 7    1  0.4836188E-013  0.5052886E+02  0.7816164E-02  0.1300439E+00
        -11   -1    0    0    0    0  0.00000000000E+00  0.00000000000E+00  0.45593999997E+02  0.45594000000E+02  0.51100000000E-03 0. -1.
         11   -1    0    0    0    0 -0.00000000000E+00 -0.00000000000E+00 -0.45593999997E+02  0.45594000000E+02  0.51100000000E-03 0.  1.
    9900012    2    1    2    0    0 -0.36903400039E+02 -0.17066714813E+02  0.17967711323E+00  0.50528856221E+02  0.29999988970E+02 0.  0.
         12    1    1    2    0    0  0.36903400039E+02  0.17066714813E+02 -0.17967711323E+00  0.40659143779E+02  0.00000000000E+00 0. -1.
         11    1    3    3    0    0 -0.18122456633E+02 -0.47076387086E+01  0.49490297561E+01  0.19366935546E+02  0.51100000000E-03 0. -1.
        -11    1    3    3    0    0 -0.10536319112E+02 -0.13447410455E+02  0.55005135215E+01  0.17947214760E+02  0.51100000000E-03 0.  1.
        -12    1    3    3    0    0 -0.82446242936E+01  0.10883343505E+01 -0.10269866164E+02  0.13214705916E+02  0.00000000000E+00 0.  1.
</event>
<event>
 7    1  0.4836188E-013  0.5052887E+02  0.7816164E-02  0.1300439E+00
        -11   -1    0    0    0    0  0.00000000000E+00  0.00000000000E+00  0.45593999997E+02  0.45594000000E+02  0.51100000000E-03 0.  1.
         11   -1    0    0    0    0 -0.00000000000E+00 -0.00000000000E+00 -0.45593999997E+02  0.45594000000E+02  0.51100000000E-03 0. -1.
    9900012    2    1    2    0    0 -0.19083053709E+02  0.26156176530E+02  0.24593822776E+02  0.50528872755E+02  0.30000039227E+02 0.  0.
         12    1    1    2    0    0  0.19083053709E+02 -0.26156176530E+02 -0.24593822776E+02  0.40659127245E+02  0.00000000000E+00 0. -1.
         11    1    3    3    0    0 -0.77029730689E+01 -0.27503850146E+01  0.27784508277E+00  0.81839849695E+01  0.51100000000E-03 0. -1.
        -11    1    3    3    0    0 -0.75600927129E+01  0.12709728196E+02  0.26471129011E+01  0.15023295231E+02  0.51100000000E-03 0.  1.
         12    1    3    3    0    0 -0.38199879269E+01  0.16196833349E+02  0.21668864793E+02  0.27321592554E+02  0.00000000000E+00 0. -1.
</event>
<event>
 7    1  0.4836188E-013  0.5052886E+02  0.7816164E-02  0.1300439E+00
        -11   -1    0    0    0    0  0.00000000000E+00  0.00000000000E+00  0.45593999997E+02  0.45594000000E+02  0.51100000000E-03 0.  1.
         11   -1    0    0    0    0 -0.00000000000E+00 -0.00000000000E+00 -0.45593999997E+02  0.45594000000E+02  0.51100000000E-03 0. -1.
    9900012    2    1    2    0    0  0.84597204102E+01  0.27839410639E+02  0.28400107694E+02  0.50528858701E+02  0.29999996507E+02 0.  0.
         12    1    1    2    0    0 -0.84597204102E+01 -0.27839410639E+02 -0.28400107694E+02  0.40659141299E+02  0.00000000000E+00 0. -1.
         11    1    3    3    0    0  0.90687756063E+01  0.39040391430E+01  0.43048812446E+01  0.10771082370E+02  0.51100000000E-03 0. -1.
        -11    1    3    3    0    0  0.87719687451E+01  0.18863585546E+02  0.14019050088E+02  0.25086172705E+02  0.51100000000E-03 0.  1.
         12    1    3    3    0    0 -0.93810239412E+01  0.50717859496E+01  0.10076176361E+02  0.14671603626E+02  0.00000000000E+00 0. -1.
</event>
<event>
 7    1  0.4836188E-013  0.5052886E+02  0.7816164E-02  0.1300439E+00
        -11   -1    0    0    0    0  0.00000000000E+00  0.00000000000E+00  0.45593999997E+02  0.45594000000E+02  0.51100000000E-03 0.  1.
         11   -1    0    0    0    0 -0.00000000000E+00 -0.00000000000E+00 -0.45593999997E+02  0.45594000000E+02  0.51100000000E-03 0. -1.
    9900012    2    1    2    0    0  0.26349284289E+02  0.30223889329E+02  0.67377370145E+01  0.50528863650E+02  0.30000011550E+02 0.  0.
         12    1    1    2    0    0 -0.26349284289E+02 -0.30223889329E+02 -0.67377370145E+01  0.40659136350E+02  0.00000000000E+00 0. -1.
         11    1    3    3    0    0  0.80974110751E+01  0.20142237001E+02  0.63899786608E+01  0.22629838821E+02  0.51100000000E-03 0. -1.
        -11    1    3    3    0    0  0.33049042143E+01  0.10753159212E+02  0.48846022029E+01  0.12264263690E+02  0.51100000000E-03 0.  1.
         12    1    3    3    0    0  0.14946968999E+02 -0.67150688453E+00 -0.45368438492E+01  0.15634761139E+02  0.00000000000E+00 0. -1.
</event>
<event>
 7    1  0.4836188E-013  0.5052886E+02  0.7816164E-02  0.1300439E+00
        -11   -1    0    0    0    0  0.00000000000E+00  0.00000000000E+00  0.45593999997E+02  0.45594000000E+02  0.51100000000E-03 0.  1.
         11   -1    0    0    0    0 -0.00000000000E+00 -0.00000000000E+00 -0.45593999997E+02  0.45594000000E+02  0.51100000000E-03 0. -1.
    9900012    2    1    2    0    0 -0.12152768632E+02  0.24894282757E+02  0.29761566143E+02  0.50528856887E+02  0.29999990995E+02 0.  0.
         12    1    1    2    0    0  0.12152768632E+02 -0.24894282757E+02 -0.29761566143E+02  0.40659143113E+02  0.00000000000E+00 0. -1.
         11    1    3    3    0    0  0.43583937589E+00 -0.19810102154E+01  0.34879516145E+01  0.40348685433E+01  0.51100000000E-03 0. -1.
        -11    1    3    3    0    0 -0.63573378398E+01  0.12869164729E+02  0.27597585850E+02  0.31107199975E+02  0.51100000000E-03 0.  1.
        -12    1    3    3    0    0 -0.62312701680E+01  0.14006128243E+02 -0.13239713223E+01  0.15386788369E+02  0.00000000000E+00 0.  1.
</event>
<event>
 7    1  0.4836188E-013  0.5052886E+02  0.7816164E-02  0.1300439E+00
        -11   -1    0    0    0    0  0.00000000000E+00  0.00000000000E+00  0.45593999997E+02  0.45594000000E+02  0.51100000000E-03 0.  1.
         11   -1    0    0    0    0 -0.00000000000E+00 -0.00000000000E+00 -0.45593999997E+02  0.45594000000E+02  0.51100000000E-03 0. -1.
    9900012    2    1    2    0    0  0.29693804970E+02 -0.19369621799E+02  0.19906307906E+02  0.50528863306E+02  0.30000010505E+02 0.  0.
         12    1    1    2    0    0 -0.29693804970E+02  0.19369621799E+02 -0.19906307906E+02  0.40659136694E+02  0.00000000000E+00 0. -1.
         11    1    3    3    0    0  0.79950990482E+01 -0.85424004188E+01 -0.16374948010E+01  0.11814211916E+02  0.51100000000E-03 0. -1.
        -11    1    3    3    0    0  0.14802077168E+02 -0.11313045808E+02  0.24844246734E+02  0.31053551970E+02  0.51100000000E-03 0.  1.
         12    1    3    3    0    0  0.68966287542E+01  0.48582442796E+00 -0.33004440271E+01  0.76610994200E+01  0.00000000000E+00 0. -1.
</event>
<event>
 7    1  0.5898147E-013  0.5052900E+02  0.7816164E-02  0.1300438E+00
        -11   -1    0    0    0    0  0.00000000000E+00  0.00000000000E+00  0.45593999997E+02  0.45594000000E+02  0.51100000000E-03 0.  1.
         11   -1    0    0    0    0 -0.00000000000E+00 -0.00000000000E+00 -0.45593999997E+02  0.45594000000E+02  0.51100000000E-03 0. -1.
    9900012    2    1    2    0    0  0.39439827425E+02  0.59233822691E+01 -0.79100004662E+01  0.50528996665E+02  0.30000415859E+02 0.  0.
         12    1    1    2    0    0 -0.39439827425E+02 -0.59233822691E+01  0.79100004662E+01  0.40659003335E+02  0.00000000000E+00 0. -1.
         11    1    3    3    0    0  0.73313225118E+01 -0.79340505041E+00 -0.11444494324E+02  0.13614486106E+02  0.51100000000E-03 0. -1.
        -11    1    3    3    0    0  0.54174719496E+01  0.77343014700E+01  0.38618761781E+01  0.10202083583E+02  0.51100000000E-03 0.  1.
        -12    1    3    3    0    0  0.26691032964E+02 -0.10175141504E+01 -0.32738232022E+00  0.26712426975E+02  0.00000000000E+00 0.  1.
</event>
<event>
 7    1  0.4836188E-013  0.5052886E+02  0.7816164E-02  0.1300439E+00
        -11   -1    0    0    0    0  0.00000000000E+00  0.00000000000E+00  0.45593999997E+02  0.45594000000E+02  0.51100000000E-03 0.  1.
         11   -1    0    0    0    0 -0.00000000000E+00 -0.00000000000E+00 -0.45593999997E+02  0.45594000000E+02  0.51100000000E-03 0. -1.
    9900012    2    1    2    0    0  0.59186439858E+01  0.15764799191E+02  0.37008195870E+02  0.50528858325E+02  0.29999995365E+02 0.  0.
         12    1    1    2    0    0 -0.59186439858E+01 -0.15764799191E+02 -0.37008195870E+02  0.40659141675E+02  0.00000000000E+00 0. -1.
         11    1    3    3    0    0  0.21064015994E+01 -0.15221553500E+01  0.17222065871E+02  0.17417044460E+02  0.51100000000E-03 0. -1.
        -11    1    3    3    0    0 -0.84061720905E+00  0.10435486580E+02  0.22149571059E+02  0.24499173778E+02  0.51100000000E-03 0.  1.
         12    1    3    3    0    0  0.46528595954E+01  0.68514679608E+01 -0.23634410591E+01  0.86126400873E+01  0.00000000000E+00 0. -1.
</event>
<event>
 7    1  0.4836188E-013  0.5052886E+02  0.7816164E-02  0.1300439E+00
        -11   -1    0    0    0    0  0.00000000000E+00  0.00000000000E+00  0.45593999997E+02  0.45594000000E+02  0.51100000000E-03 0.  1.
         11   -1    0    0    0    0 -0.00000000000E+00 -0.00000000000E+00 -0.45593999997E+02  0.45594000000E+02  0.51100000000E-03 0. -1.
    9900012    2    1    2    0    0  0.33103009072E+02  0.23432786244E+02 -0.28742397531E+01  0.50528856687E+02  0.29999990385E+02 0.  0.
         12    1    1    2    0    0 -0.33103009072E+02 -0.23432786244E+02  0.28742397531E+01  0.40659143313E+02  0.00000000000E+00 0. -1.
         11    1    3    3    0    0  0.18084060572E+02  0.12243050384E+02  0.71874860631E+01  0.22990987053E+02  0.51100000000E-03 0. -1.
        -11    1    3    3    0    0  0.17396586570E+02  0.11047013043E+02 -0.39560027006E+01  0.20983986254E+02  0.51100000000E-03 0.  1.
         12    1    3    3    0    0 -0.23776380703E+01  0.14272281646E+00 -0.61057231157E+01  0.65538833802E+01  0.00000000000E+00 0. -1.
</event>
<event>
 7    1  0.4836188E-013  0.5052887E+02  0.7816164E-02  0.1300439E+00
        -11   -1    0    0    0    0  0.00000000000E+00  0.00000000000E+00  0.45593999997E+02  0.45594000000E+02  0.51100000000E-03 0. -1.
         11   -1    0    0    0    0 -0.00000000000E+00 -0.00000000000E+00 -0.45593999997E+02  0.45594000000E+02  0.51100000000E-03 0.  1.
    9900012    2    1    2    0    0  0.98402409649E+01  0.39225880938E+02  0.42029435001E+01  0.50528870501E+02  0.30000032373E+02 0.  0.
         12    1    1    2    0    0 -0.98402409649E+01 -0.39225880938E+02 -0.42029435001E+01  0.40659129499E+02  0.00000000000E+00 0. -1.
         11    1    3    3    0    0  0.99564427190E+01  0.58560426916E+01  0.69048467579E+01  0.13457373318E+02  0.51100000000E-03 0. -1.
        -11    1    3    3    0    0  0.41211210654E+01  0.15776359502E+02 -0.80728503926E+01  0.18194726480E+02  0.51100000000E-03 0.  1.
         12    1    3    3    0    0 -0.42373228196E+01  0.17593478745E+02  0.53709471349E+01  0.18876770702E+02  0.00000000000E+00 0. -1.
</event>
<event>
 7    1  0.4836188E-013  0.5052886E+02  0.7816164E-02  0.1300439E+00
        -11   -1    0    0    0    0  0.00000000000E+00  0.00000000000E+00  0.45593999997E+02  0.45594000000E+02  0.51100000000E-03 0. -1.
         11   -1    0    0    0    0 -0.00000000000E+00 -0.00000000000E+00 -0.45593999997E+02  0.45594000000E+02  0.51100000000E-03 0.  1.
    9900012    2    1    2    0    0  0.67329091581E+01 -0.40094344065E+02 -0.52650528579E+00  0.50528859582E+02  0.29999999184E+02 0.  0.
         12    1    1    2    0    0 -0.67329091581E+01  0.40094344065E+02  0.52650528579E+00  0.40659140418E+02  0.00000000000E+00 0. -1.
         11    1    3    3    0    0  0.21477697900E+01 -0.60351220008E-02  0.56903921094E+01  0.60822293704E+01  0.51100000000E-03 0. -1.
        -11    1    3    3    0    0  0.25832728289E+01 -0.21122444554E+02  0.56087206423E+01  0.22006560612E+02  0.51100000000E-03 0.  1.
         12    1    3    3    0    0  0.20018665392E+01 -0.18965864389E+02 -0.11825618038E+02  0.22440069600E+02  0.00000000000E+00 0. -1.
</event>
<event>
 7    1  0.4836188E-013  0.5052886E+02  0.7816164E-02  0.1300439E+00
        -11   -1    0    0    0    0  0.00000000000E+00  0.00000000000E+00  0.45593999997E+02  0.45594000000E+02  0.51100000000E-03 0.  1.
         11   -1    0    0    0    0 -0.00000000000E+00 -0.00000000000E+00 -0.45593999997E+02  0.45594000000E+02  0.51100000000E-03 0. -1.
    9900012    2    1    2    0    0 -0.87075278636E+01 -0.27408908659E+02 -0.28741898215E+02  0.50528855538E+02  0.29999986894E+02 0.  0.
         12    1    1    2    0    0  0.87075278636E+01  0.27408908659E+02  0.28741898215E+02  0.40659144462E+02  0.00000000000E+00 0. -1.
         11    1    3    3    0    0 -0.19809414403E+01 -0.80301554801E+00 -0.51224836145E+01  0.55505676829E+01  0.51100000000E-03 0. -1.
        -11    1    3    3    0    0 -0.91031966144E+01 -0.28702479817E+02 -0.11145362866E+02  0.32107937491E+02  0.51100000000E-03 0.  1.
        -12    1    3    3    0    0  0.23766101911E+01  0.20965867063E+01 -0.12474051735E+02  0.12870350364E+02  0.00000000000E+00 0.  1.
</event>
<event>
 7    1  0.4836188E-013  0.5052884E+02  0.7816164E-02  0.1300439E+00
        -11   -1    0    0    0    0  0.00000000000E+00  0.00000000000E+00  0.45593999997E+02  0.45594000000E+02  0.51100000000E-03 0. -1.
         11   -1    0    0    0    0 -0.00000000000E+00 -0.00000000000E+00 -0.45593999997E+02  0.45594000000E+02  0.51100000000E-03 0.  1.
    9900012    2    1    2    0    0 -0.33189732574E+02 -0.16854823167E+01 -0.23425806088E+02  0.50528836336E+02  0.29999928527E+02 0.  0.
         12    1    1    2    0    0  0.33189732574E+02  0.16854823167E+01  0.23425806088E+02  0.40659163664E+02  0.00000000000E+00 0. -1.
         11    1    3    3    0    0 -0.15749559378E+02 -0.64922905941E+01 -0.10592376697E+02  0.20059833053E+02  0.51100000000E-03 0.  1.
        -11    1    3    3    0    0 -0.20281857083E+02  0.76886637066E+01 -0.59628848097E+01  0.22495005487E+02  0.51100000000E-03 0. -1.
         12    1    3    3    0    0  0.28416838865E+01 -0.28818554292E+01 -0.68705445807E+01  0.79739977966E+01  0.00000000000E+00 0. -1.
</event>
<event>
 7    1  0.4836188E-013  0.5052886E+02  0.7816164E-02  0.1300439E+00
        -11   -1    0    0    0    0  0.00000000000E+00  0.00000000000E+00  0.45593999997E+02  0.45594000000E+02  0.51100000000E-03 0.  1.
         11   -1    0    0    0    0 -0.00000000000E+00 -0.00000000000E+00 -0.45593999997E+02  0.45594000000E+02  0.51100000000E-03 0. -1.
    9900012    2    1    2    0    0 -0.40784522209E+01  0.73992668948E+01  0.39771633928E+02  0.50528858489E+02  0.29999995862E+02 0.  0.
         12    1    1    2    0    0  0.40784522209E+01 -0.73992668948E+01 -0.39771633928E+02  0.40659141511E+02  0.00000000000E+00 0. -1.
         11    1    3    3    0    0  0.13970280187E+01 -0.51049359073E+01  0.25686980280E+01  0.58830491858E+01  0.51100000000E-03 0. -1.
        -11    1    3    3    0    0  0.20452995629E+01  0.64516080834E+01  0.60385575453E+00  0.67949348192E+01  0.51100000000E-03 0.  1.
         12    1    3    3    0    0 -0.75207798024E+01  0.60525947187E+01  0.36599080146E+02  0.37850874484E+02  0.00000000000E+00 0. -1.
</event>
<event>
 7    1  0.4836188E-013  0.5052884E+02  0.7816164E-02  0.1300439E+00
        -11   -1    0    0    0    0  0.00000000000E+00  0.00000000000E+00  0.45593999997E+02  0.45594000000E+02  0.51100000000E-03 0.  1.
         11   -1    0    0    0    0 -0.00000000000E+00 -0.00000000000E+00 -0.45593999997E+02  0.45594000000E+02  0.51100000000E-03 0. -1.
    9900012    2    1    2    0    0  0.45366757413E-01 -0.37517899488E+02  0.15670750216E+02  0.50528840485E+02  0.29999941138E+02 0.  0.
         12    1    1    2    0    0 -0.45366757413E-01  0.37517899488E+02 -0.15670750216E+02  0.40659159515E+02  0.00000000000E+00 0. -1.
         11    1    3    3    0    0 -0.89418376668E+01 -0.79414113552E+01 -0.25997127595E+01  0.12238504070E+02  0.51100000000E-03 0. -1.
        -11    1    3    3    0    0  0.11143070853E+01 -0.20842635497E+02  0.70327165162E+01  0.22025354403E+02  0.51100000000E-03 0.  1.
         12    1    3    3    0    0  0.78728973389E+01 -0.87338526363E+01  0.11237746459E+02  0.16264982012E+02  0.00000000000E+00 0. -1.
</event>
<event>
 7    1  0.4836188E-013  0.5052884E+02  0.7816164E-02  0.1300439E+00
        -11   -1    0    0    0    0  0.00000000000E+00  0.00000000000E+00  0.45593999997E+02  0.45594000000E+02  0.51100000000E-03 0.  1.
         11   -1    0    0    0    0 -0.00000000000E+00 -0.00000000000E+00 -0.45593999997E+02  0.45594000000E+02  0.51100000000E-03 0. -1.
    9900012    2    1    2    0    0  0.27904757877E+02 -0.28314143842E+02  0.85323752997E+01  0.50528835204E+02  0.29999925085E+02 0.  0.
         12    1    1    2    0    0 -0.27904757877E+02  0.28314143842E+02 -0.85323752997E+01  0.40659164796E+02  0.00000000000E+00 0. -1.
         11    1    3    3    0    0  0.35148115299E+01 -0.11095377613E+02  0.56605170215E+01  0.12942285643E+02  0.51100000000E-03 0. -1.
        -11    1    3    3    0    0  0.24947332192E+02 -0.21466509652E+02  0.10426360227E+01  0.32928217538E+02  0.51100000000E-03 0.  1.
         12    1    3    3    0    0 -0.55738584458E+00  0.42477434229E+01  0.18292222555E+01  0.46583320219E+01  0.00000000000E+00 0. -1.
</event>
<event>
 7    1  0.4836188E-013  0.5052885E+02  0.7816164E-02  0.1300439E+00
        -11   -1    0    0    0    0  0.00000000000E+00  0.00000000000E+00  0.45593999997E+02  0.45594000000E+02  0.51100000000E-03 0.  1.
         11   -1    0    0    0    0 -0.00000000000E+00 -0.00000000000E+00 -0.45593999997E+02  0.45594000000E+02  0.51100000000E-03 0. -1.
    9900012    2    1    2    0    0 -0.29109308804E+02  0.24390706796E+02  0.14522664173E+02  0.50528853283E+02  0.29999980040E+02 0.  0.
         12    1    1    2    0    0  0.29109308804E+02 -0.24390706796E+02 -0.14522664173E+02  0.40659146717E+02  0.00000000000E+00 0. -1.
         11    1    3    3    0    0 -0.10447470789E+02  0.14722039300E+02  0.13980797256E+02  0.22833107086E+02  0.51100000000E-03 0. -1.
        -11    1    3    3    0    0 -0.17576158560E+02  0.69917633086E+01  0.73551178655E+01  0.20295414826E+02  0.51100000000E-03 0.  1.
         12    1    3    3    0    0 -0.10856794549E+01  0.26769041874E+01 -0.68132509486E+01  0.74003313707E+01  0.00000000000E+00 0. -1.
</event>
<event>
 7    1  0.4836188E-013  0.5052886E+02  0.7816164E-02  0.1300439E+00
        -11   -1    0    0    0    0  0.00000000000E+00  0.00000000000E+00  0.45593999997E+02  0.45594000000E+02  0.51100000000E-03 0.  1.
         11   -1    0    0    0    0 -0.00000000000E+00 -0.00000000000E+00 -0.45593999997E+02  0.45594000000E+02  0.51100000000E-03 0. -1.
    9900012    2    1    2    0    0 -0.17972132417E+01 -0.21873590677E+02  0.34226915811E+02  0.50528859447E+02  0.29999998776E+02 0.  0.
         12    1    1    2    0    0  0.17972132417E+01  0.21873590677E+02 -0.34226915811E+02  0.40659140553E+02  0.00000000000E+00 0. -1.
         11    1    3    3    0    0 -0.46811289618E+00 -0.17409587639E+01 -0.26183059510E+01  0.31789296021E+01  0.51100000000E-03 0. -1.
        -11    1    3    3    0    0 -0.10394585473E+02 -0.14118613806E+02  0.15540765585E+02  0.23428573541E+02  0.51100000000E-03 0.  1.
        -12    1    3    3    0    0  0.90654851276E+01 -0.60140181073E+01  0.21304456178E+02  0.23921356304E+02  0.00000000000E+00 0.  1.
</event>
<event>
 7    1  0.4836188E-013  0.5052884E+02  0.7816164E-02  0.1300439E+00
        -11   -1    0    0    0    0  0.00000000000E+00  0.00000000000E+00  0.45593999997E+02  0.45594000000E+02  0.51100000000E-03 0.  1.
         11   -1    0    0    0    0 -0.00000000000E+00 -0.00000000000E+00 -0.45593999997E+02  0.45594000000E+02  0.51100000000E-03 0. -1.
    9900012    2    1    2    0    0 -0.30240524918E+02 -0.90170052122E+01  0.25639250359E+02  0.50528844951E+02  0.29999954712E+02 0.  0.
         12    1    1    2    0    0  0.30240524918E+02  0.90170052122E+01 -0.25639250359E+02  0.40659155049E+02  0.00000000000E+00 0. -1.
         11    1    3    3    0    0  0.14563215593E+01 -0.45843876740E+00 -0.16974171972E+01  0.22830383243E+01  0.51100000000E-03 0. -1.
        -11    1    3    3    0    0 -0.21448675827E+02 -0.16260256773E+02  0.17819190756E+02  0.32279485815E+02  0.51100000000E-03 0.  1.
         12    1    3    3    0    0 -0.10248170651E+02  0.77016903278E+01  0.95174768011E+01  0.15966320811E+02  0.00000000000E+00 0. -1.
</event>
<event>
 7    1  0.4836188E-013  0.5052900E+02  0.7816164E-02  0.1300438E+00
        -11   -1    0    0    0    0  0.00000000000E+00  0.00000000000E+00  0.45593999997E+02  0.45594000000E+02  0.51100000000E-03 0.  1.
         11   -1    0    0    0    0 -0.00000000000E+00 -0.00000000000E+00 -0.45593999997E+02  0.45594000000E+02  0.51100000000E-03 0. -1.
    9900012    2    1    2    0    0 -0.82847798794E+01 -0.39591076904E+02 -0.41307528877E+01  0.50529002625E+02  0.30000433977E+02 0.  0.
         12    1    1    2    0    0  0.82847798794E+01  0.39591076904E+02  0.41307528877E+01  0.40658997375E+02  0.00000000000E+00 0. -1.
         11    1    3    3    0    0  0.43863522125E+01 -0.13841624230E+02 -0.31572320551E+01  0.14859298825E+02  0.51100000000E-03 0. -1.
        -11    1    3    3    0    0 -0.20797051646E+01 -0.10724535289E+02  0.95307131949E+01  0.14497424772E+02  0.51100000000E-03 0.  1.
        -12    1    3    3    0    0 -0.10591426927E+02 -0.15024917385E+02 -0.10504234028E+02  0.21172279029E+02  0.00000000000E+00 0.  1.
</event>
<event>
 7    1  0.4836188E-013  0.5052886E+02  0.7816164E-02  0.1300439E+00
        -11   -1    0    0    0    0  0.00000000000E+00  0.00000000000E+00  0.45593999997E+02  0.45594000000E+02  0.51100000000E-03 0.  1.
         11   -1    0    0    0    0 -0.00000000000E+00 -0.00000000000E+00 -0.45593999997E+02  0.45594000000E+02  0.51100000000E-03 0. -1.
    9900012    2    1    2    0    0 -0.15763383600E+02  0.10783126546E+02  0.35894371826E+02  0.50528855771E+02  0.29999987602E+02 0.  0.
         12    1    1    2    0    0  0.15763383600E+02 -0.10783126546E+02 -0.35894371826E+02  0.40659144229E+02  0.00000000000E+00 0. -1.
         11    1    3    3    0    0  0.29254862560E+01  0.29455838706E+01  0.70823375184E+01  0.82094116207E+01  0.51100000000E-03 0. -1.
        -11    1    3    3    0    0 -0.18493211529E+02  0.77253234973E+01  0.32738745627E+02  0.38386260058E+02  0.51100000000E-03 0.  1.
         12    1    3    3    0    0 -0.19565832725E+00  0.11221917761E+00 -0.39267113185E+01  0.39331840923E+01  0.00000000000E+00 0. -1.
</event>
<event>
 7    1  0.4836188E-013  0.5052884E+02  0.7816164E-02  0.1300439E+00
        -11   -1    0    0    0    0  0.00000000000E+00  0.00000000000E+00  0.45593999997E+02  0.45594000000E+02  0.51100000000E-03 0.  1.
         11   -1    0    0    0    0 -0.00000000000E+00 -0.00000000000E+00 -0.45593999997E+02  0.45594000000E+02  0.51100000000E-03 0. -1.
    9900012    2    1    2    0    0 -0.10996271196E+02 -0.30560786981E+02  0.24459915896E+02  0.50528841539E+02  0.29999944342E+02 0.  0.
         12    1    1    2    0    0  0.10996271196E+02  0.30560786981E+02 -0.24459915896E+02  0.40659158461E+02  0.00000000000E+00 0. -1.
         11    1    3    3    0    0  0.36189086669E+01 -0.12701441449E+02  0.41916066077E-01  0.13207000872E+02  0.51100000000E-03 0. -1.
        -11    1    3    3    0    0 -0.41099238018E+01  0.22990781291E+01  0.12672112803E+01  0.48767877328E+01  0.51100000000E-03 0.  1.
         12    1    3    3    0    0 -0.10505256061E+02 -0.20158423662E+02  0.23150788549E+02  0.32445052934E+02  0.00000000000E+00 0. -1.
</event>
<event>
 7    1  0.4836188E-013  0.5052886E+02  0.7816164E-02  0.1300439E+00
        -11   -1    0    0    0    0  0.00000000000E+00  0.00000000000E+00  0.45593999997E+02  0.45594000000E+02  0.51100000000E-03 0.  1.
         11   -1    0    0    0    0 -0.00000000000E+00 -0.00000000000E+00 -0.45593999997E+02  0.45594000000E+02  0.51100000000E-03 0. -1.
    9900012    2    1    2    0    0 -0.29165642743E+02 -0.23189791350E+02  0.16271576649E+02  0.50528863929E+02  0.30000012397E+02 0.  0.
         12    1    1    2    0    0  0.29165642743E+02  0.23189791350E+02 -0.16271576649E+02  0.40659136071E+02  0.00000000000E+00 0. -1.
         11    1    3    3    0    0 -0.13872141825E+02 -0.15919880359E+02  0.20186120684E+01  0.21212112209E+02  0.51100000000E-03 0. -1.
        -11    1    3    3    0    0 -0.12896554857E+02 -0.12724796804E+02  0.14715301287E+02  0.23340558543E+02  0.51100000000E-03 0.  1.
         12    1    3    3    0    0 -0.23969460607E+01  0.54548858126E+01 -0.46233670637E+00  0.59761931759E+01  0.00000000000E+00 0. -1.
</event>
<event>
 7    1  0.4836188E-013  0.5052886E+02  0.7816164E-02  0.1300439E+00
        -11   -1    0    0    0    0  0.00000000000E+00  0.00000000000E+00  0.45593999997E+02  0.45594000000E+02  0.51100000000E-03 0.  1.
         11   -1    0    0    0    0 -0.00000000000E+00 -0.00000000000E+00 -0.45593999997E+02  0.45594000000E+02  0.51100000000E-03 0. -1.
    9900012    2    1    2    0    0 -0.37373466734E+01 -0.39834642920E+02  0.72387263578E+01  0.50528859625E+02  0.29999999317E+02 0.  0.
         12    1    1    2    0    0  0.37373466734E+01  0.39834642920E+02 -0.72387263578E+01  0.40659140375E+02  0.00000000000E+00 0. -1.
         11    1    3    3    0    0  0.48300826385E+01 -0.41991764915E+01 -0.37792558352E+01  0.74327354608E+01  0.51100000000E-03 0. -1.
        -11    1    3    3    0    0  0.43244456669E+01 -0.23704280299E+02  0.66139557829E+01  0.24986759417E+02  0.51100000000E-03 0.  1.
        -12    1    3    3    0    0 -0.12891874979E+02 -0.11931186130E+02  0.44040264101E+01  0.18109364747E+02  0.00000000000E+00 0.  1.
</event>
<event>
 7    1  0.4836188E-013  0.5052887E+02  0.7816164E-02  0.1300439E+00
        -11   -1    0    0    0    0  0.00000000000E+00  0.00000000000E+00  0.45593999997E+02  0.45594000000E+02  0.51100000000E-03 0.  1.
         11   -1    0    0    0    0 -0.00000000000E+00 -0.00000000000E+00 -0.45593999997E+02  0.45594000000E+02  0.51100000000E-03 0. -1.
    9900012    2    1    2    0    0 -0.26047538982E+02 -0.69049311830E+01  0.30446885128E+02  0.50528866024E+02  0.30000018767E+02 0.  0.
         12    1    1    2    0    0  0.26047538982E+02  0.69049311830E+01 -0.30446885128E+02  0.40659133976E+02  0.00000000000E+00 0. -1.
         11    1    3    3    0    0  0.88787937969E-01  0.38185941872E+01  0.21333470513E+01  0.43750102590E+01  0.51100000000E-03 0. -1.
        -11    1    3    3    0    0 -0.20761902768E+02  0.20464204917E+01  0.98520833106E+01  0.23071800736E+02  0.51100000000E-03 0.  1.
         12    1    3    3    0    0 -0.53744241521E+01 -0.12769945862E+02  0.18461454766E+02  0.23082055029E+02  0.00000000000E+00 0. -1.
</event>
<event>
 7    1  0.4836188E-013  0.5052885E+02  0.7816164E-02  0.1300439E+00
        -11   -1    0    0    0    0  0.00000000000E+00  0.00000000000E+00  0.45593999997E+02  0.45594000000E+02  0.51100000000E-03 0.  1.
         11   -1    0    0    0    0 -0.00000000000E+00 -0.00000000000E+00 -0.45593999997E+02  0.45594000000E+02  0.51100000000E-03 0. -1.
    9900012    2    1    2    0    0 -0.20043503111E+02 -0.34816600471E+02 -0.62632906053E+01  0.50528849805E+02  0.29999969468E+02 0.  0.
         12    1    1    2    0    0  0.20043503111E+02  0.34816600471E+02  0.62632906053E+01  0.40659150195E+02  0.00000000000E+00 0. -1.
         11    1    3    3    0    0  0.21100259239E+01  0.29428266033E+00  0.10818046240E+01  0.23893750625E+01  0.51100000000E-03 0. -1.
        -11    1    3    3    0    0  0.30210783975E+00 -0.21109387029E+02 -0.34247035516E+01  0.21387521702E+02  0.51100000000E-03 0.  1.
         12    1    3    3    0    0 -0.22455636875E+02 -0.14001496103E+02 -0.39203916777E+01  0.26751953041E+02  0.00000000000E+00 0. -1.
</event>
<event>
 7    1  0.4836188E-013  0.5052886E+02  0.7816164E-02  0.1300439E+00
        -11   -1    0    0    0    0  0.00000000000E+00  0.00000000000E+00  0.45593999997E+02  0.45594000000E+02  0.51100000000E-03 0.  1.
         11   -1    0    0    0    0 -0.00000000000E+00 -0.00000000000E+00 -0.45593999997E+02  0.45594000000E+02  0.51100000000E-03 0. -1.
    9900012    2    1    2    0    0 -0.28555184666E+02  0.20922325032E+02  0.20000592096E+02  0.50528856622E+02  0.29999990189E+02 0.  0.
         12    1    1    2    0    0  0.28555184666E+02 -0.20922325032E+02 -0.20000592096E+02  0.40659143378E+02  0.00000000000E+00 0. -1.
         11    1    3    3    0    0 -0.54387196297E+01  0.30067551526E+00  0.38648861254E+01  0.66788787981E+01  0.51100000000E-03 0.  1.
        -11    1    3    3    0    0 -0.20303231699E+02  0.18318771748E+02  0.37072342506E-01  0.27345931881E+02  0.51100000000E-03 0. -1.
        -12    1    3    3    0    0 -0.28132333369E+01  0.23028777679E+01  0.16098633628E+02  0.16504045944E+02  0.00000000000E+00 0.  1.
</event>
<event>
 7    1  0.4836188E-013  0.5052886E+02  0.7816164E-02  0.1300439E+00
        -11   -1    0    0    0    0  0.00000000000E+00  0.00000000000E+00  0.45593999997E+02  0.45594000000E+02  0.51100000000E-03 0.  1.
         11   -1    0    0    0    0 -0.00000000000E+00 -0.00000000000E+00 -0.45593999997E+02  0.45594000000E+02  0.51100000000E-03 0. -1.
    9900012    2    1    2    0    0 -0.13936387832E+02 -0.33766741075E+01  0.38046560743E+02  0.50528860582E+02  0.30000002225E+02 0.  0.
         12    1    1    2    0    0  0.13936387832E+02  0.33766741075E+01 -0.38046560743E+02  0.40659139418E+02  0.00000000000E+00 0. -1.
         11    1    3    3    0    0 -0.22964649654E+00 -0.16353138062E+01 -0.39206053415E+01  0.42541903181E+01  0.51100000000E-03 0. -1.
        -11    1    3    3    0    0 -0.87312045510E+01 -0.17860418921E+01  0.80970375926E+01  0.12041008952E+02  0.51100000000E-03 0.  1.
        -12    1    3    3    0    0 -0.49755367847E+01  0.44681590818E-01  0.33870128492E+02  0.34233661312E+02  0.00000000000E+00 0.  1.
</event>
<event>
 7    1  0.4836188E-013  0.5052888E+02  0.7816164E-02  0.1300439E+00
        -11   -1    0    0    0    0  0.00000000000E+00  0.00000000000E+00  0.45593999997E+02  0.45594000000E+02  0.51100000000E-03 0. -1.
         11   -1    0    0    0    0 -0.00000000000E+00 -0.00000000000E+00 -0.45593999997E+02  0.45594000000E+02  0.51100000000E-03 0.  1.
    9900012    2    1    2    0    0  0.26047364711E+02 -0.28464282379E+02  0.12825099632E+02  0.50528883429E+02  0.30000071672E+02 0.  0.
         12    1    1    2    0    0 -0.26047364711E+02  0.28464282379E+02 -0.12825099632E+02  0.40659116571E+02  0.00000000000E+00 0. -1.
         11    1    3    3    0    0 -0.38416591455E+01 -0.45950288463E+01  0.27993606813E+01  0.66112824454E+01  0.51100000000E-03 0. -1.
        -11    1    3    3    0    0  0.20858574564E+02 -0.26029276133E+02  0.91689809706E+01  0.34592969823E+02  0.51100000000E-03 0.  1.
         12    1    3    3    0    0  0.90304492924E+01  0.21600226006E+01  0.85675798054E+00  0.93246311614E+01  0.00000000000E+00 0. -1.
</event>
<event>
 7    1  0.4836188E-013  0.5052885E+02  0.7816164E-02  0.1300439E+00
        -11   -1    0    0    0    0  0.00000000000E+00  0.00000000000E+00  0.45593999997E+02  0.45594000000E+02  0.51100000000E-03 0. -1.
         11   -1    0    0    0    0 -0.00000000000E+00 -0.00000000000E+00 -0.45593999997E+02  0.45594000000E+02  0.51100000000E-03 0.  1.
    9900012    2    1    2    0    0  0.25488856695E+02  0.90593626708E+01 -0.30354782946E+02  0.50528847090E+02  0.29999961216E+02 0.  0.
         12    1    1    2    0    0 -0.25488856695E+02 -0.90593626708E+01  0.30354782946E+02  0.40659152910E+02  0.00000000000E+00 0. -1.
         11    1    3    3    0    0 -0.23939490803E+01  0.27728146508E+01 -0.60955418154E+01  0.71116189135E+01  0.51100000000E-03 0. -1.
        -11    1    3    3    0    0  0.15744029386E+02  0.24754904110E+01 -0.26080457842E+02  0.30564567649E+02  0.51100000000E-03 0.  1.
         12    1    3    3    0    0  0.12138776390E+02  0.38110576090E+01  0.18212167112E+01  0.12852660528E+02  0.00000000000E+00 0. -1.
</event>
<event>
 7    1  0.4836188E-013  0.5052885E+02  0.7816164E-02  0.1300439E+00
        -11   -1    0    0    0    0  0.00000000000E+00  0.00000000000E+00  0.45593999997E+02  0.45594000000E+02  0.51100000000E-03 0. -1.
         11   -1    0    0    0    0 -0.00000000000E+00 -0.00000000000E+00 -0.45593999997E+02  0.45594000000E+02  0.51100000000E-03 0.  1.
    9900012    2    1    2    0    0  0.40299161703E+02 -0.45699530391E+01 -0.28738985254E+01  0.50528853459E+02  0.29999980573E+02 0.  0.
         12    1    1    2    0    0 -0.40299161703E+02  0.45699530391E+01  0.28738985254E+01  0.40659146541E+02  0.00000000000E+00 0. -1.
         11    1    3    3    0    0  0.12997555090E+02 -0.11450405780E+02 -0.17989562397E+01  0.17415064589E+02  0.51100000000E-03 0. -1.
        -11    1    3    3    0    0  0.19088593568E+02 -0.54225455538E+00 -0.72636882355E+01  0.20431094230E+02  0.51100000000E-03 0.  1.
         12    1    3    3    0    0  0.82130130447E+01  0.74227072959E+01  0.61887459498E+01  0.12682694639E+02  0.00000000000E+00 0. -1.
</event>
<event>
 7    1  0.4836188E-013  0.5052886E+02  0.7816164E-02  0.1300439E+00
        -11   -1    0    0    0    0  0.00000000000E+00  0.00000000000E+00  0.45593999997E+02  0.45594000000E+02  0.51100000000E-03 0.  1.
         11   -1    0    0    0    0 -0.00000000000E+00 -0.00000000000E+00 -0.45593999997E+02  0.45594000000E+02  0.51100000000E-03 0. -1.
    9900012    2    1    2    0    0  0.28584986298E+02 -0.20922551386E+02 -0.19957723616E+02  0.50528864125E+02  0.30000012994E+02 0.  0.
         12    1    1    2    0    0 -0.28584986298E+02  0.20922551386E+02  0.19957723616E+02  0.40659135875E+02  0.00000000000E+00 0. -1.
         11    1    3    3    0    0 -0.23569896871E+01 -0.11419144169E+02 -0.81328664249E+01  0.14216039198E+02  0.51100000000E-03 0. -1.
        -11    1    3    3    0    0  0.11338831844E+02 -0.10883020799E+01 -0.95393274508E+01  0.14857734601E+02  0.51100000000E-03 0.  1.
        -12    1    3    3    0    0  0.19603144141E+02 -0.84151051374E+01 -0.22855297405E+01  0.21455090325E+02  0.00000000000E+00 0.  1.
</event>
<event>
 7    1  0.4836188E-013  0.5052886E+02  0.7816164E-02  0.1300439E+00
        -11   -1    0    0    0    0  0.00000000000E+00  0.00000000000E+00  0.45593999997E+02  0.45594000000E+02  0.51100000000E-03 0.  1.
         11   -1    0    0    0    0 -0.00000000000E+00 -0.00000000000E+00 -0.45593999997E+02  0.45594000000E+02  0.51100000000E-03 0. -1.
    9900012    2    1    2    0    0 -0.28950884824E+02 -0.18833831920E+02  0.21454576479E+02  0.50528858238E+02  0.29999995101E+02 0.  0.
         12    1    1    2    0    0  0.28950884824E+02  0.18833831920E+02 -0.21454576479E+02  0.40659141762E+02  0.00000000000E+00 0. -1.
         11    1    3    3    0    0 -0.94449125265E+01  0.66433834018E+01  0.86242556337E+01  0.14412449520E+02  0.51100000000E-03 0. -1.
        -11    1    3    3    0    0 -0.69863137643E+00 -0.72940292498E+01  0.47684361034E+01  0.87423641900E+01  0.51100000000E-03 0.  1.
        -12    1    3    3    0    0 -0.18807340922E+02 -0.18183186072E+02  0.80618847416E+01  0.27374044529E+02  0.00000000000E+00 0.  1.
</event>
<event>
 7    1  0.4836188E-013  0.5052886E+02  0.7816164E-02  0.1300439E+00
        -11   -1    0    0    0    0  0.00000000000E+00  0.00000000000E+00  0.45593999997E+02  0.45594000000E+02  0.51100000000E-03 0.  1.
         11   -1    0    0    0    0 -0.00000000000E+00 -0.00000000000E+00 -0.45593999997E+02  0.45594000000E+02  0.51100000000E-03 0. -1.
    9900012    2    1    2    0    0 -0.23697003593E+02 -0.20018808962E+02  0.26284311130E+02  0.50528859537E+02  0.29999999050E+02 0.  0.
         12    1    1    2    0    0  0.23697003593E+02  0.20018808962E+02 -0.26284311130E+02  0.40659140463E+02  0.00000000000E+00 0. -1.
         11    1    3    3    0    0 -0.46368218387E+01  0.19208906981E+01  0.77017179777E+01  0.91927361491E+01  0.51100000000E-03 0. -1.
        -11    1    3    3    0    0 -0.13460228702E+02 -0.15390977344E+02  0.23710671826E+02  0.31309038615E+02  0.51100000000E-03 0.  1.
         12    1    3    3    0    0 -0.55999530531E+01 -0.65487223162E+01 -0.51280786734E+01  0.10027084773E+02  0.00000000000E+00 0. -1.
</event>
<event>
 7    1  0.4836188E-013  0.5052886E+02  0.7816164E-02  0.1300439E+00
        -11   -1    0    0    0    0  0.00000000000E+00  0.00000000000E+00  0.45593999997E+02  0.45594000000E+02  0.51100000000E-03 0.  1.
         11   -1    0    0    0    0 -0.00000000000E+00 -0.00000000000E+00 -0.45593999997E+02  0.45594000000E+02  0.51100000000E-03 0. -1.
    9900012    2    1    2    0    0 -0.14170099532E+02 -0.37278209027E+02  0.79189263971E+01  0.50528856080E+02  0.29999988540E+02 0.  0.
         12    1    1    2    0    0  0.14170099532E+02  0.37278209027E+02 -0.79189263971E+01  0.40659143920E+02  0.00000000000E+00 0. -1.
         11    1    3    3    0    0  0.74557395209E+01 -0.13432350550E+02  0.65648196844E+01  0.16706673842E+02  0.51100000000E-03 0. -1.
        -11    1    3    3    0    0 -0.24180957978E+00  0.84548187349E+00  0.74489858286E+00  0.11524693623E+01  0.51100000000E-03 0.  1.
        -12    1    3    3    0    0 -0.21384029474E+02 -0.24691340351E+02  0.60920812992E+00  0.32669712876E+02  0.00000000000E+00 0.  1.
</event>
<event>
 7    1  0.4836188E-013  0.5052886E+02  0.7816164E-02  0.1300439E+00
        -11   -1    0    0    0    0  0.00000000000E+00  0.00000000000E+00  0.45593999997E+02  0.45594000000E+02  0.51100000000E-03 0.  1.
         11   -1    0    0    0    0 -0.00000000000E+00 -0.00000000000E+00 -0.45593999997E+02  0.45594000000E+02  0.51100000000E-03 0. -1.
    9900012    2    1    2    0    0  0.25509793896E+02  0.12429317199E+01  0.31636549036E+02  0.50528859591E+02  0.29999999213E+02 0.  0.
         12    1    1    2    0    0 -0.25509793896E+02 -0.12429317199E+01 -0.31636549036E+02  0.40659140409E+02  0.00000000000E+00 0. -1.
         11    1    3    3    0    0 -0.14670098843E+01  0.27753175121E+01  0.79494706658E+01  0.85468467531E+01  0.51100000000E-03 0. -1.
        -11    1    3    3    0    0  0.38815902530E+01  0.45751746118E+01 -0.25316202175E+01  0.65121476340E+01  0.51100000000E-03 0.  1.
        -12    1    3    3    0    0  0.23095213528E+02 -0.61075604041E+01  0.26218698587E+02  0.35469865204E+02  0.00000000000E+00 0.  1.
</event>
<event>
 7    1  0.4836188E-013  0.5052886E+02  0.7816164E-02  0.1300439E+00
        -11   -1    0    0    0    0  0.00000000000E+00  0.00000000000E+00  0.45593999997E+02  0.45594000000E+02  0.51100000000E-03 0.  1.
         11   -1    0    0    0    0 -0.00000000000E+00 -0.00000000000E+00 -0.45593999997E+02  0.45594000000E+02  0.51100000000E-03 0. -1.
    9900012    2    1    2    0    0 -0.15493829189E+02 -0.36911158837E+02 -0.71185302403E+01  0.50528857580E+02  0.29999993099E+02 0.  0.
         12    1    1    2    0    0  0.15493829189E+02  0.36911158837E+02  0.71185302403E+01  0.40659142420E+02  0.00000000000E+00 0. -1.
         11    1    3    3    0    0  0.18145717996E+01 -0.47775359412E+01 -0.87882912103E+01  0.10166198067E+02  0.51100000000E-03 0. -1.
        -11    1    3    3    0    0  0.30449052925E+01 -0.90723628989E+01  0.38431297069E+00  0.95774168506E+01  0.51100000000E-03 0.  1.
         12    1    3    3    0    0 -0.20353306281E+02 -0.23061259996E+02  0.12854479993E+01  0.30785242662E+02  0.00000000000E+00 0. -1.
</event>
<event>
 7    1  0.4836188E-013  0.5052886E+02  0.7816164E-02  0.1300439E+00
        -11   -1    0    0    0    0  0.00000000000E+00  0.00000000000E+00  0.45593999997E+02  0.45594000000E+02  0.51100000000E-03 0. -1.
         11   -1    0    0    0    0 -0.00000000000E+00 -0.00000000000E+00 -0.45593999997E+02  0.45594000000E+02  0.51100000000E-03 0.  1.
    9900012    2    1    2    0    0 -0.38858128350E+02 -0.58190144304E+01 -0.10457096389E+02  0.50528856714E+02  0.29999990469E+02 0.  0.
         12    1    1    2    0    0  0.38858128350E+02  0.58190144304E+01  0.10457096389E+02  0.40659143286E+02  0.00000000000E+00 0. -1.
         11    1    3    3    0    0 -0.17431192842E+02 -0.11762241807E+02 -0.21820763599E+01  0.21141387696E+02  0.51100000000E-03 0. -1.
        -11    1    3    3    0    0 -0.61059588802E+01 -0.39970149087E+01 -0.83954711270E+01  0.11123974008E+02  0.51100000000E-03 0.  1.
        -12    1    3    3    0    0 -0.15320976628E+02  0.99402422850E+01  0.12045109826E+00  0.18263495010E+02  0.00000000000E+00 0.  1.
</event>
<event>
 7    1  0.4836188E-013  0.5052886E+02  0.7816164E-02  0.1300439E+00
        -11   -1    0    0    0    0  0.00000000000E+00  0.00000000000E+00  0.45593999997E+02  0.45594000000E+02  0.51100000000E-03 0.  1.
         11   -1    0    0    0    0 -0.00000000000E+00 -0.00000000000E+00 -0.45593999997E+02  0.45594000000E+02  0.51100000000E-03 0. -1.
    9900012    2    1    2    0    0  0.25919261274E+02 -0.10622490856E+02  0.29470671937E+02  0.50528856854E+02  0.29999990893E+02 0.  0.
         12    1    1    2    0    0 -0.25919261274E+02  0.10622490856E+02 -0.29470671937E+02  0.40659143146E+02  0.00000000000E+00 0. -1.
         11    1    3    3    0    0  0.22825589713E+02 -0.76116027830E+01  0.21170479139E+02  0.32048919325E+02  0.51100000000E-03 0. -1.
        -11    1    3    3    0    0 -0.15489450937E+01 -0.79718211381E+01  0.84013989795E+01  0.11684719433E+02  0.51100000000E-03 0.  1.
         12    1    3    3    0    0  0.46426166546E+01  0.49609330655E+01 -0.10120618100E+00  0.67952180961E+01  0.00000000000E+00 0. -1.
</event>
<event>
 7    1  0.4836188E-013  0.5052887E+02  0.7816164E-02  0.1300439E+00
        -11   -1    0    0    0    0  0.00000000000E+00  0.00000000000E+00  0.45593999997E+02  0.45594000000E+02  0.51100000000E-03 0.  1.
         11   -1    0    0    0    0 -0.00000000000E+00 -0.00000000000E+00 -0.45593999997E+02  0.45594000000E+02  0.51100000000E-03 0. -1.
    9900012    2    1    2    0    0 -0.27702496386E+02  0.15759073944E+02  0.25246551466E+02  0.50528867219E+02  0.30000022398E+02 0.  0.
         12    1    1    2    0    0  0.27702496386E+02 -0.15759073944E+02 -0.25246551466E+02  0.40659132781E+02  0.00000000000E+00 0. -1.
         11    1    3    3    0    0 -0.14577511607E+02  0.12598228202E+02  0.77056906228E+01  0.20750828097E+02  0.51100000000E-03 0.  1.
        -11    1    3    3    0    0 -0.18187583928E+02  0.56024294991E+00  0.11760099680E+02  0.21665687758E+02  0.51100000000E-03 0. -1.
         12    1    3    3    0    0  0.50625991484E+01  0.26006027923E+01  0.57807611635E+01  0.81123513638E+01  0.00000000000E+00 0. -1.
</event>
<event>
 7    1  0.4836188E-013  0.5052885E+02  0.7816164E-02  0.1300439E+00
        -11   -1    0    0    0    0  0.00000000000E+00  0.00000000000E+00  0.45593999997E+02  0.45594000000E+02  0.51100000000E-03 0.  1.
         11   -1    0    0    0    0 -0.00000000000E+00 -0.00000000000E+00 -0.45593999997E+02  0.45594000000E+02  0.51100000000E-03 0. -1.
    9900012    2    1    2    0    0 -0.11394857679E+02 -0.38422373902E+02  0.68589331475E+01  0.50528848979E+02  0.29999966958E+02 0.  0.
         12    1    1    2    0    0  0.11394857679E+02  0.38422373902E+02 -0.68589331475E+01  0.40659151021E+02  0.00000000000E+00 0. -1.
         11    1    3    3    0    0  0.28477656080E+01 -0.39409297202E+01  0.56037196498E+01  0.74190545350E+01  0.51100000000E-03 0. -1.
        -11    1    3    3    0    0  0.27062602874E+01 -0.21490146735E+02  0.19165193380E+01  0.21744500410E+02  0.51100000000E-03 0.  1.
         12    1    3    3    0    0 -0.16948883575E+02 -0.12991297447E+02 -0.66130584032E+00  0.21365294035E+02  0.00000000000E+00 0. -1.
</event>
<event>
 7    1  0.4836188E-013  0.5052888E+02  0.7816164E-02  0.1300439E+00
        -11   -1    0    0    0    0  0.00000000000E+00  0.00000000000E+00  0.45593999997E+02  0.45594000000E+02  0.51100000000E-03 0.  1.
         11   -1    0    0    0    0 -0.00000000000E+00 -0.00000000000E+00 -0.45593999997E+02  0.45594000000E+02  0.51100000000E-03 0. -1.
    9900012    2    1    2    0    0 -0.19273760975E+02 -0.16186810161E+02  0.31932328464E+02  0.50528876959E+02  0.30000052006E+02 0.  0.
         12    1    1    2    0    0  0.19273760975E+02  0.16186810161E+02 -0.31932328464E+02  0.40659123041E+02  0.00000000000E+00 0. -1.
         11    1    3    3    0    0  0.31979670376E+01  0.23068120016E+01  0.45115829111E+01  0.59918908042E+01  0.51100000000E-03 0. -1.
        -11    1    3    3    0    0  0.29366053975E+01 -0.47477883273E+01  0.16418745968E+01  0.58190117472E+01  0.51100000000E-03 0.  1.
         12    1    3    3    0    0 -0.25408333410E+02 -0.13745833835E+02  0.25778870956E+02  0.38717974408E+02  0.00000000000E+00 0. -1.
</event>
<event>
 7    1  0.4836188E-013  0.5052886E+02  0.7816164E-02  0.1300439E+00
        -11   -1    0    0    0    0  0.00000000000E+00  0.00000000000E+00  0.45593999997E+02  0.45594000000E+02  0.51100000000E-03 0.  1.
         11   -1    0    0    0    0 -0.00000000000E+00 -0.00000000000E+00 -0.45593999997E+02  0.45594000000E+02  0.51100000000E-03 0. -1.
    9900012    2    1    2    0    0 -0.24833596197E+02 -0.10686690838E+02  0.30368610228E+02  0.50528863901E+02  0.30000012314E+02 0.  0.
         12    1    1    2    0    0  0.24833596197E+02  0.10686690838E+02 -0.30368610228E+02  0.40659136099E+02  0.00000000000E+00 0. -1.
         11    1    3    3    0    0 -0.12229729091E+02 -0.12390233401E+02  0.19545535719E+02  0.26174646591E+02  0.51100000000E-03 0. -1.
        -11    1    3    3    0    0 -0.11138008482E+02 -0.64184870276E+01  0.35062980243E+01  0.13324651393E+02  0.51100000000E-03 0.  1.
        -12    1    3    3    0    0 -0.14658586239E+01  0.81220295908E+01  0.73167764852E+01  0.11029565917E+02  0.00000000000E+00 0.  1.
</event>
<event>
 7    1  0.4836188E-013  0.5052886E+02  0.7816164E-02  0.1300439E+00
        -11   -1    0    0    0    0  0.00000000000E+00  0.00000000000E+00  0.45593999997E+02  0.45594000000E+02  0.51100000000E-03 0.  1.
         11   -1    0    0    0    0 -0.00000000000E+00 -0.00000000000E+00 -0.45593999997E+02  0.45594000000E+02  0.51100000000E-03 0. -1.
    9900012    2    1    2    0    0 -0.17174037279E+01 -0.62024811237E+01  0.40146549845E+02  0.50528859427E+02  0.29999998714E+02 0.  0.
         12    1    1    2    0    0  0.17174037279E+01  0.62024811237E+01 -0.40146549845E+02  0.40659140573E+02  0.00000000000E+00 0. -1.
         11    1    3    3    0    0  0.55920011526E+01  0.58558109462E+00  0.41684071762E+01  0.69992142957E+01  0.51100000000E-03 0. -1.
        -11    1    3    3    0    0  0.29141437889E+01 -0.56407660845E+01  0.31797083848E+02  0.32424759329E+02  0.51100000000E-03 0.  1.
         12    1    3    3    0    0 -0.10223548669E+02 -0.11472961338E+01  0.41810588208E+01  0.11104885802E+02  0.00000000000E+00 0. -1.
</event>
<event>
 7    1  0.4836188E-013  0.5052886E+02  0.7816164E-02  0.1300439E+00
        -11   -1    0    0    0    0  0.00000000000E+00  0.00000000000E+00  0.45593999997E+02  0.45594000000E+02  0.51100000000E-03 0.  1.
         11   -1    0    0    0    0 -0.00000000000E+00 -0.00000000000E+00 -0.45593999997E+02  0.45594000000E+02  0.51100000000E-03 0. -1.
    9900012    2    1    2    0    0  0.46579021543E+01 -0.36719793429E+02  0.16826368842E+02  0.50528856252E+02  0.29999989063E+02 0.  0.
         12    1    1    2    0    0 -0.46579021543E+01  0.36719793429E+02 -0.16826368842E+02  0.40659143748E+02  0.00000000000E+00 0. -1.
         11    1    3    3    0    0  0.21466999878E+01 -0.35652332207E+01 -0.39994915958E+01  0.57719270648E+01  0.51100000000E-03 0. -1.
        -11    1    3    3    0    0  0.11856603216E+02 -0.18278645902E+02  0.89632298015E+01  0.23559020026E+02  0.51100000000E-03 0.  1.
         12    1    3    3    0    0 -0.93454010492E+01 -0.14875914306E+02  0.11862630636E+02  0.21197909161E+02  0.00000000000E+00 0. -1.
</event>
<event>
 7    1  0.4836188E-013  0.5052886E+02  0.7816164E-02  0.1300439E+00
        -11   -1    0    0    0    0  0.00000000000E+00  0.00000000000E+00  0.45593999997E+02  0.45594000000E+02  0.51100000000E-03 0. -1.
         11   -1    0    0    0    0 -0.00000000000E+00 -0.00000000000E+00 -0.45593999997E+02  0.45594000000E+02  0.51100000000E-03 0.  1.
    9900012    2    1    2    0    0  0.36798068934E+02 -0.59299325984E+01  0.16245119931E+02  0.50528857124E+02  0.29999991714E+02 0.  0.
         12    1    1    2    0    0 -0.36798068934E+02  0.59299325984E+01 -0.16245119931E+02  0.40659142876E+02  0.00000000000E+00 0. -1.
         11    1    3    3    0    0  0.44438758865E+01 -0.12654250757E+02  0.33963399967E+01  0.13835216686E+02  0.51100000000E-03 0. -1.
        -11    1    3    3    0    0  0.25485664035E+02  0.26849000323E+01  0.12975377744E+02  0.28724348336E+02  0.51100000000E-03 0.  1.
        -12    1    3    3    0    0  0.68685290123E+01  0.40394181265E+01 -0.12659780999E+00  0.79692921015E+01  0.00000000000E+00 0.  1.
</event>
<event>
 7    1  0.4836188E-013  0.5052886E+02  0.7816164E-02  0.1300439E+00
        -11   -1    0    0    0    0  0.00000000000E+00  0.00000000000E+00  0.45593999997E+02  0.45594000000E+02  0.51100000000E-03 0. -1.
         11   -1    0    0    0    0 -0.00000000000E+00 -0.00000000000E+00 -0.45593999997E+02  0.45594000000E+02  0.51100000000E-03 0.  1.
    9900012    2    1    2    0    0 -0.60182510848E+01 -0.33107918486E+02 -0.22821307876E+02  0.50528859506E+02  0.29999998954E+02 0.  0.
         12    1    1    2    0    0  0.60182510848E+01  0.33107918486E+02  0.22821307876E+02  0.40659140494E+02  0.00000000000E+00 0. -1.
         11    1    3    3    0    0  0.36597522691E+01 -0.22151218142E+02 -0.18592310941E+02  0.29150373552E+02  0.51100000000E-03 0. -1.
        -11    1    3    3    0    0 -0.18611707272E+01 -0.12537751262E+02 -0.80882750598E+00  0.12700919864E+02  0.51100000000E-03 0.  1.
         12    1    3    3    0    0 -0.78168326267E+01  0.15810509186E+01 -0.34201694294E+01  0.86775660901E+01  0.00000000000E+00 0. -1.
</event>
<event>
 7    1  0.4836188E-013  0.5052887E+02  0.7816164E-02  0.1300439E+00
        -11   -1    0    0    0    0  0.00000000000E+00  0.00000000000E+00  0.45593999997E+02  0.45594000000E+02  0.51100000000E-03 0. -1.
         11   -1    0    0    0    0 -0.00000000000E+00 -0.00000000000E+00 -0.45593999997E+02  0.45594000000E+02  0.51100000000E-03 0.  1.
    9900012    2    1    2    0    0 -0.32087210255E+02  0.23134120351E+02 -0.94015170797E+01  0.50528866835E+02  0.30000021232E+02 0.  0.
         12    1    1    2    0    0  0.32087210255E+02 -0.23134120351E+02  0.94015170797E+01  0.40659133165E+02  0.00000000000E+00 0. -1.
         11    1    3    3    0    0 -0.13025552580E+01 -0.26941622865E+01 -0.67044393525E+01  0.73419798365E+01  0.51100000000E-03 0. -1.
        -11    1    3    3    0    0 -0.14084122002E+02  0.55994833774E+01  0.48110279761E+01  0.15901657055E+02  0.51100000000E-03 0.  1.
         12    1    3    3    0    0 -0.16700532995E+02  0.20228799260E+02 -0.75081057032E+01  0.27285229943E+02  0.00000000000E+00 0. -1.
</event>
<event>
 7    1  0.4836188E-013  0.5052886E+02  0.7816164E-02  0.1300439E+00
        -11   -1    0    0    0    0  0.00000000000E+00  0.00000000000E+00  0.45593999997E+02  0.45594000000E+02  0.51100000000E-03 0.  1.
         11   -1    0    0    0    0 -0.00000000000E+00 -0.00000000000E+00 -0.45593999997E+02  0.45594000000E+02  0.51100000000E-03 0. -1.
    9900012    2    1    2    0    0  0.10104954957E+02 -0.39218754937E+02  0.35979437656E+01  0.50528855237E+02  0.29999985978E+02 0.  0.
         12    1    1    2    0    0 -0.10104954957E+02  0.39218754937E+02 -0.35979437656E+01  0.40659144763E+02  0.00000000000E+00 0. -1.
         11    1    3    3    0    0  0.95277823319E+00  0.29274828278E+01 -0.58377245000E+00  0.31334856954E+01  0.51100000000E-03 0. -1.
        -11    1    3    3    0    0 -0.34351234937E+01 -0.23093202198E+02 -0.28045198583E+01  0.23515131151E+02  0.51100000000E-03 0.  1.
        -12    1    3    3    0    0  0.12587300217E+02 -0.19053035568E+02  0.69862360739E+01  0.23880238390E+02  0.00000000000E+00 0.  1.
</event>
<event>
 7    1  0.4836188E-013  0.5052886E+02  0.7816164E-02  0.1300439E+00
        -11   -1    0    0    0    0  0.00000000000E+00  0.00000000000E+00  0.45593999997E+02  0.45594000000E+02  0.51100000000E-03 0. -1.
         11   -1    0    0    0    0 -0.00000000000E+00 -0.00000000000E+00 -0.45593999997E+02  0.45594000000E+02  0.51100000000E-03 0.  1.
    9900012    2    1    2    0    0 -0.35774923016E+02 -0.96961441246E+01 -0.16712433267E+02  0.50528858920E+02  0.29999997174E+02 0.  0.
         12    1    1    2    0    0  0.35774923016E+02  0.96961441246E+01  0.16712433267E+02  0.40659141080E+02  0.00000000000E+00 0. -1.
         11    1    3    3    0    0 -0.53075352603E+01  0.49954075408E+01 -0.21378709609E+01  0.75956908536E+01  0.51100000000E-03 0. -1.
        -11    1    3    3    0    0 -0.77570645402E+01 -0.49116833278E+01 -0.15692768196E+02  0.18181299660E+02  0.51100000000E-03 0.  1.
        -12    1    3    3    0    0 -0.22710323215E+02 -0.97798683375E+01  0.11182058903E+01  0.24751868407E+02  0.00000000000E+00 0.  1.
</event>
<event>
 7    1  0.4836188E-013  0.5052887E+02  0.7816164E-02  0.1300439E+00
        -11   -1    0    0    0    0  0.00000000000E+00  0.00000000000E+00  0.45593999997E+02  0.45594000000E+02  0.51100000000E-03 0. -1.
         11   -1    0    0    0    0 -0.00000000000E+00 -0.00000000000E+00 -0.45593999997E+02  0.45594000000E+02  0.51100000000E-03 0.  1.
    9900012    2    1    2    0    0  0.39480309001E+02 -0.33767037243E+01 -0.91141706993E+01  0.50528867761E+02  0.30000024048E+02 0.  0.
         12    1    1    2    0    0 -0.39480309001E+02  0.33767037243E+01  0.91141706993E+01  0.40659132239E+02  0.00000000000E+00 0. -1.
         11    1    3    3    0    0 -0.12929690771E+00  0.27064312757E+01 -0.12250355634E+01  0.29735837525E+01  0.51100000000E-03 0. -1.
        -11    1    3    3    0    0  0.22824363959E+02 -0.14529602757E+02 -0.95472550384E+01  0.28691654282E+02  0.51100000000E-03 0.  1.
         12    1    3    3    0    0  0.16785241950E+02  0.84464677566E+01  0.16581199025E+01  0.18863629727E+02  0.00000000000E+00 0. -1.
</event>
<event>
 7    1  0.4836188E-013  0.5052890E+02  0.7816164E-02  0.1300439E+00
        -11   -1    0    0    0    0  0.00000000000E+00  0.00000000000E+00  0.45593999997E+02  0.45594000000E+02  0.51100000000E-03 0.  1.
         11   -1    0    0    0    0 -0.00000000000E+00 -0.00000000000E+00 -0.45593999997E+02  0.45594000000E+02  0.51100000000E-03 0. -1.
    9900012    2    1    2    0    0  0.68257547715E+01 -0.26656990025E+02  0.29932859502E+02  0.50528903560E+02  0.30000132859E+02 0.  0.
         12    1    1    2    0    0 -0.68257547715E+01  0.26656990025E+02 -0.29932859502E+02  0.40659096440E+02  0.00000000000E+00 0. -1.
         11    1    3    3    0    0  0.78676950628E+01 -0.73535169553E+01  0.84926047689E+01  0.13714925200E+02  0.51100000000E-03 0. -1.
        -11    1    3    3    0    0  0.94000691139E+01 -0.97932139537E+01  0.17506210990E+02  0.22152556565E+02  0.51100000000E-03 0.  1.
         12    1    3    3    0    0 -0.10442009405E+02 -0.95102591161E+01  0.39340437432E+01  0.14661421795E+02  0.00000000000E+00 0. -1.
</event>
<event>
 7    1  0.4836188E-013  0.5052885E+02  0.7816164E-02  0.1300439E+00
        -11   -1    0    0    0    0  0.00000000000E+00  0.00000000000E+00  0.45593999997E+02  0.45594000000E+02  0.51100000000E-03 0.  1.
         11   -1    0    0    0    0 -0.00000000000E+00 -0.00000000000E+00 -0.45593999997E+02  0.45594000000E+02  0.51100000000E-03 0. -1.
    9900012    2    1    2    0    0 -0.16886164340E+01  0.36070866299E+02  0.18687093205E+02  0.50528852524E+02  0.29999977733E+02 0.  0.
         12    1    1    2    0    0  0.16886164340E+01 -0.36070866299E+02 -0.18687093205E+02  0.40659147476E+02  0.00000000000E+00 0. -1.
         11    1    3    3    0    0  0.31606499822E+01  0.39106577202E+01 -0.50579454167E+01  0.71320238512E+01  0.51100000000E-03 0. -1.
        -11    1    3    3    0    0  0.48240030740E+01  0.35397412463E+01  0.53486199612E+01  0.80254912310E+01  0.51100000000E-03 0.  1.
        -12    1    3    3    0    0 -0.96732694902E+01  0.28620467332E+02  0.18396418660E+02  0.35371337442E+02  0.00000000000E+00 0.  1.
</event>
<event>
 7    1  0.4836188E-013  0.5052885E+02  0.7816164E-02  0.1300439E+00
        -11   -1    0    0    0    0  0.00000000000E+00  0.00000000000E+00  0.45593999997E+02  0.45594000000E+02  0.51100000000E-03 0.  1.
         11   -1    0    0    0    0 -0.00000000000E+00 -0.00000000000E+00 -0.45593999997E+02  0.45594000000E+02  0.51100000000E-03 0. -1.
    9900012    2    1    2    0    0  0.29036599029E+02  0.28415776361E+02 -0.16081624891E+01  0.50528848312E+02  0.29999964930E+02 0.  0.
         12    1    1    2    0    0 -0.29036599029E+02 -0.28415776361E+02  0.16081624891E+01  0.40659151688E+02  0.00000000000E+00 0. -1.
         11    1    3    3    0    0  0.98558027232E+00  0.42648379246E+00  0.64051213981E+01  0.64945236380E+01  0.51100000000E-03 0. -1.
        -11    1    3    3    0    0  0.16829418044E+02  0.58870648688E+01  0.46866843524E+00  0.17835540217E+02  0.51100000000E-03 0.  1.
        -12    1    3    3    0    0  0.11221600713E+02  0.22102227700E+02 -0.84819523224E+01  0.26198784458E+02  0.00000000000E+00 0.  1.
</event>
<event>
 7    1  0.4836188E-013  0.5052887E+02  0.7816164E-02  0.1300439E+00
        -11   -1    0    0    0    0  0.00000000000E+00  0.00000000000E+00  0.45593999997E+02  0.45594000000E+02  0.51100000000E-03 0.  1.
         11   -1    0    0    0    0 -0.00000000000E+00 -0.00000000000E+00 -0.45593999997E+02  0.45594000000E+02  0.51100000000E-03 0. -1.
    9900012    2    1    2    0    0 -0.62118033775E+01  0.40172204083E+02 -0.87891205934E+00  0.50528868572E+02  0.30000026511E+02 0.  0.
         12    1    1    2    0    0  0.62118033775E+01 -0.40172204083E+02  0.87891205934E+00  0.40659131428E+02  0.00000000000E+00 0. -1.
         11    1    3    3    0    0  0.94297766560E+01  0.15419017584E+02 -0.37255099233E+01  0.18453894317E+02  0.51100000000E-03 0. -1.
        -11    1    3    3    0    0 -0.28602353772E+01  0.15414043666E+02 -0.12401801877E+01  0.15726148152E+02  0.51100000000E-03 0.  1.
         12    1    3    3    0    0 -0.12781344656E+02  0.93391428335E+01  0.40867780517E+01  0.16348826103E+02  0.00000000000E+00 0. -1.
</event>
<event>
 7    1  0.4836188E-013  0.5052875E+02  0.7816164E-02  0.1300439E+00
        -11   -1    0    0    0    0  0.00000000000E+00  0.00000000000E+00  0.45593999997E+02  0.45594000000E+02  0.51100000000E-03 0. -1.
         11   -1    0    0    0    0 -0.00000000000E+00 -0.00000000000E+00 -0.45593999997E+02  0.45594000000E+02  0.51100000000E-03 0.  1.
    9900012    2    1    2    0    0 -0.15505017078E+02 -0.12916723082E+02 -0.35297692424E+02  0.50528752833E+02  0.29999674708E+02 0.  0.
         12    1    1    2    0    0  0.15505017078E+02  0.12916723082E+02  0.35297692424E+02  0.40659247167E+02  0.00000000000E+00 0. -1.
         11    1    3    3    0    0  0.22554545739E+01 -0.69718100513E+01 -0.13013802260E+02  0.14934934223E+02  0.51100000000E-03 0. -1.
        -11    1    3    3    0    0 -0.89315281078E+01  0.35708833774E+00 -0.23046931231E+02  0.24719642915E+02  0.51100000000E-03 0.  1.
         12    1    3    3    0    0 -0.88289435442E+01 -0.63020013687E+01  0.76304106722E+00  0.10874175694E+02  0.00000000000E+00 0. -1.
</event>
<event>
 7    1  0.4836188E-013  0.5052886E+02  0.7816164E-02  0.1300439E+00
        -11   -1    0    0    0    0  0.00000000000E+00  0.00000000000E+00  0.45593999997E+02  0.45594000000E+02  0.51100000000E-03 0.  1.
         11   -1    0    0    0    0 -0.00000000000E+00 -0.00000000000E+00 -0.45593999997E+02  0.45594000000E+02  0.51100000000E-03 0. -1.
    9900012    2    1    2    0    0  0.25008930730E+02 -0.30560008026E+02  0.96852761738E+01  0.50528864724E+02  0.30000014815E+02 0.  0.
         12    1    1    2    0    0 -0.25008930730E+02  0.30560008026E+02 -0.96852761738E+01  0.40659135276E+02  0.00000000000E+00 0. -1.
         11    1    3    3    0    0  0.11945849761E+02 -0.16786967673E+02 -0.20236248322E+01  0.20702672965E+02  0.51100000000E-03 0. -1.
        -11    1    3    3    0    0  0.16934015601E+02 -0.54950371988E+01  0.50077370423E+01  0.18494154448E+02  0.51100000000E-03 0.  1.
         12    1    3    3    0    0 -0.38709346323E+01 -0.82780031545E+01  0.67011639637E+01  0.11332037311E+02  0.00000000000E+00 0. -1.
</event>
<event>
 7    1  0.4836188E-013  0.5052885E+02  0.7816164E-02  0.1300439E+00
        -11   -1    0    0    0    0  0.00000000000E+00  0.00000000000E+00  0.45593999997E+02  0.45594000000E+02  0.51100000000E-03 0.  1.
         11   -1    0    0    0    0 -0.00000000000E+00 -0.00000000000E+00 -0.45593999997E+02  0.45594000000E+02  0.51100000000E-03 0. -1.
    9900012    2    1    2    0    0  0.31396780513E+02 -0.25824234438E+02 -0.71949802696E+00  0.50528848653E+02  0.29999965964E+02 0.  0.
         12    1    1    2    0    0 -0.31396780513E+02  0.25824234438E+02  0.71949802696E+00  0.40659151347E+02  0.00000000000E+00 0. -1.
         11    1    3    3    0    0  0.11900141223E+02 -0.77382021614E+01 -0.11293136531E+02  0.18139130816E+02  0.51100000000E-03 0. -1.
        -11    1    3    3    0    0  0.47844159896E+01  0.53612472442E+00  0.68412636513E+01  0.83654620129E+01  0.51100000000E-03 0.  1.
        -12    1    3    3    0    0  0.14712223300E+02 -0.18622157001E+02  0.37323748525E+01  0.24024255823E+02  0.00000000000E+00 0.  1.
</event>
<event>
 7    1  0.4836188E-013  0.5052887E+02  0.7816164E-02  0.1300439E+00
        -11   -1    0    0    0    0  0.00000000000E+00  0.00000000000E+00  0.45593999997E+02  0.45594000000E+02  0.51100000000E-03 0.  1.
         11   -1    0    0    0    0 -0.00000000000E+00 -0.00000000000E+00 -0.45593999997E+02  0.45594000000E+02  0.51100000000E-03 0. -1.
    9900012    2    1    2    0    0  0.43006645910E+00  0.35000630446E+02  0.20686616290E+02  0.50528865943E+02  0.30000018520E+02 0.  0.
         12    1    1    2    0    0 -0.43006645910E+00 -0.35000630446E+02 -0.20686616290E+02  0.40659134057E+02  0.00000000000E+00 0. -1.
         11    1    3    3    0    0  0.51095802932E+01  0.32074440701E+01 -0.27967213438E+01  0.66495983918E+01  0.51100000000E-03 0.  1.
        -11    1    3    3    0    0  0.28078012685E+01  0.20918415019E+01  0.96581404916E+01  0.10273228648E+02  0.51100000000E-03 0. -1.
        -12    1    3    3    0    0 -0.74873151026E+01  0.29701344874E+02  0.13825197142E+02  0.33606038903E+02  0.00000000000E+00 0.  1.
</event>
<event>
 7    1  0.4836188E-013  0.5052886E+02  0.7816164E-02  0.1300439E+00
        -11   -1    0    0    0    0  0.00000000000E+00  0.00000000000E+00  0.45593999997E+02  0.45594000000E+02  0.51100000000E-03 0.  1.
         11   -1    0    0    0    0 -0.00000000000E+00 -0.00000000000E+00 -0.45593999997E+02  0.45594000000E+02  0.51100000000E-03 0. -1.
    9900012    2    1    2    0    0 -0.13709056963E+02 -0.31712961821E+02  0.21436321402E+02  0.50528855081E+02  0.29999985504E+02 0.  0.
         12    1    1    2    0    0  0.13709056963E+02  0.31712961821E+02 -0.21436321402E+02  0.40659144919E+02  0.00000000000E+00 0. -1.
         11    1    3    3    0    0 -0.49091433912E+00 -0.50226739773E+01 -0.34521450844E+01  0.61143729618E+01  0.51100000000E-03 0. -1.
        -11    1    3    3    0    0 -0.17332169421E+02 -0.15270950838E+02  0.99112007859E+01  0.25136386725E+02  0.51100000000E-03 0.  1.
        -12    1    3    3    0    0  0.41140267974E+01 -0.11419337006E+02  0.14977265700E+02  0.19278095394E+02  0.00000000000E+00 0.  1.
</event>
<event>
 7    1  0.4836188E-013  0.5052883E+02  0.7816164E-02  0.1300439E+00
        -11   -1    0    0    0    0  0.00000000000E+00  0.00000000000E+00  0.45593999997E+02  0.45594000000E+02  0.51100000000E-03 0.  1.
         11   -1    0    0    0    0 -0.00000000000E+00 -0.00000000000E+00 -0.45593999997E+02  0.45594000000E+02  0.51100000000E-03 0. -1.
    9900012    2    1    2    0    0 -0.16972632717E+02  0.29813739938E+02  0.21822890584E+02  0.50528832474E+02  0.29999916787E+02 0.  0.
         12    1    1    2    0    0  0.16972632717E+02 -0.29813739938E+02 -0.21822890584E+02  0.40659167526E+02  0.00000000000E+00 0. -1.
         11    1    3    3    0    0 -0.57277338493E+01  0.24237215053E+02  0.73558998851E+01  0.25968419127E+02  0.51100000000E-03 0. -1.
        -11    1    3    3    0    0 -0.16362747903E+01  0.79356490035E+01  0.11798622313E+02  0.14312910572E+02  0.51100000000E-03 0.  1.
         12    1    3    3    0    0 -0.96086240778E+01 -0.23591241184E+01  0.26683683866E+01  0.10247502775E+02  0.00000000000E+00 0. -1.
</event>
<event>
 7    1  0.4836188E-013  0.5052888E+02  0.7816164E-02  0.1300439E+00
        -11   -1    0    0    0    0  0.00000000000E+00  0.00000000000E+00  0.45593999997E+02  0.45594000000E+02  0.51100000000E-03 0.  1.
         11   -1    0    0    0    0 -0.00000000000E+00 -0.00000000000E+00 -0.45593999997E+02  0.45594000000E+02  0.51100000000E-03 0. -1.
    9900012    2    1    2    0    0  0.33104844049E+02  0.12916636859E+02  0.19758391130E+02  0.50528877687E+02  0.30000054216E+02 0.  0.
         12    1    1    2    0    0 -0.33104844049E+02 -0.12916636859E+02 -0.19758391130E+02  0.40659122313E+02  0.00000000000E+00 0. -1.
         11    1    3    3    0    0  0.15965050055E+02  0.18859303745E+01  0.18338599590E+02  0.24387369514E+02  0.51100000000E-03 0. -1.
        -11    1    3    3    0    0  0.57599956326E+01  0.10919264198E+02  0.61798897239E+01  0.13805756682E+02  0.51100000000E-03 0.  1.
         12    1    3    3    0    0  0.11379798361E+02  0.11144228661E+00 -0.47600981833E+01  0.12335751490E+02  0.00000000000E+00 0. -1.
</event>
<event>
 7    1  0.4836188E-013  0.5052886E+02  0.7816164E-02  0.1300439E+00
        -11   -1    0    0    0    0  0.00000000000E+00  0.00000000000E+00  0.45593999997E+02  0.45594000000E+02  0.51100000000E-03 0.  1.
         11   -1    0    0    0    0 -0.00000000000E+00 -0.00000000000E+00 -0.45593999997E+02  0.45594000000E+02  0.51100000000E-03 0. -1.
    9900012    2    1    2    0    0  0.18205708843E+01 -0.22981919259E+02  0.33491533489E+02  0.50528857035E+02  0.29999991445E+02 0.  0.
         12    1    1    2    0    0 -0.18205708843E+01  0.22981919259E+02 -0.33491533489E+02  0.40659142965E+02  0.00000000000E+00 0. -1.
         11    1    3    3    0    0  0.27233690218E+01 -0.17475770770E+01  0.14584084909E+01  0.35493267047E+01  0.51100000000E-03 0. -1.
        -11    1    3    3    0    0 -0.14822447241E+01 -0.26056181352E+02  0.32953712827E+02  0.42036517760E+02  0.51100000000E-03 0.  1.
        -12    1    3    3    0    0  0.57944658651E+00  0.48218391696E+01 -0.92058782900E+00  0.49430125707E+01  0.00000000000E+00 0.  1.
</event>
<event>
 7    1  0.4836188E-013  0.5052885E+02  0.7816164E-02  0.1300439E+00
        -11   -1    0    0    0    0  0.00000000000E+00  0.00000000000E+00  0.45593999997E+02  0.45594000000E+02  0.51100000000E-03 0. -1.
         11   -1    0    0    0    0 -0.00000000000E+00 -0.00000000000E+00 -0.45593999997E+02  0.45594000000E+02  0.51100000000E-03 0.  1.
    9900012    2    1    2    0    0  0.68368231204E+01 -0.39855665913E+02  0.42367615262E+01  0.50528850919E+02  0.29999972853E+02 0.  0.
         12    1    1    2    0    0 -0.68368231204E+01  0.39855665913E+02 -0.42367615262E+01  0.40659149081E+02  0.00000000000E+00 0. -1.
         11    1    3    3    0    0 -0.17886219454E+01 -0.14465492671E+01 -0.11285738848E+01  0.25622943860E+01  0.51100000000E-03 0. -1.
        -11    1    3    3    0    0  0.69831255281E+01 -0.18602347042E+02  0.15921989708E+02  0.25462150619E+02  0.51100000000E-03 0.  1.
        -12    1    3    3    0    0  0.16423195378E+01 -0.19806769604E+02 -0.10556654297E+02  0.22504405914E+02  0.00000000000E+00 0.  1.
</event>
<event>
 7    1  0.4836188E-013  0.5052886E+02  0.7816164E-02  0.1300439E+00
        -11   -1    0    0    0    0  0.00000000000E+00  0.00000000000E+00  0.45593999997E+02  0.45594000000E+02  0.51100000000E-03 0. -1.
         11   -1    0    0    0    0 -0.00000000000E+00 -0.00000000000E+00 -0.45593999997E+02  0.45594000000E+02  0.51100000000E-03 0.  1.
    9900012    2    1    2    0    0 -0.62980501193E+01  0.39001193515E+02 -0.96128524381E+01  0.50528862492E+02  0.30000008029E+02 0.  0.
         12    1    1    2    0    0  0.62980501193E+01 -0.39001193515E+02  0.96128524381E+01  0.40659137508E+02  0.00000000000E+00 0. -1.
         11    1    3    3    0    0 -0.75749692118E+01  0.98919962799E+01 -0.43931319905E+01  0.13211031675E+02  0.51100000000E-03 0. -1.
        -11    1    3    3    0    0  0.19354556155E+01  0.32804228064E+02 -0.61945792016E+01  0.33440038563E+02  0.51100000000E-03 0.  1.
         12    1    3    3    0    0 -0.65853652310E+00 -0.36950308287E+01  0.97485875400E+00  0.38777922543E+01  0.00000000000E+00 0. -1.
</event>
<event>
 7    1  0.4836188E-013  0.5052885E+02  0.7816164E-02  0.1300439E+00
        -11   -1    0    0    0    0  0.00000000000E+00  0.00000000000E+00  0.45593999997E+02  0.45594000000E+02  0.51100000000E-03 0. -1.
         11   -1    0    0    0    0 -0.00000000000E+00 -0.00000000000E+00 -0.45593999997E+02  0.45594000000E+02  0.51100000000E-03 0.  1.
    9900012    2    1    2    0    0  0.35344013730E+02  0.59444176907E+01 -0.19199772601E+02  0.50528847572E+02  0.29999962679E+02 0.  0.
         12    1    1    2    0    0 -0.35344013730E+02 -0.59444176907E+01  0.19199772601E+02  0.40659152428E+02  0.00000000000E+00 0. -1.
         11    1    3    3    0    0  0.92448437150E+01 -0.26505524428E+01 -0.32602028526E+01  0.10154875010E+02  0.51100000000E-03 0. -1.
        -11    1    3    3    0    0  0.76960115408E+01  0.11692834334E+01 -0.18777660322E+02  0.20327231607E+02  0.51100000000E-03 0.  1.
         12    1    3    3    0    0  0.18403158474E+02  0.74256867001E+01  0.28380905731E+01  0.20046740955E+02  0.00000000000E+00 0. -1.
</event>
<event>
 7    1  0.4836188E-013  0.5052890E+02  0.7816164E-02  0.1300439E+00
        -11   -1    0    0    0    0  0.00000000000E+00  0.00000000000E+00  0.45593999997E+02  0.45594000000E+02  0.51100000000E-03 0.  1.
         11   -1    0    0    0    0 -0.00000000000E+00 -0.00000000000E+00 -0.45593999997E+02  0.45594000000E+02  0.51100000000E-03 0. -1.
    9900012    2    1    2    0    0  0.33946592806E+02  0.14853471980E+02  0.16738154950E+02  0.50528897401E+02  0.30000114140E+02 0.  0.
         12    1    1    2    0    0 -0.33946592806E+02 -0.14853471980E+02 -0.16738154950E+02  0.40659102599E+02  0.00000000000E+00 0. -1.
         11    1    3    3    0    0 -0.23141093866E+01 -0.34602104277E+01 -0.39633671589E+00  0.41815357837E+01  0.51100000000E-03 0. -1.
        -11    1    3    3    0    0  0.58597921965E+01  0.23405624318E+00  0.78128067933E+01  0.97689250771E+01  0.51100000000E-03 0.  1.
        -12    1    3    3    0    0  0.30400909996E+02  0.18079626165E+02  0.93216848721E+01  0.36578436540E+02  0.00000000000E+00 0.  1.
</event>
<event>
 7    1  0.4836188E-013  0.5052887E+02  0.7816164E-02  0.1300439E+00
        -11   -1    0    0    0    0  0.00000000000E+00  0.00000000000E+00  0.45593999997E+02  0.45594000000E+02  0.51100000000E-03 0. -1.
         11   -1    0    0    0    0 -0.00000000000E+00 -0.00000000000E+00 -0.45593999997E+02  0.45594000000E+02  0.51100000000E-03 0.  1.
    9900012    2    1    2    0    0  0.13179713389E+02  0.36979703159E+02  0.10581205355E+02  0.50528865756E+02  0.30000017952E+02 0.  0.
         12    1    1    2    0    0 -0.13179713389E+02 -0.36979703159E+02 -0.10581205355E+02  0.40659134244E+02  0.00000000000E+00 0. -1.
         11    1    3    3    0    0 -0.23173073240E+01  0.12115379451E+01  0.35086078734E+00  0.26383405730E+01  0.51100000000E-03 0. -1.
        -11    1    3    3    0    0  0.59166633724E+01  0.36067033225E+02  0.47693582538E+01  0.36858982210E+02  0.51100000000E-03 0.  1.
        -12    1    3    3    0    0  0.95803573401E+01 -0.29886801153E+00  0.54609863138E+01  0.11031542973E+02  0.00000000000E+00 0.  1.
</event>
<event>
 7    1  0.4836188E-013  0.5052886E+02  0.7816164E-02  0.1300439E+00
        -11   -1    0    0    0    0  0.00000000000E+00  0.00000000000E+00  0.45593999997E+02  0.45594000000E+02  0.51100000000E-03 0.  1.
         11   -1    0    0    0    0 -0.00000000000E+00 -0.00000000000E+00 -0.45593999997E+02  0.45594000000E+02  0.51100000000E-03 0. -1.
    9900012    2    1    2    0    0  0.18028619267E+02  0.15222350069E+02  0.33112150295E+02  0.50528861402E+02  0.30000004719E+02 0.  0.
         12    1    1    2    0    0 -0.18028619267E+02 -0.15222350069E+02 -0.33112150295E+02  0.40659138598E+02  0.00000000000E+00 0. -1.
         11    1    3    3    0    0 -0.77412035812E+00  0.19355013288E+01  0.13845761351E+00  0.20891621513E+01  0.51100000000E-03 0. -1.
        -11    1    3    3    0    0  0.22214742759E+02  0.18622250841E+02  0.25176033536E+02  0.38394214240E+02  0.51100000000E-03 0.  1.
        -12    1    3    3    0    0 -0.34120031331E+01 -0.53354021009E+01  0.77976591456E+01  0.10045485011E+02  0.00000000000E+00 0.  1.
</event>
<event>
 7    1  0.4836188E-013  0.5052887E+02  0.7816164E-02  0.1300439E+00
        -11   -1    0    0    0    0  0.00000000000E+00  0.00000000000E+00  0.45593999997E+02  0.45594000000E+02  0.51100000000E-03 0.  1.
         11   -1    0    0    0    0 -0.00000000000E+00 -0.00000000000E+00 -0.45593999997E+02  0.45594000000E+02  0.51100000000E-03 0. -1.
    9900012    2    1    2    0    0 -0.34699960665E+02  0.10817837128E+02  0.18222283693E+02  0.50528874416E+02  0.30000044275E+02 0.  0.
         12    1    1    2    0    0  0.34699960665E+02 -0.10817837128E+02 -0.18222283693E+02  0.40659125584E+02  0.00000000000E+00 0. -1.
         11    1    3    3    0    0 -0.10791101216E+01  0.19493532653E+01  0.64123839927E+01  0.67884553131E+01  0.51100000000E-03 0. -1.
        -11    1    3    3    0    0 -0.27606466034E+02  0.93205473258E+00  0.17077587278E+02  0.32475062438E+02  0.51100000000E-03 0.  1.
         12    1    3    3    0    0 -0.60143845092E+01  0.79364291304E+01 -0.52676875775E+01  0.11265356665E+02  0.00000000000E+00 0. -1.
</event>
<event>
 7    1  0.4836188E-013  0.5052886E+02  0.7816164E-02  0.1300439E+00
        -11   -1    0    0    0    0  0.00000000000E+00  0.00000000000E+00  0.45593999997E+02  0.45594000000E+02  0.51100000000E-03 0.  1.
         11   -1    0    0    0    0 -0.00000000000E+00 -0.00000000000E+00 -0.45593999997E+02  0.45594000000E+02  0.51100000000E-03 0. -1.
    9900012    2    1    2    0    0 -0.24267472495E+02  0.11259822016E+00  0.32622733889E+02  0.50528859993E+02  0.30000000436E+02 0.  0.
         12    1    1    2    0    0  0.24267472495E+02 -0.11259822016E+00 -0.32622733889E+02  0.40659140007E+02  0.00000000000E+00 0. -1.
         11    1    3    3    0    0 -0.13403970344E+02  0.85180323944E+00  0.59473428681E+01  0.14688869160E+02  0.51100000000E-03 0. -1.
        -11    1    3    3    0    0 -0.13070103983E+02  0.77187669668E+01  0.17547573935E+02  0.23201817447E+02  0.51100000000E-03 0.  1.
        -12    1    3    3    0    0  0.22066018321E+01 -0.84579719861E+01  0.91278170867E+01  0.12638173386E+02  0.00000000000E+00 0.  1.
</event>
<event>
 7    1  0.4836188E-013  0.5052882E+02  0.7816164E-02  0.1300439E+00
        -11   -1    0    0    0    0  0.00000000000E+00  0.00000000000E+00  0.45593999997E+02  0.45594000000E+02  0.51100000000E-03 0.  1.
         11   -1    0    0    0    0 -0.00000000000E+00 -0.00000000000E+00 -0.45593999997E+02  0.45594000000E+02  0.51100000000E-03 0. -1.
    9900012    2    1    2    0    0 -0.45931241373E+00  0.24347020805E+02  0.32560418126E+02  0.50528816307E+02  0.29999867648E+02 0.  0.
         12    1    1    2    0    0  0.45931241373E+00 -0.24347020805E+02 -0.32560418126E+02  0.40659183693E+02  0.00000000000E+00 0. -1.
         11    1    3    3    0    0  0.61458625902E+01  0.11772613938E+02 -0.60314166771E+00  0.13293977811E+02  0.51100000000E-03 0. -1.
        -11    1    3    3    0    0 -0.10329184541E+01 -0.14774385440E+01  0.31440931624E+01  0.36242333340E+01  0.51100000000E-03 0.  1.
        -12    1    3    3    0    0 -0.55722565498E+01  0.14051845411E+02  0.30019466632E+02  0.33610605162E+02  0.00000000000E+00 0.  1.
</event>
<event>
 7    1  0.4836188E-013  0.5052886E+02  0.7816164E-02  0.1300439E+00
        -11   -1    0    0    0    0  0.00000000000E+00  0.00000000000E+00  0.45593999997E+02  0.45594000000E+02  0.51100000000E-03 0.  1.
         11   -1    0    0    0    0 -0.00000000000E+00 -0.00000000000E+00 -0.45593999997E+02  0.45594000000E+02  0.51100000000E-03 0. -1.
    9900012    2    1    2    0    0 -0.21165527517E+02  0.11913470053E+02  0.32607596063E+02  0.50528860255E+02  0.30000001231E+02 0.  0.
         12    1    1    2    0    0  0.21165527517E+02 -0.11913470053E+02 -0.32607596063E+02  0.40659139745E+02  0.00000000000E+00 0. -1.
         11    1    3    3    0    0  0.87996031176E+00  0.57679840438E+01  0.42110964507E+01  0.71956447702E+01  0.51100000000E-03 0. -1.
        -11    1    3    3    0    0 -0.11810093128E+01 -0.22061479346E+01  0.18683257200E+02  0.18850092084E+02  0.51100000000E-03 0.  1.
        -12    1    3    3    0    0 -0.20864478516E+02  0.83516339441E+01  0.97132424122E+01  0.24483123401E+02  0.00000000000E+00 0.  1.
</event>
<event>
 7    1  0.4836188E-013  0.5052885E+02  0.7816164E-02  0.1300439E+00
        -11   -1    0    0    0    0  0.00000000000E+00  0.00000000000E+00  0.45593999997E+02  0.45594000000E+02  0.51100000000E-03 0.  1.
         11   -1    0    0    0    0 -0.00000000000E+00 -0.00000000000E+00 -0.45593999997E+02  0.45594000000E+02  0.51100000000E-03 0. -1.
    9900012    2    1    2    0    0  0.19555246878E+02  0.35617513463E+02 -0.14667275383E+01  0.50528852992E+02  0.29999979154E+02 0.  0.
         12    1    1    2    0    0 -0.19555246878E+02 -0.35617513463E+02  0.14667275383E+01  0.40659147008E+02  0.00000000000E+00 0. -1.
         11    1    3    3    0    0  0.51800529617E+00  0.39811281338E+01 -0.16839108229E+01  0.43535349574E+01  0.51100000000E-03 0. -1.
        -11    1    3    3    0    0  0.85308424997E+01  0.34078588830E+02  0.22372232166E+01  0.35201287738E+02  0.51100000000E-03 0.  1.
        -12    1    3    3    0    0  0.10506399082E+02 -0.24422035013E+01 -0.20200399319E+01  0.10974030296E+02  0.00000000000E+00 0.  1.
</event>
<event>
 7    1  0.4836188E-013  0.5052887E+02  0.7816164E-02  0.1300439E+00
        -11   -1    0    0    0    0  0.00000000000E+00  0.00000000000E+00  0.45593999997E+02  0.45594000000E+02  0.51100000000E-03 0.  1.
         11   -1    0    0    0    0 -0.00000000000E+00 -0.00000000000E+00 -0.45593999997E+02  0.45594000000E+02  0.51100000000E-03 0. -1.
    9900012    2    1    2    0    0  0.29086630386E+02 -0.13819353507E+02  0.24822532296E+02  0.50528871773E+02  0.30000036242E+02 0.  0.
         12    1    1    2    0    0 -0.29086630386E+02  0.13819353507E+02 -0.24822532296E+02  0.40659128227E+02  0.00000000000E+00 0. -1.
         11    1    3    3    0    0  0.74006655478E+01  0.10910628172E+01  0.13613833908E+02  0.15533729190E+02  0.51100000000E-03 0.  1.
        -11    1    3    3    0    0  0.15926114697E+01 -0.12648102459E+02  0.25581168937E+01  0.13002110191E+02  0.51100000000E-03 0. -1.
         12    1    3    3    0    0  0.20093353369E+02 -0.22623138649E+01  0.86505814949E+01  0.21993032393E+02  0.00000000000E+00 0. -1.
</event>
<event>
 7    1  0.4836188E-013  0.5052887E+02  0.7816164E-02  0.1300439E+00
        -11   -1    0    0    0    0  0.00000000000E+00  0.00000000000E+00  0.45593999997E+02  0.45594000000E+02  0.51100000000E-03 0. -1.
         11   -1    0    0    0    0 -0.00000000000E+00 -0.00000000000E+00 -0.45593999997E+02  0.45594000000E+02  0.51100000000E-03 0.  1.
    9900012    2    1    2    0    0 -0.36921292542E+01  0.37458651384E+02  0.15374746256E+02  0.50528865671E+02  0.30000017695E+02 0.  0.
         12    1    1    2    0    0  0.36921292542E+01 -0.37458651384E+02 -0.15374746256E+02  0.40659134329E+02  0.00000000000E+00 0. -1.
         11    1    3    3    0    0  0.32925647450E+01 -0.91663450431E+00 -0.40247365916E+01  0.52801237019E+01  0.51100000000E-03 0. -1.
        -11    1    3    3    0    0  0.27894094801E+01  0.12074121939E+02  0.30037775518E+01  0.12750996262E+02  0.51100000000E-03 0.  1.
        -12    1    3    3    0    0 -0.97741034793E+01  0.26301163949E+02  0.16395705296E+02  0.32497745707E+02  0.00000000000E+00 0.  1.
</event>
<event>
 7    1  0.4836188E-013  0.5052885E+02  0.7816164E-02  0.1300439E+00
        -11   -1    0    0    0    0  0.00000000000E+00  0.00000000000E+00  0.45593999997E+02  0.45594000000E+02  0.51100000000E-03 0.  1.
         11   -1    0    0    0    0 -0.00000000000E+00 -0.00000000000E+00 -0.45593999997E+02  0.45594000000E+02  0.51100000000E-03 0. -1.
    9900012    2    1    2    0    0  0.10417109955E+02 -0.23187705515E+02  0.31732952324E+02  0.50528854288E+02  0.29999983093E+02 0.  0.
         12    1    1    2    0    0 -0.10417109955E+02  0.23187705515E+02 -0.31732952324E+02  0.40659145712E+02  0.00000000000E+00 0. -1.
         11    1    3    3    0    0  0.48805507289E+01 -0.14539020802E+02 -0.79932483452E+00  0.15357142370E+02  0.51100000000E-03 0. -1.
        -11    1    3    3    0    0 -0.96819163907E+00 -0.48761684451E+01  0.72191008538E+01  0.87652627544E+01  0.51100000000E-03 0.  1.
        -12    1    3    3    0    0  0.65047508655E+01 -0.37725162676E+01  0.25313176304E+02  0.26406449164E+02  0.00000000000E+00 0.  1.
</event>
<event>
 7    1  0.4836188E-013  0.5052886E+02  0.7816164E-02  0.1300439E+00
        -11   -1    0    0    0    0  0.00000000000E+00  0.00000000000E+00  0.45593999997E+02  0.45594000000E+02  0.51100000000E-03 0. -1.
         11   -1    0    0    0    0 -0.00000000000E+00 -0.00000000000E+00 -0.45593999997E+02  0.45594000000E+02  0.51100000000E-03 0.  1.
    9900012    2    1    2    0    0 -0.33050045549E+02 -0.23636130721E+02  0.14811343599E+01  0.50528856560E+02  0.29999990001E+02 0.  0.
         12    1    1    2    0    0  0.33050045549E+02  0.23636130721E+02 -0.14811343599E+01  0.40659143440E+02  0.00000000000E+00 0. -1.
         11    1    3    3    0    0  0.58092163622E-01  0.39247092680E+01  0.37496875241E+01  0.54283399237E+01  0.51100000000E-03 0. -1.
        -11    1    3    3    0    0 -0.52855669187E+01 -0.11766277057E+02 -0.23277254318E+01  0.13107280396E+02  0.51100000000E-03 0.  1.
        -12    1    3    3    0    0 -0.27822570794E+02 -0.15794562933E+02  0.59172267529E-01  0.31993236241E+02  0.00000000000E+00 0.  1.
</event>
<event>
 7    1  0.4836188E-013  0.5052886E+02  0.7816164E-02  0.1300439E+00
        -11   -1    0    0    0    0  0.00000000000E+00  0.00000000000E+00  0.45593999997E+02  0.45594000000E+02  0.51100000000E-03 0.  1.
         11   -1    0    0    0    0 -0.00000000000E+00 -0.00000000000E+00 -0.45593999997E+02  0.45594000000E+02  0.51100000000E-03 0. -1.
    9900012    2    1    2    0    0  0.95630782188E+00  0.86209259588E+01  0.39723180458E+02  0.50528856444E+02  0.29999989646E+02 0.  0.
         12    1    1    2    0    0 -0.95630782188E+00 -0.86209259588E+01 -0.39723180458E+02  0.40659143556E+02  0.00000000000E+00 0. -1.
         11    1    3    3    0    0  0.14822498821E+01 -0.25160139411E+00 -0.47877515621E+00  0.15778446963E+01  0.51100000000E-03 0. -1.
        -11    1    3    3    0    0  0.61570571955E+01  0.16543390362E+02  0.27485285998E+02  0.32665487363E+02  0.51100000000E-03 0.  1.
         12    1    3    3    0    0 -0.66829992556E+01 -0.76708630094E+01  0.12716669616E+02  0.16285524385E+02  0.00000000000E+00 0. -1.
</event>
<event>
 7    1  0.4836188E-013  0.5052886E+02  0.7816164E-02  0.1300439E+00
        -11   -1    0    0    0    0  0.00000000000E+00  0.00000000000E+00  0.45593999997E+02  0.45594000000E+02  0.51100000000E-03 0.  1.
         11   -1    0    0    0    0 -0.00000000000E+00 -0.00000000000E+00 -0.45593999997E+02  0.45594000000E+02  0.51100000000E-03 0. -1.
    9900012    2    1    2    0    0  0.32921197283E+02 -0.18401533535E+02  0.15190255092E+02  0.50528861829E+02  0.30000006017E+02 0.  0.
         12    1    1    2    0    0 -0.32921197283E+02  0.18401533535E+02 -0.15190255092E+02  0.40659138171E+02  0.00000000000E+00 0. -1.
         11    1    3    3    0    0  0.44167012687E+00  0.39040960080E+01  0.28910367739E+00  0.39396217253E+01  0.51100000000E-03 0. -1.
        -11    1    3    3    0    0  0.18477117161E+02 -0.18371197315E+02  0.41180112841E+00  0.26059054660E+02  0.51100000000E-03 0.  1.
         12    1    3    3    0    0  0.14002409995E+02 -0.39344322287E+01  0.14489350287E+02  0.20530185444E+02  0.00000000000E+00 0. -1.
</event>
<event>
 7    1  0.4836188E-013  0.5052885E+02  0.7816164E-02  0.1300439E+00
        -11   -1    0    0    0    0  0.00000000000E+00  0.00000000000E+00  0.45593999997E+02  0.45594000000E+02  0.51100000000E-03 0.  1.
         11   -1    0    0    0    0 -0.00000000000E+00 -0.00000000000E+00 -0.45593999997E+02  0.45594000000E+02  0.51100000000E-03 0. -1.
    9900012    2    1    2    0    0 -0.39651553218E+02  0.57222430880E+01  0.69409237507E+01  0.50528853906E+02  0.29999981933E+02 0.  0.
         12    1    1    2    0    0  0.39651553218E+02 -0.57222430880E+01 -0.69409237507E+01  0.40659146094E+02  0.00000000000E+00 0. -1.
         11    1    3    3    0    0  0.27394817534E+01 -0.17638731788E+01 -0.12104466794E+00  0.32604694356E+01  0.51100000000E-03 0. -1.
        -11    1    3    3    0    0 -0.34517545226E+02  0.49388900172E+01  0.12859037470E+02  0.37164612308E+02  0.51100000000E-03 0.  1.
         12    1    3    3    0    0 -0.78734897450E+01  0.25472262495E+01 -0.57970690514E+01  0.10103772163E+02  0.00000000000E+00 0. -1.
</event>
<event>
 7    1  0.4836188E-013  0.5052884E+02  0.7816164E-02  0.1300439E+00
        -11   -1    0    0    0    0  0.00000000000E+00  0.00000000000E+00  0.45593999997E+02  0.45594000000E+02  0.51100000000E-03 0.  1.
         11   -1    0    0    0    0 -0.00000000000E+00 -0.00000000000E+00 -0.45593999997E+02  0.45594000000E+02  0.51100000000E-03 0. -1.
    9900012    2    1    2    0    0 -0.38505630295E+02  0.68846322227E+01 -0.11094408263E+02  0.50528835966E+02  0.29999927402E+02 0.  0.
         12    1    1    2    0    0  0.38505630295E+02 -0.68846322227E+01  0.11094408263E+02  0.40659164034E+02  0.00000000000E+00 0. -1.
         11    1    3    3    0    0 -0.22693185131E+02  0.11968708702E+02 -0.91238006965E+01  0.27230027154E+02  0.51100000000E-03 0. -1.
        -11    1    3    3    0    0 -0.14806629678E+02 -0.17316153670E+01  0.48131851929E+01  0.15665296874E+02  0.51100000000E-03 0.  1.
         12    1    3    3    0    0 -0.10058154859E+01 -0.33524611121E+01 -0.67837927596E+01  0.76335119378E+01  0.00000000000E+00 0. -1.
</event>
<event>
 7    1  0.4836188E-013  0.5052887E+02  0.7816164E-02  0.1300439E+00
        -11   -1    0    0    0    0  0.00000000000E+00  0.00000000000E+00  0.45593999997E+02  0.45594000000E+02  0.51100000000E-03 0. -1.
         11   -1    0    0    0    0 -0.00000000000E+00 -0.00000000000E+00 -0.45593999997E+02  0.45594000000E+02  0.51100000000E-03 0.  1.
    9900012    2    1    2    0    0  0.21830570601E+02 -0.30872052993E+02  0.14950176249E+02  0.50528865250E+02  0.30000016414E+02 0.  0.
         12    1    1    2    0    0 -0.21830570601E+02  0.30872052993E+02 -0.14950176249E+02  0.40659134750E+02  0.00000000000E+00 0. -1.
         11    1    3    3    0    0  0.14719240515E+02 -0.12675517470E+02 -0.48999942914E+01  0.20033340430E+02  0.51100000000E-03 0. -1.
        -11    1    3    3    0    0 -0.67031511962E+00 -0.58008134770E+01  0.79026738141E-02  0.58394196687E+01  0.51100000000E-03 0.  1.
        -12    1    3    3    0    0  0.77816452048E+01 -0.12395722046E+02  0.19842267866E+02  0.24656105151E+02  0.00000000000E+00 0.  1.
</event>
<event>
 7    1  0.4836188E-013  0.5052886E+02  0.7816164E-02  0.1300439E+00
        -11   -1    0    0    0    0  0.00000000000E+00  0.00000000000E+00  0.45593999997E+02  0.45594000000E+02  0.51100000000E-03 0.  1.
         11   -1    0    0    0    0 -0.00000000000E+00 -0.00000000000E+00 -0.45593999997E+02  0.45594000000E+02  0.51100000000E-03 0. -1.
    9900012    2    1    2    0    0 -0.15973468993E+02  0.50047823519E+01  0.37053554600E+02  0.50528862447E+02  0.30000007894E+02 0.  0.
         12    1    1    2    0    0  0.15973468993E+02 -0.50047823519E+01 -0.37053554600E+02  0.40659137553E+02  0.00000000000E+00 0. -1.
         11    1    3    3    0    0 -0.99642235369E+01  0.10097917587E+02  0.10254047920E+02  0.17504262032E+02  0.51100000000E-03 0. -1.
        -11    1    3    3    0    0 -0.54664006369E+01  0.41714769545E+00  0.26933725111E+02  0.27486016385E+02  0.51100000000E-03 0.  1.
        -12    1    3    3    0    0 -0.54284481958E+00 -0.55102829300E+01 -0.13421843110E+00  0.55385840297E+01  0.00000000000E+00 0.  1.
</event>
<event>
 7    1  0.4836188E-013  0.5052887E+02  0.7816164E-02  0.1300439E+00
        -11   -1    0    0    0    0  0.00000000000E+00  0.00000000000E+00  0.45593999997E+02  0.45594000000E+02  0.51100000000E-03 0.  1.
         11   -1    0    0    0    0 -0.00000000000E+00 -0.00000000000E+00 -0.45593999997E+02  0.45594000000E+02  0.51100000000E-03 0. -1.
    9900012    2    1    2    0    0  0.35580346002E+02 -0.18958383753E+02  0.52710247609E+01  0.50528867715E+02  0.30000023906E+02 0.  0.
         12    1    1    2    0    0 -0.35580346002E+02  0.18958383753E+02 -0.52710247609E+01  0.40659132285E+02  0.00000000000E+00 0. -1.
         11    1    3    3    0    0 -0.98007713436E+00 -0.11853193939E+01  0.78536353733E+01  0.80028196339E+01  0.51100000000E-03 0. -1.
        -11    1    3    3    0    0  0.75915107418E+01  0.12387479796E+01  0.68286756922E+00  0.77221655174E+01  0.51100000000E-03 0.  1.
         12    1    3    3    0    0  0.28968912395E+02 -0.19011812338E+02 -0.32654781816E+01  0.34803882563E+02  0.00000000000E+00 0. -1.
</event>
<event>
 7    1  0.4836188E-013  0.5052886E+02  0.7816164E-02  0.1300439E+00
        -11   -1    0    0    0    0  0.00000000000E+00  0.00000000000E+00  0.45593999997E+02  0.45594000000E+02  0.51100000000E-03 0.  1.
         11   -1    0    0    0    0 -0.00000000000E+00 -0.00000000000E+00 -0.45593999997E+02  0.45594000000E+02  0.51100000000E-03 0. -1.
    9900012    2    1    2    0    0  0.36515973709E+02  0.17824059302E+02  0.14325209125E+01  0.50528861518E+02  0.30000005070E+02 0.  0.
         12    1    1    2    0    0 -0.36515973709E+02 -0.17824059302E+02 -0.14325209125E+01  0.40659138482E+02  0.00000000000E+00 0. -1.
         11    1    3    3    0    0  0.23942976302E+02 -0.40276799190E+01 -0.26027757977E+01  0.24418492211E+02  0.51100000000E-03 0. -1.
        -11    1    3    3    0    0  0.57044390953E+01  0.50350278305E+01  0.69360049614E+00  0.76402364201E+01  0.51100000000E-03 0.  1.
         12    1    3    3    0    0  0.68685583121E+01  0.16816711390E+02  0.33416962141E+01  0.18470132887E+02  0.00000000000E+00 0. -1.
</event>
<event>
 7    1  0.4836188E-013  0.5052886E+02  0.7816164E-02  0.1300439E+00
        -11   -1    0    0    0    0  0.00000000000E+00  0.00000000000E+00  0.45593999997E+02  0.45594000000E+02  0.51100000000E-03 0. -1.
         11   -1    0    0    0    0 -0.00000000000E+00 -0.00000000000E+00 -0.45593999997E+02  0.45594000000E+02  0.51100000000E-03 0.  1.
    9900012    2    1    2    0    0  0.17271011148E+02  0.57520185526E+01 -0.36356457988E+02  0.50528861040E+02  0.30000003617E+02 0.  0.
         12    1    1    2    0    0 -0.17271011148E+02 -0.57520185526E+01  0.36356457988E+02  0.40659138960E+02  0.00000000000E+00 0. -1.
         11    1    3    3    0    0  0.38750139401E+01 -0.28439261526E+01  0.35130736106E+01  0.59535985296E+01  0.51100000000E-03 0. -1.
        -11    1    3    3    0    0  0.69316897178E+01  0.76247389009E+01 -0.11409025704E+02  0.15373705911E+02  0.51100000000E-03 0.  1.
        -12    1    3    3    0    0  0.64643074904E+01  0.97120580434E+00 -0.28460505895E+02  0.29201556599E+02  0.00000000000E+00 0.  1.
</event>
<event>
 7    1  0.4836188E-013  0.5052885E+02  0.7816164E-02  0.1300439E+00
        -11   -1    0    0    0    0  0.00000000000E+00  0.00000000000E+00  0.45593999997E+02  0.45594000000E+02  0.51100000000E-03 0.  1.
         11   -1    0    0    0    0 -0.00000000000E+00 -0.00000000000E+00 -0.45593999997E+02  0.45594000000E+02  0.51100000000E-03 0. -1.
    9900012    2    1    2    0    0 -0.27156658254E+02  0.14991571205E+02  0.26285639700E+02  0.50528854053E+02  0.29999982378E+02 0.  0.
         12    1    1    2    0    0  0.27156658254E+02 -0.14991571205E+02 -0.26285639700E+02  0.40659145947E+02  0.00000000000E+00 0. -1.
         11    1    3    3    0    0 -0.13094338132E+02  0.16001638356E+01  0.29008770704E+01  0.13506935384E+02  0.51100000000E-03 0. -1.
        -11    1    3    3    0    0 -0.38302323016E+01 -0.52576966598E+01  0.98675841823E+01  0.11818767766E+02  0.51100000000E-03 0.  1.
         12    1    3    3    0    0 -0.10232087820E+02  0.18649104029E+02  0.13517178448E+02  0.25203150903E+02  0.00000000000E+00 0. -1.
</event>
<event>
 7    1  0.4836188E-013  0.5052885E+02  0.7816164E-02  0.1300439E+00
        -11   -1    0    0    0    0  0.00000000000E+00  0.00000000000E+00  0.45593999997E+02  0.45594000000E+02  0.51100000000E-03 0.  1.
         11   -1    0    0    0    0 -0.00000000000E+00 -0.00000000000E+00 -0.45593999997E+02  0.45594000000E+02  0.51100000000E-03 0. -1.
    9900012    2    1    2    0    0  0.23677950467E+02  0.31024278111E+01  0.32907389656E+02  0.50528847394E+02  0.29999962139E+02 0.  0.
         12    1    1    2    0    0 -0.23677950467E+02 -0.31024278111E+01 -0.32907389656E+02  0.40659152606E+02  0.00000000000E+00 0. -1.
         11    1    3    3    0    0  0.50173520419E+01  0.17422333945E+01 -0.31648455089E+01  0.61826730521E+01  0.51100000000E-03 0. -1.
        -11    1    3    3    0    0  0.17162584659E+02  0.62044591146E+01  0.18220560207E+02  0.25788339218E+02  0.51100000000E-03 0.  1.
        -12    1    3    3    0    0  0.14980137662E+01 -0.48442646979E+01  0.17851674958E+02  0.18557835124E+02  0.00000000000E+00 0.  1.
</event>
<event>
 7    1  0.5412662E-013  0.5052886E+02  0.7816164E-02  0.1300439E+00
        -11   -1    0    0    0    0  0.00000000000E+00  0.00000000000E+00  0.45593999997E+02  0.45594000000E+02  0.51100000000E-03 0. -1.
         11   -1    0    0    0    0 -0.00000000000E+00 -0.00000000000E+00 -0.45593999997E+02  0.45594000000E+02  0.51100000000E-03 0.  1.
    9900012    2    1    2    0    0 -0.54914828795E+01  0.30074095397E+02 -0.26805940817E+02  0.50528855134E+02  0.29999985664E+02 0.  0.
         12    1    1    2    0    0  0.54914828795E+01 -0.30074095397E+02  0.26805940817E+02  0.40659144866E+02  0.00000000000E+00 0. -1.
         11    1    3    3    0    0  0.63739885072E+01  0.74523373012E+00 -0.22274796292E+01  0.67929940793E+01  0.51100000000E-03 0. -1.
        -11    1    3    3    0    0 -0.21949282560E+00  0.20647616058E+02 -0.92745006398E+01  0.22636002040E+02  0.51100000000E-03 0.  1.
        -12    1    3    3    0    0 -0.11645978561E+02  0.86812456094E+01 -0.15303960548E+02  0.21099859014E+02  0.00000000000E+00 0.  1.
</event>
<event>
 7    1  0.4836188E-013  0.5052886E+02  0.7816164E-02  0.1300439E+00
        -11   -1    0    0    0    0  0.00000000000E+00  0.00000000000E+00  0.45593999997E+02  0.45594000000E+02  0.51100000000E-03 0.  1.
         11   -1    0    0    0    0 -0.00000000000E+00 -0.00000000000E+00 -0.45593999997E+02  0.45594000000E+02  0.51100000000E-03 0. -1.
    9900012    2    1    2    0    0  0.13096837644E+02 -0.26623230839E+02  0.27800034719E+02  0.50528861950E+02  0.30000006383E+02 0.  0.
         12    1    1    2    0    0 -0.13096837644E+02  0.26623230839E+02 -0.27800034719E+02  0.40659138050E+02  0.00000000000E+00 0. -1.
         11    1    3    3    0    0  0.14581907977E+02 -0.19819337725E+02  0.17894094201E+02  0.30424279707E+02  0.51100000000E-03 0. -1.
        -11    1    3    3    0    0  0.50573587393E+01 -0.67630105814E+01  0.10569070857E+02  0.13528505039E+02  0.51100000000E-03 0.  1.
         12    1    3    3    0    0 -0.65424290723E+01 -0.40882532475E-01 -0.66313033987E+00  0.65760772042E+01  0.00000000000E+00 0. -1.
</event>
<event>
 7    1  0.4836188E-013  0.5052885E+02  0.7816164E-02  0.1300439E+00
        -11   -1    0    0    0    0  0.00000000000E+00  0.00000000000E+00  0.45593999997E+02  0.45594000000E+02  0.51100000000E-03 0.  1.
         11   -1    0    0    0    0 -0.00000000000E+00 -0.00000000000E+00 -0.45593999997E+02  0.45594000000E+02  0.51100000000E-03 0. -1.
    9900012    2    1    2    0    0  0.92984421802E+01 -0.92018259994E+01  0.38497168134E+02  0.50528848717E+02  0.29999966161E+02 0.  0.
         12    1    1    2    0    0 -0.92984421802E+01  0.92018259994E+01 -0.38497168134E+02  0.40659151283E+02  0.00000000000E+00 0. -1.
         11    1    3    3    0    0  0.14527592750E+02 -0.12314637790E+01  0.24921166733E+02  0.28872686154E+02  0.51100000000E-03 0. -1.
        -11    1    3    3    0    0  0.33685982210E+01 -0.59898775221E+01  0.21104770309E+01  0.71888942309E+01  0.51100000000E-03 0.  1.
        -12    1    3    3    0    0 -0.85977487913E+01 -0.19804846983E+01  0.11465524370E+02  0.14467268332E+02  0.00000000000E+00 0.  1.
</event>
<event>
 7    1  0.4836188E-013  0.5052886E+02  0.7816164E-02  0.1300439E+00
        -11   -1    0    0    0    0  0.00000000000E+00  0.00000000000E+00  0.45593999997E+02  0.45594000000E+02  0.51100000000E-03 0.  1.
         11   -1    0    0    0    0 -0.00000000000E+00 -0.00000000000E+00 -0.45593999997E+02  0.45594000000E+02  0.51100000000E-03 0. -1.
    9900012    2    1    2    0    0 -0.10806579600E+02  0.37272542864E+02  0.12130154497E+02  0.50528864958E+02  0.30000015528E+02 0.  0.
         12    1    1    2    0    0  0.10806579600E+02 -0.37272542864E+02 -0.12130154497E+02  0.40659135042E+02  0.00000000000E+00 0. -1.
         11    1    3    3    0    0 -0.94296340168E+01  0.24605543642E+02  0.16272535495E+02  0.30970085362E+02  0.51100000000E-03 0.  1.
        -11    1    3    3    0    0 -0.71991201651E+01  0.63850472667E+01  0.82414911814E+00  0.96579180872E+01  0.51100000000E-03 0. -1.
        -12    1    3    3    0    0  0.58221745820E+01  0.62819519554E+01 -0.49665301165E+01  0.99008615095E+01  0.00000000000E+00 0.  1.
</event>
<event>
 7    1  0.4836188E-013  0.5052886E+02  0.7816164E-02  0.1300439E+00
        -11   -1    0    0    0    0  0.00000000000E+00  0.00000000000E+00  0.45593999997E+02  0.45594000000E+02  0.51100000000E-03 0. -1.
         11   -1    0    0    0    0 -0.00000000000E+00 -0.00000000000E+00 -0.45593999997E+02  0.45594000000E+02  0.51100000000E-03 0.  1.
    9900012    2    1    2    0    0  0.34865828509E+02 -0.17591758292E+02 -0.11316775738E+02  0.50528863628E+02  0.30000011484E+02 0.  0.
         12    1    1    2    0    0 -0.34865828509E+02  0.17591758292E+02  0.11316775738E+02  0.40659136372E+02  0.00000000000E+00 0. -1.
         11    1    3    3    0    0  0.72915316514E+01 -0.21890584525E+01  0.45275623758E+01  0.88576087100E+01  0.51100000000E-03 0. -1.
        -11    1    3    3    0    0  0.45608483508E+01  0.37574723140E+01 -0.93006415073E+01  0.11019159159E+02  0.51100000000E-03 0.  1.
        -12    1    3    3    0    0  0.23013448506E+02 -0.19160172154E+02 -0.65436966068E+01  0.30652095759E+02  0.00000000000E+00 0.  1.
</event>
<event>
 7    1  0.4836188E-013  0.5052887E+02  0.7816164E-02  0.1300439E+00
        -11   -1    0    0    0    0  0.00000000000E+00  0.00000000000E+00  0.45593999997E+02  0.45594000000E+02  0.51100000000E-03 0. -1.
         11   -1    0    0    0    0 -0.00000000000E+00 -0.00000000000E+00 -0.45593999997E+02  0.45594000000E+02  0.51100000000E-03 0.  1.
    9900012    2    1    2    0    0 -0.29754069059E+02 -0.10834638356E+02 -0.25504325358E+02  0.50528872785E+02  0.30000039319E+02 0.  0.
         12    1    1    2    0    0  0.29754069059E+02  0.10834638356E+02  0.25504325358E+02  0.40659127215E+02  0.00000000000E+00 0. -1.
         11    1    3    3    0    0  0.12269883257E+01 -0.82322982853E+00  0.18665042874E+01  0.23805558632E+01  0.51100000000E-03 0. -1.
        -11    1    3    3    0    0 -0.13505611742E+02 -0.12789891843E+02 -0.43320458458E+01  0.19098416252E+02  0.51100000000E-03 0.  1.
         12    1    3    3    0    0 -0.17475445643E+02  0.27784833155E+01 -0.23038783800E+02  0.29049900670E+02  0.00000000000E+00 0. -1.
</event>
<event>
 7    1  0.4836188E-013  0.5052885E+02  0.7816164E-02  0.1300439E+00
        -11   -1    0    0    0    0  0.00000000000E+00  0.00000000000E+00  0.45593999997E+02  0.45594000000E+02  0.51100000000E-03 0.  1.
         11   -1    0    0    0    0 -0.00000000000E+00 -0.00000000000E+00 -0.45593999997E+02  0.45594000000E+02  0.51100000000E-03 0. -1.
    9900012    2    1    2    0    0  0.24776908718E+02 -0.15597022934E+02  0.28213539363E+02  0.50528854246E+02  0.29999982967E+02 0.  0.
         12    1    1    2    0    0 -0.24776908718E+02  0.15597022934E+02 -0.28213539363E+02  0.40659145754E+02  0.00000000000E+00 0. -1.
         11    1    3    3    0    0 -0.32506710677E+01 -0.38389941233E+01  0.15093149825E+01  0.52519301449E+01  0.51100000000E-03 0. -1.
        -11    1    3    3    0    0 -0.31767969967E+01 -0.70047843736E-01  0.16037270965E+01  0.35593379610E+01  0.51100000000E-03 0.  1.
        -12    1    3    3    0    0  0.31204376782E+02 -0.11687980967E+02  0.25100497284E+02  0.41717586140E+02  0.00000000000E+00 0.  1.
</event>
<event>
 7    1  0.4836188E-013  0.5052886E+02  0.7816164E-02  0.1300439E+00
        -11   -1    0    0    0    0  0.00000000000E+00  0.00000000000E+00  0.45593999997E+02  0.45594000000E+02  0.51100000000E-03 0. -1.
         11   -1    0    0    0    0 -0.00000000000E+00 -0.00000000000E+00 -0.45593999997E+02  0.45594000000E+02  0.51100000000E-03 0.  1.
    9900012    2    1    2    0    0  0.15756672262E+02 -0.20403212164E+02 -0.31442040932E+02  0.50528859264E+02  0.29999998220E+02 0.  0.
         12    1    1    2    0    0 -0.15756672262E+02  0.20403212164E+02  0.31442040932E+02  0.40659140736E+02  0.00000000000E+00 0. -1.
         11    1    3    3    0    0  0.16045872273E+02 -0.10678022830E+02 -0.12390315893E+02  0.22913099239E+02  0.51100000000E-03 0. -1.
        -11    1    3    3    0    0 -0.38865090765E+00  0.42827266438E+01 -0.10136991310E+02  0.11011420894E+02  0.51100000000E-03 0.  1.
         12    1    3    3    0    0  0.99450896888E-01 -0.14007915978E+02 -0.89147337290E+01  0.16604339131E+02  0.00000000000E+00 0. -1.
</event>
<event>
 7    1  0.4836188E-013  0.5052886E+02  0.7816164E-02  0.1300439E+00
        -11   -1    0    0    0    0  0.00000000000E+00  0.00000000000E+00  0.45593999997E+02  0.45594000000E+02  0.51100000000E-03 0. -1.
         11   -1    0    0    0    0 -0.00000000000E+00 -0.00000000000E+00 -0.45593999997E+02  0.45594000000E+02  0.51100000000E-03 0.  1.
    9900012    2    1    2    0    0 -0.11878767058E+00 -0.38389601720E+02 -0.13393663240E+02  0.50528857784E+02  0.29999993720E+02 0.  0.
         12    1    1    2    0    0  0.11878767058E+00  0.38389601720E+02  0.13393663240E+02  0.40659142216E+02  0.00000000000E+00 0. -1.
         11    1    3    3    0    0 -0.16543298570E+01 -0.19629678679E+02  0.53894344841E+01  0.20423199961E+02  0.51100000000E-03 0. -1.
        -11    1    3    3    0    0  0.56833703450E+00 -0.16468063309E+02 -0.67311759254E+01  0.17799686675E+02  0.51100000000E-03 0.  1.
         12    1    3    3    0    0  0.96720515192E+00 -0.22918597317E+01 -0.12051921799E+02  0.12305971148E+02  0.00000000000E+00 0. -1.
</event>
<event>
 7    1  0.4836188E-013  0.5052886E+02  0.7816164E-02  0.1300439E+00
        -11   -1    0    0    0    0  0.00000000000E+00  0.00000000000E+00  0.45593999997E+02  0.45594000000E+02  0.51100000000E-03 0.  1.
         11   -1    0    0    0    0 -0.00000000000E+00 -0.00000000000E+00 -0.45593999997E+02  0.45594000000E+02  0.51100000000E-03 0. -1.
    9900012    2    1    2    0    0 -0.81724932061E+01  0.32646635504E+02 -0.22816078819E+02  0.50528857023E+02  0.29999991408E+02 0.  0.
         12    1    1    2    0    0  0.81724932061E+01 -0.32646635504E+02  0.22816078819E+02  0.40659142977E+02  0.00000000000E+00 0. -1.
         11    1    3    3    0    0 -0.62858804987E+01  0.81086695504E+00 -0.10280545897E+02  0.12077227458E+02  0.51100000000E-03 0. -1.
        -11    1    3    3    0    0  0.54557957148E+01  0.45083851801E+01 -0.63018861534E+01  0.94765506997E+01  0.51100000000E-03 0.  1.
         12    1    3    3    0    0 -0.73424084222E+01  0.27327383369E+02 -0.62336467683E+01  0.28975078866E+02  0.00000000000E+00 0. -1.
</event>
<event>
 7    1  0.4836188E-013  0.5052886E+02  0.7816164E-02  0.1300439E+00
        -11   -1    0    0    0    0  0.00000000000E+00  0.00000000000E+00  0.45593999997E+02  0.45594000000E+02  0.51100000000E-03 0.  1.
         11   -1    0    0    0    0 -0.00000000000E+00 -0.00000000000E+00 -0.45593999997E+02  0.45594000000E+02  0.51100000000E-03 0. -1.
    9900012    2    1    2    0    0 -0.22188809851E+02 -0.11161137665E+02  0.32190864574E+02  0.50528855412E+02  0.29999986511E+02 0.  0.
         12    1    1    2    0    0  0.22188809851E+02  0.11161137665E+02 -0.32190864574E+02  0.40659144588E+02  0.00000000000E+00 0. -1.
         11    1    3    3    0    0 -0.13653688152E+02 -0.42650864447E+01  0.13102426593E+02  0.19398137679E+02  0.51100000000E-03 0.  1.
        -11    1    3    3    0    0 -0.68853273086E+01 -0.93589883879E+01 -0.19523103456E+00  0.11620521125E+02  0.51100000000E-03 0. -1.
         12    1    3    3    0    0 -0.16497943911E+01  0.24629371678E+01  0.19283669015E+02  0.19510196609E+02  0.00000000000E+00 0. -1.
</event>
<event>
 7    1  0.4836188E-013  0.5052885E+02  0.7816164E-02  0.1300439E+00
        -11   -1    0    0    0    0  0.00000000000E+00  0.00000000000E+00  0.45593999997E+02  0.45594000000E+02  0.51100000000E-03 0.  1.
         11   -1    0    0    0    0 -0.00000000000E+00 -0.00000000000E+00 -0.45593999997E+02  0.45594000000E+02  0.51100000000E-03 0. -1.
    9900012    2    1    2    0    0  0.35494531002E+01 -0.35008837631E+02  0.20370298129E+02  0.50528851270E+02  0.29999973920E+02 0.  0.
         12    1    1    2    0    0 -0.35494531002E+01  0.35008837631E+02 -0.20370298129E+02  0.40659148730E+02  0.00000000000E+00 0. -1.
         11    1    3    3    0    0  0.63658858937E+01 -0.34173265501E+01  0.13768752765E+01  0.73551621158E+01  0.51100000000E-03 0. -1.
        -11    1    3    3    0    0  0.11834467758E+01 -0.31641361657E+02  0.97962756978E+01  0.33144280526E+02  0.51100000000E-03 0.  1.
         12    1    3    3    0    0 -0.39998795693E+01  0.49850575479E-01  0.91971471547E+01  0.10029408628E+02  0.00000000000E+00 0. -1.
</event>
<event>
 7    1  0.4836188E-013  0.5052886E+02  0.7816164E-02  0.1300439E+00
        -11   -1    0    0    0    0  0.00000000000E+00  0.00000000000E+00  0.45593999997E+02  0.45594000000E+02  0.51100000000E-03 0.  1.
         11   -1    0    0    0    0 -0.00000000000E+00 -0.00000000000E+00 -0.45593999997E+02  0.45594000000E+02  0.51100000000E-03 0. -1.
    9900012    2    1    2    0    0  0.21421557991E+02  0.24797955642E+01  0.34469304735E+02  0.50528862014E+02  0.30000006578E+02 0.  0.
         12    1    1    2    0    0 -0.21421557991E+02 -0.24797955642E+01 -0.34469304735E+02  0.40659137986E+02  0.00000000000E+00 0. -1.
         11    1    3    3    0    0  0.85891649116E+01 -0.23162323338E+01 -0.39682744242E+00  0.89048390431E+01  0.51100000000E-03 0. -1.
        -11    1    3    3    0    0  0.14459544253E+02 -0.63790745300E-01  0.13959923614E+02  0.20098804861E+02  0.51100000000E-03 0.  1.
        -12    1    3    3    0    0 -0.16271511734E+01  0.48598186433E+01  0.20906208564E+02  0.21525218110E+02  0.00000000000E+00 0.  1.
</event>
<event>
 7    1  0.4836188E-013  0.5052886E+02  0.7816164E-02  0.1300439E+00
        -11   -1    0    0    0    0  0.00000000000E+00  0.00000000000E+00  0.45593999997E+02  0.45594000000E+02  0.51100000000E-03 0.  1.
         11   -1    0    0    0    0 -0.00000000000E+00 -0.00000000000E+00 -0.45593999997E+02  0.45594000000E+02  0.51100000000E-03 0. -1.
    9900012    2    1    2    0    0 -0.33118647909E+02  0.10276045728E+01  0.23564064650E+02  0.50528856461E+02  0.29999989700E+02 0.  0.
         12    1    1    2    0    0  0.33118647909E+02 -0.10276045728E+01 -0.23564064650E+02  0.40659143539E+02  0.00000000000E+00 0. -1.
         11    1    3    3    0    0 -0.62869916232E+01  0.11095447667E+02  0.36985945779E+01  0.13278359263E+02  0.51100000000E-03 0. -1.
        -11    1    3    3    0    0 -0.21129305484E+02 -0.18813818072E+01  0.15918408298E+02  0.26521366306E+02  0.51100000000E-03 0.  1.
        -12    1    3    3    0    0 -0.57023508017E+01 -0.81864612866E+01  0.39470617740E+01  0.10729130893E+02  0.00000000000E+00 0.  1.
</event>
<event>
 7    1  0.4836188E-013  0.5052886E+02  0.7816164E-02  0.1300439E+00
        -11   -1    0    0    0    0  0.00000000000E+00  0.00000000000E+00  0.45593999997E+02  0.45594000000E+02  0.51100000000E-03 0.  1.
         11   -1    0    0    0    0 -0.00000000000E+00 -0.00000000000E+00 -0.45593999997E+02  0.45594000000E+02  0.51100000000E-03 0. -1.
    9900012    2    1    2    0    0  0.19738253048E+02  0.72429379343E+01  0.34800964230E+02  0.50528857183E+02  0.29999991893E+02 0.  0.
         12    1    1    2    0    0 -0.19738253048E+02 -0.72429379343E+01 -0.34800964230E+02  0.40659142817E+02  0.00000000000E+00 0. -1.
         11    1    3    3    0    0 -0.23850845217E+01  0.18795063438E+01  0.11129027894E+02  0.11535875970E+02  0.51100000000E-03 0.  1.
        -11    1    3    3    0    0  0.13564649852E+02 -0.44642342890E+01  0.21456118376E+02  0.25773904039E+02  0.51100000000E-03 0. -1.
         12    1    3    3    0    0  0.85586877184E+01  0.98276658795E+01  0.22158179597E+01  0.13219077174E+02  0.00000000000E+00 0. -1.
</event>
<event>
 7    1  0.4836188E-013  0.5052885E+02  0.7816164E-02  0.1300439E+00
        -11   -1    0    0    0    0  0.00000000000E+00  0.00000000000E+00  0.45593999997E+02  0.45594000000E+02  0.51100000000E-03 0.  1.
         11   -1    0    0    0    0 -0.00000000000E+00 -0.00000000000E+00 -0.45593999997E+02  0.45594000000E+02  0.51100000000E-03 0. -1.
    9900012    2    1    2    0    0 -0.89763782872E+01  0.12786765150E+02  0.37537842038E+02  0.50528852013E+02  0.29999976177E+02 0.  0.
         12    1    1    2    0    0  0.89763782872E+01 -0.12786765150E+02 -0.37537842038E+02  0.40659147987E+02  0.00000000000E+00 0. -1.
         11    1    3    3    0    0 -0.26127625227E+01  0.38805596592E+01 -0.23061270401E+01  0.52156968331E+01  0.51100000000E-03 0. -1.
        -11    1    3    3    0    0 -0.13167945837E+01 -0.36428691824E+01  0.24726211965E+02  0.25027784605E+02  0.51100000000E-03 0.  1.
         12    1    3    3    0    0 -0.50468211808E+01  0.12549074673E+02  0.15117757114E+02  0.20285370574E+02  0.00000000000E+00 0. -1.
</event>
<event>
 7    1  0.4836188E-013  0.5052884E+02  0.7816164E-02  0.1300439E+00
        -11   -1    0    0    0    0  0.00000000000E+00  0.00000000000E+00  0.45593999997E+02  0.45594000000E+02  0.51100000000E-03 0.  1.
         11   -1    0    0    0    0 -0.00000000000E+00 -0.00000000000E+00 -0.45593999997E+02  0.45594000000E+02  0.51100000000E-03 0. -1.
    9900012    2    1    2    0    0 -0.35380101740E+02  0.65710038098E+01  0.18927161198E+02  0.50528842099E+02  0.29999946043E+02 0.  0.
         12    1    1    2    0    0  0.35380101740E+02 -0.65710038098E+01 -0.18927161198E+02  0.40659157901E+02  0.00000000000E+00 0. -1.
         11    1    3    3    0    0 -0.34923936637E+01  0.12644543761E+02  0.75696325012E+01  0.15145317325E+02  0.51100000000E-03 0. -1.
        -11    1    3    3    0    0 -0.31267940954E+00 -0.29388012595E-01 -0.91879940682E+00  0.97099159601E+00  0.51100000000E-03 0.  1.
        -12    1    3    3    0    0 -0.31575028667E+02 -0.60441519382E+01  0.12276328104E+02  0.34412533177E+02  0.00000000000E+00 0.  1.
</event>
<event>
 7    1  0.4836188E-013  0.5052886E+02  0.7816164E-02  0.1300439E+00
        -11   -1    0    0    0    0  0.00000000000E+00  0.00000000000E+00  0.45593999997E+02  0.45594000000E+02  0.51100000000E-03 0.  1.
         11   -1    0    0    0    0 -0.00000000000E+00 -0.00000000000E+00 -0.45593999997E+02  0.45594000000E+02  0.51100000000E-03 0. -1.
    9900012    2    1    2    0    0 -0.20200556091E+02  0.19949879891E+02  0.29105075315E+02  0.50528861014E+02  0.30000003537E+02 0.  0.
         12    1    1    2    0    0  0.20200556091E+02 -0.19949879891E+02 -0.29105075315E+02  0.40659138986E+02  0.00000000000E+00 0. -1.
         11    1    3    3    0    0 -0.19265047179E+02  0.20131529747E+02  0.14774142390E+02  0.31538798588E+02  0.51100000000E-03 0. -1.
        -11    1    3    3    0    0 -0.65950264300E+01 -0.10234227042E+01  0.67513806190E+01  0.94933085996E+01  0.51100000000E-03 0.  1.
         12    1    3    3    0    0  0.56595175185E+01  0.84177284818E+00  0.75795523062E+01  0.94967538260E+01  0.00000000000E+00 0. -1.
</event>
<event>
 7    1  0.4836188E-013  0.5052886E+02  0.7816164E-02  0.1300439E+00
        -11   -1    0    0    0    0  0.00000000000E+00  0.00000000000E+00  0.45593999997E+02  0.45594000000E+02  0.51100000000E-03 0.  1.
         11   -1    0    0    0    0 -0.00000000000E+00 -0.00000000000E+00 -0.45593999997E+02  0.45594000000E+02  0.51100000000E-03 0. -1.
    9900012    2    1    2    0    0  0.89195583047E+01  0.26602040058E+02  0.29426836323E+02  0.50528858942E+02  0.29999997241E+02 0.  0.
         12    1    1    2    0    0 -0.89195583047E+01 -0.26602040058E+02 -0.29426836323E+02  0.40659141058E+02  0.00000000000E+00 0. -1.
         11    1    3    3    0    0  0.59750732042E+01  0.54326359627E+01  0.32821124275E+01  0.87170692062E+01  0.51100000000E-03 0. -1.
        -11    1    3    3    0    0 -0.40566339565E+01  0.20536824461E+02  0.80999084274E+01  0.22446067691E+02  0.51100000000E-03 0.  1.
        -12    1    3    3    0    0  0.70011190569E+01  0.63257963382E+00  0.18044815468E+02  0.19365722045E+02  0.00000000000E+00 0.  1.
</event>
<event>
 7    1  0.4836188E-013  0.5052887E+02  0.7816164E-02  0.1300439E+00
        -11   -1    0    0    0    0  0.00000000000E+00  0.00000000000E+00  0.45593999997E+02  0.45594000000E+02  0.51100000000E-03 0.  1.
         11   -1    0    0    0    0 -0.00000000000E+00 -0.00000000000E+00 -0.45593999997E+02  0.45594000000E+02  0.51100000000E-03 0. -1.
    9900012    2    1    2    0    0  0.27939640147E+02  0.19115890847E+02  0.22519418173E+02  0.50528868563E+02  0.30000026483E+02 0.  0.
         12    1    1    2    0    0 -0.27939640147E+02 -0.19115890847E+02 -0.22519418173E+02  0.40659131437E+02  0.00000000000E+00 0. -1.
         11    1    3    3    0    0  0.76568704011E+01  0.15401386885E+02  0.21157794215E+01  0.17329365399E+02  0.51100000000E-03 0. -1.
        -11    1    3    3    0    0  0.39290660228E+01  0.58187938686E+01  0.13711654567E+02  0.15404719833E+02  0.51100000000E-03 0.  1.
         12    1    3    3    0    0  0.16353703723E+02 -0.21042899066E+01  0.66919841842E+01  0.17794783331E+02  0.00000000000E+00 0. -1.
</event>
<event>
 7    1  0.4836188E-013  0.5052881E+02  0.7816164E-02  0.1300439E+00
        -11   -1    0    0    0    0  0.00000000000E+00  0.00000000000E+00  0.45593999997E+02  0.45594000000E+02  0.51100000000E-03 0.  1.
         11   -1    0    0    0    0 -0.00000000000E+00 -0.00000000000E+00 -0.45593999997E+02  0.45594000000E+02  0.51100000000E-03 0. -1.
    9900012    2    1    2    0    0  0.31293734731E+02  0.25933072589E+02 -0.11607724128E+01  0.50528813093E+02  0.29999857877E+02 0.  0.
         12    1    1    2    0    0 -0.31293734731E+02 -0.25933072589E+02  0.11607724128E+01  0.40659186907E+02  0.00000000000E+00 0. -1.
         11    1    3    3    0    0  0.16859865086E+02  0.23464694058E+01 -0.52179670123E+01  0.17804161013E+02  0.51100000000E-03 0. -1.
        -11    1    3    3    0    0  0.63064112395E+01  0.82717782761E-01  0.46699502669E+01  0.78476812314E+01  0.51100000000E-03 0.  1.
        -12    1    3    3    0    0  0.81274584059E+01  0.23503885401E+02 -0.61275566740E+00  0.24876970848E+02  0.00000000000E+00 0.  1.
</event>
<event>
 7    1  0.4836188E-013  0.5052887E+02  0.7816164E-02  0.1300439E+00
        -11   -1    0    0    0    0  0.00000000000E+00  0.00000000000E+00  0.45593999997E+02  0.45594000000E+02  0.51100000000E-03 0.  1.
         11   -1    0    0    0    0 -0.00000000000E+00 -0.00000000000E+00 -0.45593999997E+02  0.45594000000E+02  0.51100000000E-03 0. -1.
    9900012    2    1    2    0    0  0.20073734947E+02  0.11306909769E+02  0.33501699863E+02  0.50528868959E+02  0.30000027689E+02 0.  0.
         12    1    1    2    0    0 -0.20073734947E+02 -0.11306909769E+02 -0.33501699863E+02  0.40659131041E+02  0.00000000000E+00 0. -1.
         11    1    3    3    0    0  0.12476728934E+02  0.17451176396E+01  0.22394595323E+02  0.25694982008E+02  0.51100000000E-03 0. -1.
        -11    1    3    3    0    0  0.49099974361E+00 -0.55046487967E+01  0.33028862863E+01  0.64382681836E+01  0.51100000000E-03 0.  1.
         12    1    3    3    0    0  0.71060062692E+01  0.15066440926E+02  0.78042182545E+01  0.18395618767E+02  0.00000000000E+00 0. -1.
</event>
<event>
 7    1  0.4836188E-013  0.5052886E+02  0.7816164E-02  0.1300439E+00
        -11   -1    0    0    0    0  0.00000000000E+00  0.00000000000E+00  0.45593999997E+02  0.45594000000E+02  0.51100000000E-03 0.  1.
         11   -1    0    0    0    0 -0.00000000000E+00 -0.00000000000E+00 -0.45593999997E+02  0.45594000000E+02  0.51100000000E-03 0. -1.
    9900012    2    1    2    0    0 -0.21679877878E+02  0.20638303032E+02  0.27517427307E+02  0.50528862497E+02  0.30000008047E+02 0.  0.
         12    1    1    2    0    0  0.21679877878E+02 -0.20638303032E+02 -0.27517427307E+02  0.40659137503E+02  0.00000000000E+00 0. -1.
         11    1    3    3    0    0 -0.65454932699E+01  0.58390287824E+01  0.46146148247E+01  0.99112264382E+01  0.51100000000E-03 0. -1.
        -11    1    3    3    0    0 -0.40342049875E+01  0.41331701271E+00 -0.55402943669E+01  0.68658941710E+01  0.51100000000E-03 0.  1.
         12    1    3    3    0    0 -0.11100179620E+02  0.14385957237E+02  0.28443106849E+02  0.33751741888E+02  0.00000000000E+00 0. -1.
</event>
<event>
 7    1  0.4836188E-013  0.5052887E+02  0.7816164E-02  0.1300439E+00
        -11   -1    0    0    0    0  0.00000000000E+00  0.00000000000E+00  0.45593999997E+02  0.45594000000E+02  0.51100000000E-03 0.  1.
         11   -1    0    0    0    0 -0.00000000000E+00 -0.00000000000E+00 -0.45593999997E+02  0.45594000000E+02  0.51100000000E-03 0. -1.
    9900012    2    1    2    0    0  0.14681313712E+02  0.35483540127E+02  0.13361984960E+02  0.50528865303E+02  0.30000016575E+02 0.  0.
         12    1    1    2    0    0 -0.14681313712E+02 -0.35483540127E+02 -0.13361984960E+02  0.40659134697E+02  0.00000000000E+00 0. -1.
         11    1    3    3    0    0  0.16769643711E+02  0.23768682251E+02  0.13512523774E+01  0.29120389582E+02  0.51100000000E-03 0. -1.
        -11    1    3    3    0    0  0.44607589584E+01  0.30607661868E+00  0.21099634222E+01  0.49440873056E+01  0.51100000000E-03 0.  1.
         12    1    3    3    0    0 -0.65490889574E+01  0.11408781257E+02  0.99007691601E+01  0.16464388416E+02  0.00000000000E+00 0. -1.
</event>
<event>
 7    1  0.4836188E-013  0.5052886E+02  0.7816164E-02  0.1300439E+00
        -11   -1    0    0    0    0  0.00000000000E+00  0.00000000000E+00  0.45593999997E+02  0.45594000000E+02  0.51100000000E-03 0.  1.
         11   -1    0    0    0    0 -0.00000000000E+00 -0.00000000000E+00 -0.45593999997E+02  0.45594000000E+02  0.51100000000E-03 0. -1.
    9900012    2    1    2    0    0 -0.40175957645E+02  0.32272921848E+01  0.53518771010E+01  0.50528861101E+02  0.30000003802E+02 0.  0.
         12    1    1    2    0    0  0.40175957645E+02 -0.32272921848E+01 -0.53518771010E+01  0.40659138899E+02  0.00000000000E+00 0. -1.
         11    1    3    3    0    0 -0.63832857350E+01 -0.99904752132E+01 -0.11364847289E+01  0.11909976052E+02  0.51100000000E-03 0. -1.
        -11    1    3    3    0    0 -0.20233484313E+02  0.17741985696E+01  0.40216161126E+01  0.20705435625E+02  0.51100000000E-03 0.  1.
        -12    1    3    3    0    0 -0.13559187596E+02  0.11443568828E+02  0.24667457173E+01  0.17913449423E+02  0.00000000000E+00 0.  1.
</event>
<event>
 7    1  0.4836188E-013  0.5052887E+02  0.7816164E-02  0.1300439E+00
        -11   -1    0    0    0    0  0.00000000000E+00  0.00000000000E+00  0.45593999997E+02  0.45594000000E+02  0.51100000000E-03 0. -1.
         11   -1    0    0    0    0 -0.00000000000E+00 -0.00000000000E+00 -0.45593999997E+02  0.45594000000E+02  0.51100000000E-03 0.  1.
    9900012    2    1    2    0    0  0.36979807894E+02  0.14240411158E+02  0.91032548598E+01  0.50528871248E+02  0.30000034644E+02 0.  0.
         12    1    1    2    0    0 -0.36979807894E+02 -0.14240411158E+02 -0.91032548598E+01  0.40659128752E+02  0.00000000000E+00 0. -1.
         11    1    3    3    0    0  0.50926577562E+01  0.89934949439E+01 -0.39322663136E+01  0.11058066420E+02  0.51100000000E-03 0. -1.
        -11    1    3    3    0    0  0.18650704618E+02  0.12088897529E+02  0.61795766740E+01  0.23068970379E+02  0.51100000000E-03 0.  1.
        -12    1    3    3    0    0  0.13236445520E+02 -0.68419813141E+01  0.68559444993E+01  0.16401834448E+02  0.00000000000E+00 0.  1.
</event>
<event>
 7    1  0.4836188E-013  0.5052886E+02  0.7816164E-02  0.1300439E+00
        -11   -1    0    0    0    0  0.00000000000E+00  0.00000000000E+00  0.45593999997E+02  0.45594000000E+02  0.51100000000E-03 0.  1.
         11   -1    0    0    0    0 -0.00000000000E+00 -0.00000000000E+00 -0.45593999997E+02  0.45594000000E+02  0.51100000000E-03 0. -1.
    9900012    2    1    2    0    0  0.24840952656E+02  0.74169088160E+00  0.32179845375E+02  0.50528862250E+02  0.30000007294E+02 0.  0.
         12    1    1    2    0    0 -0.24840952656E+02 -0.74169088160E+00 -0.32179845375E+02  0.40659137750E+02  0.00000000000E+00 0. -1.
         11    1    3    3    0    0  0.25577126334E+02 -0.47770932491E+01  0.32942521174E+02  0.41978800757E+02  0.51100000000E-03 0.  1.
        -11    1    3    3    0    0  0.15225731215E+01  0.48740012060E+01  0.14654795536E+01  0.53124144463E+01  0.51100000000E-03 0. -1.
        -12    1    3    3    0    0 -0.22587467995E+01  0.64478292470E+00 -0.22281553525E+01  0.32376470467E+01  0.00000000000E+00 0.  1.
</event>
<event>
 7    1  0.4836188E-013  0.5052886E+02  0.7816164E-02  0.1300439E+00
        -11   -1    0    0    0    0  0.00000000000E+00  0.00000000000E+00  0.45593999997E+02  0.45594000000E+02  0.51100000000E-03 0.  1.
         11   -1    0    0    0    0 -0.00000000000E+00 -0.00000000000E+00 -0.45593999997E+02  0.45594000000E+02  0.51100000000E-03 0. -1.
    9900012    2    1    2    0    0 -0.12941825654E+02  0.37635442456E+02  0.83215661656E+01  0.50528857811E+02  0.29999993801E+02 0.  0.
         12    1    1    2    0    0  0.12941825654E+02 -0.37635442456E+02 -0.83215661656E+01  0.40659142189E+02  0.00000000000E+00 0. -1.
         11    1    3    3    0    0  0.15629485537E+01  0.10708920898E+02  0.12007076102E+02  0.16164580780E+02  0.51100000000E-03 0. -1.
        -11    1    3    3    0    0 -0.22716741322E+01 -0.16915079363E+01  0.74224880823E+00  0.29279064219E+01  0.51100000000E-03 0.  1.
        -12    1    3    3    0    0 -0.12233100075E+02  0.28618029494E+02 -0.44277587449E+01  0.31436370609E+02  0.00000000000E+00 0.  1.
</event>
<event>
 7    1  0.4836188E-013  0.5052883E+02  0.7816164E-02  0.1300439E+00
        -11   -1    0    0    0    0  0.00000000000E+00  0.00000000000E+00  0.45593999997E+02  0.45594000000E+02  0.51100000000E-03 0. -1.
         11   -1    0    0    0    0 -0.00000000000E+00 -0.00000000000E+00 -0.45593999997E+02  0.45594000000E+02  0.51100000000E-03 0.  1.
    9900012    2    1    2    0    0  0.13984342765E+02 -0.18912476138E+02 -0.33165113253E+02  0.50528827193E+02  0.29999900736E+02 0.  0.
         12    1    1    2    0    0 -0.13984342765E+02  0.18912476138E+02  0.33165113253E+02  0.40659172807E+02  0.00000000000E+00 0. -1.
         11    1    3    3    0    0  0.12159142762E+02 -0.18162957485E+02 -0.20150599285E+02  0.29728512057E+02  0.51100000000E-03 0. -1.
        -11    1    3    3    0    0  0.20649528000E+01 -0.58294598179E+01  0.65159754598E+00  0.62186181309E+01  0.51100000000E-03 0.  1.
        -12    1    3    3    0    0 -0.23975279728E+00  0.50799411643E+01 -0.13666111514E+02  0.14581697006E+02  0.00000000000E+00 0.  1.
</event>
<event>
 7    1  0.4836188E-013  0.5052885E+02  0.7816164E-02  0.1300439E+00
        -11   -1    0    0    0    0  0.00000000000E+00  0.00000000000E+00  0.45593999997E+02  0.45594000000E+02  0.51100000000E-03 0.  1.
         11   -1    0    0    0    0 -0.00000000000E+00 -0.00000000000E+00 -0.45593999997E+02  0.45594000000E+02  0.51100000000E-03 0. -1.
    9900012    2    1    2    0    0 -0.15049941892E+02  0.28191475607E+02  0.25137746897E+02  0.50528851375E+02  0.29999974240E+02 0.  0.
         12    1    1    2    0    0  0.15049941892E+02 -0.28191475607E+02 -0.25137746897E+02  0.40659148625E+02  0.00000000000E+00 0. -1.
         11    1    3    3    0    0 -0.98619237053E+01  0.16639418002E+02  0.25787824650E+02  0.32235689399E+02  0.51100000000E-03 0.  1.
        -11    1    3    3    0    0 -0.48683838103E+01 -0.15413557366E+01  0.57426195583E+00  0.51387464897E+01  0.51100000000E-03 0. -1.
         12    1    3    3    0    0 -0.31963437621E+00  0.13093413341E+02 -0.12243397086E+01  0.13154415486E+02  0.00000000000E+00 0. -1.
</event>
<event>
 7    1  0.4836188E-013  0.5052886E+02  0.7816164E-02  0.1300439E+00
        -11   -1    0    0    0    0  0.00000000000E+00  0.00000000000E+00  0.45593999997E+02  0.45594000000E+02  0.51100000000E-03 0.  1.
         11   -1    0    0    0    0 -0.00000000000E+00 -0.00000000000E+00 -0.45593999997E+02  0.45594000000E+02  0.51100000000E-03 0. -1.
    9900012    2    1    2    0    0  0.16017249274E+02 -0.26138166899E+02  0.26709736451E+02  0.50528855095E+02  0.29999985547E+02 0.  0.
         12    1    1    2    0    0 -0.16017249274E+02  0.26138166899E+02 -0.26709736451E+02  0.40659144905E+02  0.00000000000E+00 0. -1.
         11    1    3    3    0    0 -0.43413002834E+01  0.85476763048E+00  0.77848655303E+01  0.89544205529E+01  0.51100000000E-03 0. -1.
        -11    1    3    3    0    0  0.13847098784E+01 -0.11985870259E+02  0.10387057911E+02  0.15920724846E+02  0.51100000000E-03 0.  1.
         12    1    3    3    0    0  0.18973839679E+02 -0.15007064270E+02  0.85378130094E+01  0.25653709696E+02  0.00000000000E+00 0. -1.
</event>
<event>
 7    1  0.4836188E-013  0.5052886E+02  0.7816164E-02  0.1300439E+00
        -11   -1    0    0    0    0  0.00000000000E+00  0.00000000000E+00  0.45593999997E+02  0.45594000000E+02  0.51100000000E-03 0.  1.
         11   -1    0    0    0    0 -0.00000000000E+00 -0.00000000000E+00 -0.45593999997E+02  0.45594000000E+02  0.51100000000E-03 0. -1.
    9900012    2    1    2    0    0  0.30044478614E+02  0.17064310651E+02  0.21431376365E+02  0.50528864666E+02  0.30000014640E+02 0.  0.
         12    1    1    2    0    0 -0.30044478614E+02 -0.17064310651E+02 -0.21431376365E+02  0.40659135334E+02  0.00000000000E+00 0. -1.
         11    1    3    3    0    0  0.44528240257E+01  0.15972015674E+02  0.12502600832E+01  0.16628171187E+02  0.51100000000E-03 0. -1.
        -11    1    3    3    0    0  0.36928743235E+01 -0.19884068658E+01  0.69874541662E+01  0.81495765914E+01  0.51100000000E-03 0.  1.
        -12    1    3    3    0    0  0.21898780265E+02  0.30807018422E+01  0.13193662115E+02  0.25751116888E+02  0.00000000000E+00 0.  1.
</event>
<event>
 7    1  0.4836188E-013  0.5052886E+02  0.7816164E-02  0.1300439E+00
        -11   -1    0    0    0    0  0.00000000000E+00  0.00000000000E+00  0.45593999997E+02  0.45594000000E+02  0.51100000000E-03 0.  1.
         11   -1    0    0    0    0 -0.00000000000E+00 -0.00000000000E+00 -0.45593999997E+02  0.45594000000E+02  0.51100000000E-03 0. -1.
    9900012    2    1    2    0    0  0.16601592559E+02 -0.25771683566E+02  0.26709041131E+02  0.50528862928E+02  0.30000009355E+02 0.  0.
         12    1    1    2    0    0 -0.16601592559E+02  0.25771683566E+02 -0.26709041131E+02  0.40659137072E+02  0.00000000000E+00 0. -1.
         11    1    3    3    0    0  0.55019906251E+00 -0.18236007537E+02  0.14087977239E+02  0.23050505263E+02  0.51100000000E-03 0. -1.
        -11    1    3    3    0    0  0.42341953801E+01 -0.41431168697E+01  0.13907573488E+02  0.15116693703E+02  0.51100000000E-03 0.  1.
         12    1    3    3    0    0  0.11817198116E+02 -0.33925591594E+01 -0.12865095966E+01  0.12361663962E+02  0.00000000000E+00 0. -1.
</event>
<event>
 7    1  0.4836188E-013  0.5052891E+02  0.7816164E-02  0.1300439E+00
        -11   -1    0    0    0    0  0.00000000000E+00  0.00000000000E+00  0.45593999997E+02  0.45594000000E+02  0.51100000000E-03 0. -1.
         11   -1    0    0    0    0 -0.00000000000E+00 -0.00000000000E+00 -0.45593999997E+02  0.45594000000E+02  0.51100000000E-03 0.  1.
    9900012    2    1    2    0    0 -0.15375823561E+02  0.29951436994E+02 -0.22795994582E+02  0.50528906341E+02  0.30000141315E+02 0.  0.
         12    1    1    2    0    0  0.15375823561E+02 -0.29951436994E+02  0.22795994582E+02  0.40659093659E+02  0.00000000000E+00 0. -1.
         11    1    3    3    0    0  0.45253087397E+01  0.42776920860E+01 -0.84869742932E+01  0.10526433474E+02  0.51100000000E-03 0. -1.
        -11    1    3    3    0    0 -0.85714788007E+01  0.11949695290E+02 -0.16464675338E+02  0.22076027736E+02  0.51100000000E-03 0.  1.
         12    1    3    3    0    0 -0.11329653500E+02  0.13724049617E+02  0.21556550500E+01  0.17926445131E+02  0.00000000000E+00 0. -1.
</event>
<event>
 7    1  0.4836188E-013  0.5052885E+02  0.7816164E-02  0.1300439E+00
        -11   -1    0    0    0    0  0.00000000000E+00  0.00000000000E+00  0.45593999997E+02  0.45594000000E+02  0.51100000000E-03 0. -1.
         11   -1    0    0    0    0 -0.00000000000E+00 -0.00000000000E+00 -0.45593999997E+02  0.45594000000E+02  0.51100000000E-03 0.  1.
    9900012    2    1    2    0    0 -0.34141055685E+02  0.20463844790E+02 -0.82937366016E+01  0.50528847356E+02  0.29999962023E+02 0.  0.
         12    1    1    2    0    0  0.34141055685E+02 -0.20463844790E+02  0.82937366016E+01  0.40659152644E+02  0.00000000000E+00 0. -1.
         11    1    3    3    0    0 -0.66212053919E+01 -0.39042865094E+01  0.38741138047E+01  0.86077042248E+01  0.51100000000E-03 0. -1.
        -11    1    3    3    0    0 -0.41597300984E+01  0.11184103097E+02 -0.89270159410E+01  0.14902319633E+02  0.51100000000E-03 0.  1.
        -12    1    3    3    0    0 -0.23360120195E+02  0.13184028202E+02 -0.32408344653E+01  0.27018823498E+02  0.00000000000E+00 0.  1.
</event>
<event>
 7    1  0.4836188E-013  0.5052883E+02  0.7816164E-02  0.1300439E+00
        -11   -1    0    0    0    0  0.00000000000E+00  0.00000000000E+00  0.45593999997E+02  0.45594000000E+02  0.51100000000E-03 0.  1.
         11   -1    0    0    0    0 -0.00000000000E+00 -0.00000000000E+00 -0.45593999997E+02  0.45594000000E+02  0.51100000000E-03 0. -1.
    9900012    2    1    2    0    0  0.19799387652E+02 -0.35396487585E+02 -0.28707024268E+01  0.50528831081E+02  0.29999912554E+02 0.  0.
         12    1    1    2    0    0 -0.19799387652E+02  0.35396487585E+02  0.28707024268E+01  0.40659168919E+02  0.00000000000E+00 0. -1.
         11    1    3    3    0    0 -0.76917495284E+00 -0.68081622949E+01 -0.22677932891E+00  0.68552266970E+01  0.51100000000E-03 0. -1.
        -11    1    3    3    0    0  0.18500778716E+02 -0.25978161480E+02 -0.11741780074E+02  0.33985483468E+02  0.51100000000E-03 0.  1.
        -12    1    3    3    0    0  0.20677838888E+01 -0.26101638102E+01  0.90978569762E+01  0.96881209162E+01  0.00000000000E+00 0.  1.
</event>
<event>
 7    1  0.4836188E-013  0.5052886E+02  0.7816164E-02  0.1300439E+00
        -11   -1    0    0    0    0  0.00000000000E+00  0.00000000000E+00  0.45593999997E+02  0.45594000000E+02  0.51100000000E-03 0. -1.
         11   -1    0    0    0    0 -0.00000000000E+00 -0.00000000000E+00 -0.45593999997E+02  0.45594000000E+02  0.51100000000E-03 0.  1.
    9900012    2    1    2    0    0  0.76786025096E+01  0.19810154713E+02 -0.34666448051E+02  0.50528858509E+02  0.29999995925E+02 0.  0.
         12    1    1    2    0    0 -0.76786025096E+01 -0.19810154713E+02  0.34666448051E+02  0.40659141491E+02  0.00000000000E+00 0. -1.
         11    1    3    3    0    0 -0.24667854433E+01  0.32306743519E+01 -0.27147150063E+02  0.27449773114E+02  0.51100000000E-03 0. -1.
        -11    1    3    3    0    0  0.34329185453E+01  0.32629092518E+01 -0.66193778941E+01  0.81392671962E+01  0.51100000000E-03 0.  1.
         12    1    3    3    0    0  0.67124694076E+01  0.13316571109E+02 -0.89992009420E+00  0.14939818200E+02  0.00000000000E+00 0. -1.
</event>
<event>
 7    1  0.4836188E-013  0.5052885E+02  0.7816164E-02  0.1300439E+00
        -11   -1    0    0    0    0  0.00000000000E+00  0.00000000000E+00  0.45593999997E+02  0.45594000000E+02  0.51100000000E-03 0. -1.
         11   -1    0    0    0    0 -0.00000000000E+00 -0.00000000000E+00 -0.45593999997E+02  0.45594000000E+02  0.51100000000E-03 0.  1.
    9900012    2    1    2    0    0  0.14088104618E+02  0.37273623196E+02  0.80851001292E+01  0.50528849468E+02  0.29999968442E+02 0.  0.
         12    1    1    2    0    0 -0.14088104618E+02 -0.37273623196E+02 -0.80851001292E+01  0.40659150532E+02  0.00000000000E+00 0. -1.
         11    1    3    3    0    0 -0.31002863385E+01  0.36275752222E+01 -0.20162828422E+01  0.51803932412E+01  0.51100000000E-03 0. -1.
        -11    1    3    3    0    0  0.65643681459E+01  0.32479947975E+02  0.10164079312E+02  0.34660445152E+02  0.51100000000E-03 0.  1.
         12    1    3    3    0    0  0.10624022811E+02  0.11660999990E+01 -0.62696340495E-01  0.10688011074E+02  0.00000000000E+00 0. -1.
</event>
<event>
 7    1  0.4836188E-013  0.5052884E+02  0.7816164E-02  0.1300439E+00
        -11   -1    0    0    0    0  0.00000000000E+00  0.00000000000E+00  0.45593999997E+02  0.45594000000E+02  0.51100000000E-03 0. -1.
         11   -1    0    0    0    0 -0.00000000000E+00 -0.00000000000E+00 -0.45593999997E+02  0.45594000000E+02  0.51100000000E-03 0.  1.
    9900012    2    1    2    0    0 -0.35568744883E+02 -0.13031341074E+02  0.14772117360E+02  0.50528844647E+02  0.29999953788E+02 0.  0.
         12    1    1    2    0    0  0.35568744883E+02  0.13031341074E+02 -0.14772117360E+02  0.40659155353E+02  0.00000000000E+00 0. -1.
         11    1    3    3    0    0 -0.25676256245E+02 -0.39332313160E+01 -0.50477648381E+01  0.26461677450E+02  0.51100000000E-03 0.  1.
        -11    1    3    3    0    0 -0.50366005472E+01 -0.48459448233E+01  0.81960312007E+01  0.10771511222E+02  0.51100000000E-03 0. -1.
        -12    1    3    3    0    0 -0.48558880910E+01 -0.42521649346E+01  0.11623850997E+02  0.13295655975E+02  0.00000000000E+00 0.  1.
</event>
<event>
 7    1  0.4836188E-013  0.5052886E+02  0.7816164E-02  0.1300439E+00
        -11   -1    0    0    0    0  0.00000000000E+00  0.00000000000E+00  0.45593999997E+02  0.45594000000E+02  0.51100000000E-03 0.  1.
         11   -1    0    0    0    0 -0.00000000000E+00 -0.00000000000E+00 -0.45593999997E+02  0.45594000000E+02  0.51100000000E-03 0. -1.
    9900012    2    1    2    0    0  0.29262071508E+02  0.25369888787E+01  0.28115126332E+02  0.50528862403E+02  0.30000007760E+02 0.  0.
         12    1    1    2    0    0 -0.29262071508E+02 -0.25369888787E+01 -0.28115126332E+02  0.40659137597E+02  0.00000000000E+00 0. -1.
         11    1    3    3    0    0  0.38595495527E+01  0.44732692664E+01 -0.45761840836E+01  0.74731333260E+01  0.51100000000E-03 0. -1.
        -11    1    3    3    0    0  0.14096559095E+02  0.33762684744E+01  0.11697243840E+02  0.18626263201E+02  0.51100000000E-03 0.  1.
        -12    1    3    3    0    0  0.11305962860E+02 -0.53125488621E+01  0.20994066575E+02  0.24429465876E+02  0.00000000000E+00 0.  1.
</event>
<event>
 7    1  0.4836188E-013  0.5052886E+02  0.7816164E-02  0.1300439E+00
        -11   -1    0    0    0    0  0.00000000000E+00  0.00000000000E+00  0.45593999997E+02  0.45594000000E+02  0.51100000000E-03 0.  1.
         11   -1    0    0    0    0 -0.00000000000E+00 -0.00000000000E+00 -0.45593999997E+02  0.45594000000E+02  0.51100000000E-03 0. -1.
    9900012    2    1    2    0    0 -0.22515651255E+02  0.19602463904E+02  0.27603526488E+02  0.50528858137E+02  0.29999994792E+02 0.  0.
         12    1    1    2    0    0  0.22515651255E+02 -0.19602463904E+02 -0.27603526488E+02  0.40659141863E+02  0.00000000000E+00 0. -1.
         11    1    3    3    0    0 -0.25244309196E+01  0.12659540036E+02  0.79515664266E+01  0.15161270207E+02  0.51100000000E-03 0. -1.
        -11    1    3    3    0    0 -0.98606617395E+01  0.48695913079E+01 -0.21791455513E+01  0.11211344480E+02  0.51100000000E-03 0.  1.
        -12    1    3    3    0    0 -0.10130558596E+02  0.20733325598E+01  0.21831105612E+02  0.24156243450E+02  0.00000000000E+00 0.  1.
</event>
<event>
 7    1  0.4836188E-013  0.5052883E+02  0.7816164E-02  0.1300439E+00
        -11   -1    0    0    0    0  0.00000000000E+00  0.00000000000E+00  0.45593999997E+02  0.45594000000E+02  0.51100000000E-03 0.  1.
         11   -1    0    0    0    0 -0.00000000000E+00 -0.00000000000E+00 -0.45593999997E+02  0.45594000000E+02  0.51100000000E-03 0. -1.
    9900012    2    1    2    0    0 -0.27984383771E+02  0.21084495452E+01  0.29421027372E+02  0.50528829495E+02  0.29999907733E+02 0.  0.
         12    1    1    2    0    0  0.27984383771E+02 -0.21084495452E+01 -0.29421027372E+02  0.40659170505E+02  0.00000000000E+00 0. -1.
         11    1    3    3    0    0  0.39243545019E+01  0.27479704204E+01  0.85429047027E+00  0.48663859441E+01  0.51100000000E-03 0. -1.
        -11    1    3    3    0    0 -0.10239400773E+02 -0.16090428853E+01  0.19638189186E+02  0.22205693459E+02  0.51100000000E-03 0.  1.
         12    1    3    3    0    0 -0.21669337499E+02  0.96952201010E+00  0.89285477154E+01  0.23456750092E+02  0.00000000000E+00 0. -1.
</event>
<event>
 7    1  0.4836188E-013  0.5052886E+02  0.7816164E-02  0.1300439E+00
        -11   -1    0    0    0    0  0.00000000000E+00  0.00000000000E+00  0.45593999997E+02  0.45594000000E+02  0.51100000000E-03 0.  1.
         11   -1    0    0    0    0 -0.00000000000E+00 -0.00000000000E+00 -0.45593999997E+02  0.45594000000E+02  0.51100000000E-03 0. -1.
    9900012    2    1    2    0    0 -0.14765219422E+02 -0.33802637340E+01  0.37732313082E+02  0.50528864028E+02  0.30000012698E+02 0.  0.
         12    1    1    2    0    0  0.14765219422E+02  0.33802637340E+01 -0.37732313082E+02  0.40659135972E+02  0.00000000000E+00 0. -1.
         11    1    3    3    0    0 -0.13517690466E+02 -0.11680591891E+02  0.19852390356E+02  0.26707332057E+02  0.51100000000E-03 0. -1.
        -11    1    3    3    0    0  0.37360853223E+01 -0.20376832957E+01  0.44902645607E+01  0.61865145951E+01  0.51100000000E-03 0.  1.
        -12    1    3    3    0    0 -0.49836142784E+01  0.10338011453E+02  0.13389658165E+02  0.17635017376E+02  0.00000000000E+00 0.  1.
</event>
<event>
 7    1  0.4836188E-013  0.5052886E+02  0.7816164E-02  0.1300439E+00
        -11   -1    0    0    0    0  0.00000000000E+00  0.00000000000E+00  0.45593999997E+02  0.45594000000E+02  0.51100000000E-03 0.  1.
         11   -1    0    0    0    0 -0.00000000000E+00 -0.00000000000E+00 -0.45593999997E+02  0.45594000000E+02  0.51100000000E-03 0. -1.
    9900012    2    1    2    0    0  0.40025712648E+02  0.70624689393E+01 -0.11089651380E+01  0.50528856573E+02  0.29999990040E+02 0.  0.
         12    1    1    2    0    0 -0.40025712648E+02 -0.70624689393E+01  0.11089651380E+01  0.40659143427E+02  0.00000000000E+00 0. -1.
         11    1    3    3    0    0  0.63760805793E+01 -0.54377897395E+01  0.24005306971E+00  0.83834113905E+01  0.51100000000E-03 0. -1.
        -11    1    3    3    0    0  0.27181472476E+02  0.42505588895E+01  0.74016673687E+01  0.28490075060E+02  0.51100000000E-03 0.  1.
        -12    1    3    3    0    0  0.64681595934E+01  0.82496997893E+01 -0.87506855764E+01  0.13655370123E+02  0.00000000000E+00 0.  1.
</event>
<event>
 7    1  0.4836188E-013  0.5052886E+02  0.7816164E-02  0.1300439E+00
        -11   -1    0    0    0    0  0.00000000000E+00  0.00000000000E+00  0.45593999997E+02  0.45594000000E+02  0.51100000000E-03 0.  1.
         11   -1    0    0    0    0 -0.00000000000E+00 -0.00000000000E+00 -0.45593999997E+02  0.45594000000E+02  0.51100000000E-03 0. -1.
    9900012    2    1    2    0    0 -0.86295236286E+01 -0.38531222935E+02 -0.96975370072E+01  0.50528855359E+02  0.29999986351E+02 0.  0.
         12    1    1    2    0    0  0.86295236286E+01  0.38531222935E+02  0.96975370072E+01  0.40659144641E+02  0.00000000000E+00 0. -1.
         11    1    3    3    0    0 -0.20155653489E+01 -0.27030543665E+02 -0.74627527829E+01  0.28114150776E+02  0.51100000000E-03 0.  1.
        -11    1    3    3    0    0 -0.65000002572E+01 -0.12547587986E+02  0.50859478793E+01  0.15018616238E+02  0.51100000000E-03 0. -1.
         12    1    3    3    0    0 -0.11395802247E+00  0.10469087156E+01 -0.73207321036E+01  0.73960883460E+01  0.00000000000E+00 0. -1.
</event>
<event>
 7    1  0.4836188E-013  0.5052886E+02  0.7816164E-02  0.1300439E+00
        -11   -1    0    0    0    0  0.00000000000E+00  0.00000000000E+00  0.45593999997E+02  0.45594000000E+02  0.51100000000E-03 0.  1.
         11   -1    0    0    0    0 -0.00000000000E+00 -0.00000000000E+00 -0.45593999997E+02  0.45594000000E+02  0.51100000000E-03 0. -1.
    9900012    2    1    2    0    0  0.33949645961E+02 -0.13511503846E+02  0.17833286907E+02  0.50528864262E+02  0.30000013411E+02 0.  0.
         12    1    1    2    0    0 -0.33949645961E+02  0.13511503846E+02 -0.17833286907E+02  0.40659135738E+02  0.00000000000E+00 0. -1.
         11    1    3    3    0    0  0.45109659480E+01  0.30655829428E+01 -0.32340279430E+01  0.63407846171E+01  0.51100000000E-03 0. -1.
        -11    1    3    3    0    0  0.68145199849E+01 -0.14320002859E+01  0.14643807200E+02  0.16215097811E+02  0.51100000000E-03 0.  1.
        -12    1    3    3    0    0  0.22624160028E+02 -0.15145086503E+02  0.64235076496E+01  0.27972981834E+02  0.00000000000E+00 0.  1.
</event>
<event>
 7    1  0.4836188E-013  0.5052886E+02  0.7816164E-02  0.1300439E+00
        -11   -1    0    0    0    0  0.00000000000E+00  0.00000000000E+00  0.45593999997E+02  0.45594000000E+02  0.51100000000E-03 0. -1.
         11   -1    0    0    0    0 -0.00000000000E+00 -0.00000000000E+00 -0.45593999997E+02  0.45594000000E+02  0.51100000000E-03 0.  1.
    9900012    2    1    2    0    0 -0.60021227635E+01  0.31790145995E+02 -0.24627768493E+02  0.50528857842E+02  0.29999993897E+02 0.  0.
         12    1    1    2    0    0  0.60021227635E+01 -0.31790145995E+02  0.24627768493E+02  0.40659142158E+02  0.00000000000E+00 0. -1.
         11    1    3    3    0    0  0.46915914059E-01 -0.22030199272E+01  0.20709161306E+01  0.30239364715E+01  0.51100000000E-03 0. -1.
        -11    1    3    3    0    0 -0.49393615142E+01  0.19219250121E+01 -0.10028473841E+02  0.11342899795E+02  0.51100000000E-03 0.  1.
        -12    1    3    3    0    0 -0.11096771634E+01  0.32071240910E+02 -0.16670210783E+02  0.36162021576E+02  0.00000000000E+00 0.  1.
</event>
<event>
 7    1  0.4836188E-013  0.5052882E+02  0.7816164E-02  0.1300439E+00
        -11   -1    0    0    0    0  0.00000000000E+00  0.00000000000E+00  0.45593999997E+02  0.45594000000E+02  0.51100000000E-03 0. -1.
         11   -1    0    0    0    0 -0.00000000000E+00 -0.00000000000E+00 -0.45593999997E+02  0.45594000000E+02  0.51100000000E-03 0.  1.
    9900012    2    1    2    0    0  0.30051111042E+01  0.93718831711E+00 -0.40537140128E+02  0.50528822138E+02  0.29999885370E+02 0.  0.
         12    1    1    2    0    0 -0.30051111042E+01 -0.93718831711E+00  0.40537140128E+02  0.40659177862E+02  0.00000000000E+00 0. -1.
         11    1    3    3    0    0  0.31390424353E+01  0.28106269535E+01 -0.97852149341E+00  0.43255884983E+01  0.51100000000E-03 0. -1.
        -11    1    3    3    0    0  0.54036432155E+01 -0.11428613646E+02 -0.18220402023E+02  0.22176465453E+02  0.51100000000E-03 0.  1.
         12    1    3    3    0    0 -0.55375745466E+01  0.95551750092E+01 -0.21338216612E+02  0.24026768187E+02  0.00000000000E+00 0. -1.
</event>
<event>
 7    1  0.4836188E-013  0.5052885E+02  0.7816164E-02  0.1300439E+00
        -11   -1    0    0    0    0  0.00000000000E+00  0.00000000000E+00  0.45593999997E+02  0.45594000000E+02  0.51100000000E-03 0. -1.
         11   -1    0    0    0    0 -0.00000000000E+00 -0.00000000000E+00 -0.45593999997E+02  0.45594000000E+02  0.51100000000E-03 0.  1.
    9900012    2    1    2    0    0 -0.35645468356E+01  0.34846537389E+02 -0.20644116708E+02  0.50528847073E+02  0.29999961162E+02 0.  0.
         12    1    1    2    0    0  0.35645468356E+01 -0.34846537389E+02  0.20644116708E+02  0.40659152927E+02  0.00000000000E+00 0. -1.
         11    1    3    3    0    0  0.83686118221E+01  0.51449845038E+01 -0.72087795148E+01  0.12184868966E+02  0.51100000000E-03 0. -1.
        -11    1    3    3    0    0 -0.63758870030E+01  0.16908722499E+02 -0.16030978375E+02  0.24156760949E+02  0.51100000000E-03 0.  1.
         12    1    3    3    0    0 -0.55572716547E+01  0.12792830386E+02  0.25956411817E+01  0.14187217157E+02  0.00000000000E+00 0. -1.
</event>
<event>
 7    1  0.4836188E-013  0.5052885E+02  0.7816164E-02  0.1300439E+00
        -11   -1    0    0    0    0  0.00000000000E+00  0.00000000000E+00  0.45593999997E+02  0.45594000000E+02  0.51100000000E-03 0.  1.
         11   -1    0    0    0    0 -0.00000000000E+00 -0.00000000000E+00 -0.45593999997E+02  0.45594000000E+02  0.51100000000E-03 0. -1.
    9900012    2    1    2    0    0  0.40622228335E+02  0.10373844098E+01  0.13873237858E+01  0.50528852584E+02  0.29999977915E+02 0.  0.
         12    1    1    2    0    0 -0.40622228335E+02 -0.10373844098E+01 -0.13873237858E+01  0.40659147416E+02  0.00000000000E+00 0. -1.
         11    1    3    3    0    0  0.31772940719E+01 -0.46085277264E+01  0.41001378707E+01  0.69386494540E+01  0.51100000000E-03 0.  1.
        -11    1    3    3    0    0  0.30134123233E+02  0.74962055647E+00 -0.10419455680E+02  0.31893453418E+02  0.51100000000E-03 0. -1.
         12    1    3    3    0    0  0.73108110301E+01  0.48962915798E+01  0.77066415954E+01  0.11696749712E+02  0.00000000000E+00 0. -1.
</event>
<event>
 7    1  0.4836188E-013  0.5052885E+02  0.7816164E-02  0.1300439E+00
        -11   -1    0    0    0    0  0.00000000000E+00  0.00000000000E+00  0.45593999997E+02  0.45594000000E+02  0.51100000000E-03 0.  1.
         11   -1    0    0    0    0 -0.00000000000E+00 -0.00000000000E+00 -0.45593999997E+02  0.45594000000E+02  0.51100000000E-03 0. -1.
    9900012    2    1    2    0    0  0.28941118335E+02  0.28278896897E+02 -0.39852442698E+01  0.50528849590E+02  0.29999968814E+02 0.  0.
         12    1    1    2    0    0 -0.28941118335E+02 -0.28278896897E+02  0.39852442698E+01  0.40659150410E+02  0.00000000000E+00 0. -1.
         11    1    3    3    0    0  0.24124191187E+02  0.18283878220E+02  0.26031392165E+01  0.30381789566E+02  0.51100000000E-03 0. -1.
        -11    1    3    3    0    0  0.10417828549E+02  0.71127552594E+01 -0.32882525742E+01  0.13035913636E+02  0.51100000000E-03 0.  1.
         12    1    3    3    0    0 -0.56009014016E+01  0.28822634175E+01 -0.33001309121E+01  0.71111463882E+01  0.00000000000E+00 0. -1.
</event>
<event>
 7    1  0.4836188E-013  0.5052886E+02  0.7816164E-02  0.1300439E+00
        -11   -1    0    0    0    0  0.00000000000E+00  0.00000000000E+00  0.45593999997E+02  0.45594000000E+02  0.51100000000E-03 0.  1.
         11   -1    0    0    0    0 -0.00000000000E+00 -0.00000000000E+00 -0.45593999997E+02  0.45594000000E+02  0.51100000000E-03 0. -1.
    9900012    2    1    2    0    0 -0.24308649209E+01 -0.22003010147E+01  0.40526722058E+02  0.50528860442E+02  0.30000001799E+02 0.  0.
         12    1    1    2    0    0  0.24308649209E+01  0.22003010147E+01 -0.40526722058E+02  0.40659139558E+02  0.00000000000E+00 0. -1.
         11    1    3    3    0    0  0.38415953999E+01  0.22874061940E+00  0.14380685409E+01  0.41083109519E+01  0.51100000000E-03 0. -1.
        -11    1    3    3    0    0  0.49146765069E+01 -0.10250701186E+02  0.16827043722E+02  0.20307149496E+02  0.51100000000E-03 0.  1.
        -12    1    3    3    0    0 -0.11187136828E+02  0.78216595518E+01  0.22261609795E+02  0.26113399994E+02  0.00000000000E+00 0.  1.
</event>
<event>
 7    1  0.4836188E-013  0.5052883E+02  0.7816164E-02  0.1300439E+00
        -11   -1    0    0    0    0  0.00000000000E+00  0.00000000000E+00  0.45593999997E+02  0.45594000000E+02  0.51100000000E-03 0. -1.
         11   -1    0    0    0    0 -0.00000000000E+00 -0.00000000000E+00 -0.45593999997E+02  0.45594000000E+02  0.51100000000E-03 0.  1.
    9900012    2    1    2    0    0  0.38369387671E+02 -0.62471081260E+01 -0.11913527797E+02  0.50528826192E+02  0.29999897692E+02 0.  0.
         12    1    1    2    0    0 -0.38369387671E+02  0.62471081260E+01  0.11913527797E+02  0.40659173808E+02  0.00000000000E+00 0. -1.
         11    1    3    3    0    0  0.16416140710E+02  0.26491435916E+01 -0.11922411133E+02  0.20460975663E+02  0.51100000000E-03 0. -1.
        -11    1    3    3    0    0  0.21506697127E+02 -0.10351729149E+02 -0.53807645756E+01  0.24467303599E+02  0.51100000000E-03 0.  1.
         12    1    3    3    0    0  0.44654983403E+00  0.14554774316E+01  0.53896479118E+01  0.56005469305E+01  0.00000000000E+00 0. -1.
</event>
<event>
 7    1  0.4836188E-013  0.5052886E+02  0.7816164E-02  0.1300439E+00
        -11   -1    0    0    0    0  0.00000000000E+00  0.00000000000E+00  0.45593999997E+02  0.45594000000E+02  0.51100000000E-03 0.  1.
         11   -1    0    0    0    0 -0.00000000000E+00 -0.00000000000E+00 -0.45593999997E+02  0.45594000000E+02  0.51100000000E-03 0. -1.
    9900012    2    1    2    0    0 -0.33398851812E+02  0.13796609615E+02  0.18636950983E+02  0.50528859807E+02  0.29999999871E+02 0.  0.
         12    1    1    2    0    0  0.33398851812E+02 -0.13796609615E+02 -0.18636950983E+02  0.40659140193E+02  0.00000000000E+00 0. -1.
         11    1    3    3    0    0 -0.56451581337E+01  0.15062449207E+00 -0.39505879606E+01  0.68918534218E+01  0.51100000000E-03 0. -1.
        -11    1    3    3    0    0 -0.16971504257E+02 -0.24855295714E+01  0.61973141669E+01  0.18237777198E+02  0.51100000000E-03 0.  1.
         12    1    3    3    0    0 -0.10782189422E+02  0.16131514695E+02  0.16390224777E+02  0.25399229187E+02  0.00000000000E+00 0. -1.
</event>
<event>
 7    1  0.4836188E-013  0.5052886E+02  0.7816164E-02  0.1300439E+00
        -11   -1    0    0    0    0  0.00000000000E+00  0.00000000000E+00  0.45593999997E+02  0.45594000000E+02  0.51100000000E-03 0.  1.
         11   -1    0    0    0    0 -0.00000000000E+00 -0.00000000000E+00 -0.45593999997E+02  0.45594000000E+02  0.51100000000E-03 0. -1.
    9900012    2    1    2    0    0 -0.29145443469E+02  0.22635082861E+02 -0.17069328820E+02  0.50528857885E+02  0.29999994027E+02 0.  0.
         12    1    1    2    0    0  0.29145443469E+02 -0.22635082861E+02  0.17069328820E+02  0.40659142115E+02  0.00000000000E+00 0. -1.
         11    1    3    3    0    0 -0.11547735779E+02  0.17843801614E+02 -0.75745211643E+01  0.22563794645E+02  0.51100000000E-03 0. -1.
        -11    1    3    3    0    0  0.40660623285E+01  0.71175529565E+00 -0.25520756674E+01  0.48530968395E+01  0.51100000000E-03 0.  1.
        -12    1    3    3    0    0 -0.21663770019E+02  0.40795259515E+01 -0.69427319888E+01  0.23111966401E+02  0.00000000000E+00 0.  1.
</event>
<event>
 7    1  0.4836188E-013  0.5052886E+02  0.7816164E-02  0.1300439E+00
        -11   -1    0    0    0    0  0.00000000000E+00  0.00000000000E+00  0.45593999997E+02  0.45594000000E+02  0.51100000000E-03 0. -1.
         11   -1    0    0    0    0 -0.00000000000E+00 -0.00000000000E+00 -0.45593999997E+02  0.45594000000E+02  0.51100000000E-03 0.  1.
    9900012    2    1    2    0    0  0.16354881794E+02  0.32532637610E+02 -0.18091742607E+02  0.50528858114E+02  0.29999994723E+02 0.  0.
         12    1    1    2    0    0 -0.16354881794E+02 -0.32532637610E+02  0.18091742607E+02  0.40659141886E+02  0.00000000000E+00 0. -1.
         11    1    3    3    0    0  0.55105373836E+01  0.68228951934E+00 -0.63485689165E+01  0.84342082494E+01  0.51100000000E-03 0. -1.
        -11    1    3    3    0    0  0.76919475636E+01  0.34920034655E+02 -0.11918235622E+02  0.37691102640E+02  0.51100000000E-03 0.  1.
         12    1    3    3    0    0  0.31523968465E+01 -0.30696865637E+01  0.17506193220E+00  0.44035472244E+01  0.00000000000E+00 0. -1.
</event>
<event>
 7    1  0.4836188E-013  0.5052886E+02  0.7816164E-02  0.1300439E+00
        -11   -1    0    0    0    0  0.00000000000E+00  0.00000000000E+00  0.45593999997E+02  0.45594000000E+02  0.51100000000E-03 0. -1.
         11   -1    0    0    0    0 -0.00000000000E+00 -0.00000000000E+00 -0.45593999997E+02  0.45594000000E+02  0.51100000000E-03 0.  1.
    9900012    2    1    2    0    0 -0.26538905493E+02 -0.28321858821E+02 -0.12112973672E+02  0.50528864211E+02  0.30000013257E+02 0.  0.
         12    1    1    2    0    0  0.26538905493E+02  0.28321858821E+02  0.12112973672E+02  0.40659135789E+02  0.00000000000E+00 0. -1.
         11    1    3    3    0    0 -0.67624901359E+01 -0.20962611743E+02 -0.83229175368E+01  0.23546407805E+02  0.51100000000E-03 0. -1.
        -11    1    3    3    0    0 -0.10606704831E+02 -0.64357369678E+01 -0.99446691081E+01  0.15900230867E+02  0.51100000000E-03 0.  1.
         12    1    3    3    0    0 -0.91697105268E+01 -0.92351011036E+00  0.61546129727E+01  0.11082225540E+02  0.00000000000E+00 0. -1.
</event>
<event>
 7    1  0.4836188E-013  0.5052886E+02  0.7816164E-02  0.1300439E+00
        -11   -1    0    0    0    0  0.00000000000E+00  0.00000000000E+00  0.45593999997E+02  0.45594000000E+02  0.51100000000E-03 0. -1.
         11   -1    0    0    0    0 -0.00000000000E+00 -0.00000000000E+00 -0.45593999997E+02  0.45594000000E+02  0.51100000000E-03 0.  1.
    9900012    2    1    2    0    0  0.78519997076E-01  0.28745747558E+02 -0.28754848655E+02  0.50528862168E+02  0.30000007045E+02 0.  0.
         12    1    1    2    0    0 -0.78519997076E-01 -0.28745747558E+02  0.28754848655E+02  0.40659137832E+02  0.00000000000E+00 0. -1.
         11    1    3    3    0    0  0.35047621360E+00 -0.19461011116E+00  0.47067420217E+01  0.47237831652E+01  0.51100000000E-03 0. -1.
        -11    1    3    3    0    0 -0.12729027074E+01  0.27301535403E+01  0.32779585312E+00  0.30300940643E+01  0.51100000000E-03 0.  1.
        -12    1    3    3    0    0  0.10009464909E+01  0.26210204129E+02 -0.33789386530E+02  0.42774984938E+02  0.00000000000E+00 0.  1.
</event>
<event>
 7    1  0.4836188E-013  0.5052886E+02  0.7816164E-02  0.1300439E+00
        -11   -1    0    0    0    0  0.00000000000E+00  0.00000000000E+00  0.45593999997E+02  0.45594000000E+02  0.51100000000E-03 0. -1.
         11   -1    0    0    0    0 -0.00000000000E+00 -0.00000000000E+00 -0.45593999997E+02  0.45594000000E+02  0.51100000000E-03 0.  1.
    9900012    2    1    2    0    0 -0.25951813236E+02  0.12248902495E+02 -0.28803361960E+02  0.50528857328E+02  0.29999992335E+02 0.  0.
         12    1    1    2    0    0  0.25951813236E+02 -0.12248902495E+02  0.28803361960E+02  0.40659142672E+02  0.00000000000E+00 0. -1.
         11    1    3    3    0    0  0.32953198873E+01 -0.10526717475E+01  0.71207237988E-01  0.34601042902E+01  0.51100000000E-03 0. -1.
        -11    1    3    3    0    0 -0.20148987719E+02  0.47639014405E+00 -0.99900901677E+01  0.22494678382E+02  0.51100000000E-03 0.  1.
        -12    1    3    3    0    0 -0.90981454048E+01  0.12825184099E+02 -0.18884479030E+02  0.24574074656E+02  0.00000000000E+00 0.  1.
</event>
<event>
 7    1  0.4836188E-013  0.5052886E+02  0.7816164E-02  0.1300439E+00
        -11   -1    0    0    0    0  0.00000000000E+00  0.00000000000E+00  0.45593999997E+02  0.45594000000E+02  0.51100000000E-03 0. -1.
         11   -1    0    0    0    0 -0.00000000000E+00 -0.00000000000E+00 -0.45593999997E+02  0.45594000000E+02  0.51100000000E-03 0.  1.
    9900012    2    1    2    0    0 -0.11484816178E+02 -0.35353713052E+02 -0.16473611991E+02  0.50528856856E+02  0.29999990898E+02 0.  0.
         12    1    1    2    0    0  0.11484816178E+02  0.35353713052E+02  0.16473611991E+02  0.40659143144E+02  0.00000000000E+00 0. -1.
         11    1    3    3    0    0 -0.28171378208E+01 -0.39299938846E+01  0.33425666987E+01  0.58782539781E+01  0.51100000000E-03 0. -1.
        -11    1    3    3    0    0 -0.13169244766E+02 -0.91042304252E+01 -0.13707870353E+02  0.21076568250E+02  0.51100000000E-03 0.  1.
         12    1    3    3    0    0  0.45015664091E+01 -0.22319488742E+02 -0.61083083369E+01  0.23574034627E+02  0.00000000000E+00 0. -1.
</event>
<event>
 7    1  0.4836188E-013  0.5052885E+02  0.7816164E-02  0.1300439E+00
        -11   -1    0    0    0    0  0.00000000000E+00  0.00000000000E+00  0.45593999997E+02  0.45594000000E+02  0.51100000000E-03 0.  1.
         11   -1    0    0    0    0 -0.00000000000E+00 -0.00000000000E+00 -0.45593999997E+02  0.45594000000E+02  0.51100000000E-03 0. -1.
    9900012    2    1    2    0    0  0.10134167526E+02  0.39260050021E+01  0.39179731699E+02  0.50528852902E+02  0.29999978881E+02 0.  0.
         12    1    1    2    0    0 -0.10134167526E+02 -0.39260050021E+01 -0.39179731699E+02  0.40659147098E+02  0.00000000000E+00 0. -1.
         11    1    3    3    0    0  0.51663154652E+01  0.16502777608E+01  0.19214480969E+02  0.19965232564E+02  0.51100000000E-03 0.  1.
        -11    1    3    3    0    0 -0.54603418412E+01 -0.36755072445E+01  0.16951156707E+02  0.18184234944E+02  0.51100000000E-03 0. -1.
         12    1    3    3    0    0  0.10428193902E+02  0.59512344858E+01  0.30140940233E+01  0.12379385394E+02  0.00000000000E+00 0. -1.
</event>
<event>
 7    1  0.4836188E-013  0.5052886E+02  0.7816164E-02  0.1300439E+00
        -11   -1    0    0    0    0  0.00000000000E+00  0.00000000000E+00  0.45593999997E+02  0.45594000000E+02  0.51100000000E-03 0.  1.
         11   -1    0    0    0    0 -0.00000000000E+00 -0.00000000000E+00 -0.45593999997E+02  0.45594000000E+02  0.51100000000E-03 0. -1.
    9900012    2    1    2    0    0 -0.17852691754E+02 -0.35567355352E+02  0.83313017196E+01  0.50528856404E+02  0.29999989526E+02 0.  0.
         12    1    1    2    0    0  0.17852691754E+02  0.35567355352E+02 -0.83313017196E+01  0.40659143596E+02  0.00000000000E+00 0. -1.
         11    1    3    3    0    0 -0.69574428915E+01 -0.10331383933E+02  0.38562195580E-01  0.12455721290E+02  0.51100000000E-03 0.  1.
        -11    1    3    3    0    0 -0.82227008894E+01 -0.42612241771E+00  0.10127696336E+02  0.13052379997E+02  0.51100000000E-03 0. -1.
         12    1    3    3    0    0 -0.26725479730E+01 -0.24809849001E+02 -0.18349568123E+01  0.25020755117E+02  0.00000000000E+00 0. -1.
</event>
<event>
 7    1  0.4836188E-013  0.5052886E+02  0.7816164E-02  0.1300439E+00
        -11   -1    0    0    0    0  0.00000000000E+00  0.00000000000E+00  0.45593999997E+02  0.45594000000E+02  0.51100000000E-03 0.  1.
         11   -1    0    0    0    0 -0.00000000000E+00 -0.00000000000E+00 -0.45593999997E+02  0.45594000000E+02  0.51100000000E-03 0. -1.
    9900012    2    1    2    0    0  0.21412146593E+00 -0.40609724910E+02 -0.19925499345E+01  0.50528857602E+02  0.29999993168E+02 0.  0.
         12    1    1    2    0    0 -0.21412146593E+00  0.40609724910E+02  0.19925499345E+01  0.40659142398E+02  0.00000000000E+00 0. -1.
         11    1    3    3    0    0  0.25924471638E+01 -0.40758866467E+01 -0.99804264153E+01  0.11087945975E+02  0.51100000000E-03 0. -1.
        -11    1    3    3    0    0  0.47155190835E+01 -0.98655292975E+01  0.10392558526E+01  0.10983844570E+02  0.51100000000E-03 0.  1.
         12    1    3    3    0    0 -0.70938447813E+01 -0.26668308966E+02  0.69486206282E+01  0.28457067057E+02  0.00000000000E+00 0. -1.
</event>
<event>
 7    1  0.4836188E-013  0.5052886E+02  0.7816164E-02  0.1300439E+00
        -11   -1    0    0    0    0  0.00000000000E+00  0.00000000000E+00  0.45593999997E+02  0.45594000000E+02  0.51100000000E-03 0.  1.
         11   -1    0    0    0    0 -0.00000000000E+00 -0.00000000000E+00 -0.45593999997E+02  0.45594000000E+02  0.51100000000E-03 0. -1.
    9900012    2    1    2    0    0 -0.25941535190E+02 -0.19824802124E+02  0.24231785078E+02  0.50528862831E+02  0.30000009061E+02 0.  0.
         12    1    1    2    0    0  0.25941535190E+02  0.19824802124E+02 -0.24231785078E+02  0.40659137169E+02  0.00000000000E+00 0. -1.
         11    1    3    3    0    0 -0.25573233923E+01 -0.11321645774E+02  0.74859072654E+01  0.13811530466E+02  0.51100000000E-03 0.  1.
        -11    1    3    3    0    0 -0.62354859578E+01  0.18995333048E+01  0.15273230901E+02  0.16606055953E+02  0.51100000000E-03 0. -1.
         12    1    3    3    0    0 -0.17148725840E+02 -0.10402689655E+02  0.14726469117E+01  0.20111276412E+02  0.00000000000E+00 0. -1.
</event>
<event>
 7    1  0.4836188E-013  0.5052887E+02  0.7816164E-02  0.1300439E+00
        -11   -1    0    0    0    0  0.00000000000E+00  0.00000000000E+00  0.45593999997E+02  0.45594000000E+02  0.51100000000E-03 0.  1.
         11   -1    0    0    0    0 -0.00000000000E+00 -0.00000000000E+00 -0.45593999997E+02  0.45594000000E+02  0.51100000000E-03 0. -1.
    9900012    2    1    2    0    0  0.77770905174E+01  0.39405343240E+02 -0.63167222960E+01  0.50528865807E+02  0.30000018106E+02 0.  0.
         12    1    1    2    0    0 -0.77770905174E+01 -0.39405343240E+02  0.63167222960E+01  0.40659134193E+02  0.00000000000E+00 0. -1.
         11    1    3    3    0    0  0.10081957543E+02  0.21294935639E+02  0.49260050781E+01  0.24070431614E+02  0.51100000000E-03 0.  1.
        -11    1    3    3    0    0 -0.33483775824E+01  0.12177197955E+02  0.11476054687E+01  0.12681197934E+02  0.51100000000E-03 0. -1.
         12    1    3    3    0    0  0.10435105572E+01  0.59332096459E+01 -0.12390332843E+02  0.13777236259E+02  0.00000000000E+00 0. -1.
</event>
<event>
 7    1  0.4836188E-013  0.5052887E+02  0.7816164E-02  0.1300439E+00
        -11   -1    0    0    0    0  0.00000000000E+00  0.00000000000E+00  0.45593999997E+02  0.45594000000E+02  0.51100000000E-03 0.  1.
         11   -1    0    0    0    0 -0.00000000000E+00 -0.00000000000E+00 -0.45593999997E+02  0.45594000000E+02  0.51100000000E-03 0. -1.
    9900012    2    1    2    0    0  0.10577519500E+02 -0.33927223161E+02  0.19754099031E+02  0.50528870413E+02  0.30000032109E+02 0.  0.
         12    1    1    2    0    0 -0.10577519500E+02  0.33927223161E+02 -0.19754099031E+02  0.40659129587E+02  0.00000000000E+00 0. -1.
         11    1    3    3    0    0  0.82757908683E+01 -0.27504378223E+02  0.56116001931E+01  0.29265501754E+02  0.51100000000E-03 0. -1.
        -11    1    3    3    0    0  0.24884433303E+01 -0.90109544272E+01  0.15674180395E+02  0.18250194005E+02  0.51100000000E-03 0.  1.
        -12    1    3    3    0    0 -0.18671469859E+00  0.25881094893E+01 -0.15316815568E+01  0.30131746545E+01  0.00000000000E+00 0.  1.
</event>
<event>
 7    1  0.4836188E-013  0.5052886E+02  0.7816164E-02  0.1300439E+00
        -11   -1    0    0    0    0  0.00000000000E+00  0.00000000000E+00  0.45593999997E+02  0.45594000000E+02  0.51100000000E-03 0.  1.
         11   -1    0    0    0    0 -0.00000000000E+00 -0.00000000000E+00 -0.45593999997E+02  0.45594000000E+02  0.51100000000E-03 0. -1.
    9900012    2    1    2    0    0  0.19765578384E+02  0.13684847653E+02  0.32790431063E+02  0.50528861871E+02  0.30000006142E+02 0.  0.
         12    1    1    2    0    0 -0.19765578384E+02 -0.13684847653E+02 -0.32790431063E+02  0.40659138129E+02  0.00000000000E+00 0. -1.
         11    1    3    3    0    0  0.22692394271E+01  0.15478225625E+02  0.86886776226E+01  0.17894637051E+02  0.51100000000E-03 0. -1.
        -11    1    3    3    0    0  0.66174993767E+01  0.50470866610E+01  0.14005975187E+02  0.16292075465E+02  0.51100000000E-03 0.  1.
         12    1    3    3    0    0  0.10878839580E+02 -0.68404646329E+01  0.10095778254E+02  0.16342149355E+02  0.00000000000E+00 0. -1.
</event>
<event>
 7    1  0.4836188E-013  0.5052886E+02  0.7816164E-02  0.1300439E+00
        -11   -1    0    0    0    0  0.00000000000E+00  0.00000000000E+00  0.45593999997E+02  0.45594000000E+02  0.51100000000E-03 0.  1.
         11   -1    0    0    0    0 -0.00000000000E+00 -0.00000000000E+00 -0.45593999997E+02  0.45594000000E+02  0.51100000000E-03 0. -1.
    9900012    2    1    2    0    0  0.35499129171E+01  0.40488934193E+02  0.11001468596E+01  0.50528855925E+02  0.29999988071E+02 0.  0.
         12    1    1    2    0    0 -0.35499129171E+01 -0.40488934193E+02 -0.11001468596E+01  0.40659144075E+02  0.00000000000E+00 0. -1.
         11    1    3    3    0    0  0.58505738130E+01  0.40090178182E+02 -0.58100360343E+01  0.40929306366E+02  0.51100000000E-03 0. -1.
        -11    1    3    3    0    0 -0.24700493252E+01  0.19091054367E+01  0.69104632973E+00  0.31974009020E+01  0.51100000000E-03 0.  1.
         12    1    3    3    0    0  0.16938842931E+00 -0.15103494261E+01  0.62191365642E+01  0.64021486575E+01  0.00000000000E+00 0. -1.
</event>
<event>
 7    1  0.4836188E-013  0.5052886E+02  0.7816164E-02  0.1300439E+00
        -11   -1    0    0    0    0  0.00000000000E+00  0.00000000000E+00  0.45593999997E+02  0.45594000000E+02  0.51100000000E-03 0.  1.
         11   -1    0    0    0    0 -0.00000000000E+00 -0.00000000000E+00 -0.45593999997E+02  0.45594000000E+02  0.51100000000E-03 0. -1.
    9900012    2    1    2    0    0  0.39523245903E+02  0.72433773241E+01  0.62138942249E+01  0.50528856339E+02  0.29999989329E+02 0.  0.
         12    1    1    2    0    0 -0.39523245903E+02 -0.72433773241E+01 -0.62138942249E+01  0.40659143661E+02  0.00000000000E+00 0. -1.
         11    1    3    3    0    0 -0.34280610312E+00 -0.38506231380E+01  0.74383198768E+00  0.39367627388E+01  0.51100000000E-03 0. -1.
        -11    1    3    3    0    0  0.34394950101E+02  0.75971459802E+01 -0.36326898465E+01  0.35410812689E+02  0.51100000000E-03 0.  1.
         12    1    3    3    0    0  0.54711019054E+01  0.34968544818E+01  0.91027520837E+01  0.11181280912E+02  0.00000000000E+00 0. -1.
</event>
<event>
 7    1  0.4836188E-013  0.5052885E+02  0.7816164E-02  0.1300439E+00
        -11   -1    0    0    0    0  0.00000000000E+00  0.00000000000E+00  0.45593999997E+02  0.45594000000E+02  0.51100000000E-03 0.  1.
         11   -1    0    0    0    0 -0.00000000000E+00 -0.00000000000E+00 -0.45593999997E+02  0.45594000000E+02  0.51100000000E-03 0. -1.
    9900012    2    1    2    0    0 -0.51964854377E+01  0.14938337549E+01  0.40298030036E+02  0.50528853120E+02  0.29999979544E+02 0.  0.
         12    1    1    2    0    0  0.51964854377E+01 -0.14938337549E+01 -0.40298030036E+02  0.40659146880E+02  0.00000000000E+00 0. -1.
         11    1    3    3    0    0  0.57769427959E+00  0.30652237677E+01  0.25003031452E+02  0.25196843245E+02  0.51100000000E-03 0.  1.
        -11    1    3    3    0    0 -0.66555339715E+01 -0.87748639684E+01  0.14234644872E+02  0.17997763333E+02  0.51100000000E-03 0. -1.
         12    1    3    3    0    0  0.88135425419E+00  0.72034739556E+01  0.10603537121E+01  0.73342465424E+01  0.00000000000E+00 0. -1.
</event>
<event>
 7    1  0.4836188E-013  0.5052886E+02  0.7816164E-02  0.1300439E+00
        -11   -1    0    0    0    0  0.00000000000E+00  0.00000000000E+00  0.45593999997E+02  0.45594000000E+02  0.51100000000E-03 0.  1.
         11   -1    0    0    0    0 -0.00000000000E+00 -0.00000000000E+00 -0.45593999997E+02  0.45594000000E+02  0.51100000000E-03 0. -1.
    9900012    2    1    2    0    0  0.36373826949E+02  0.59942469853E+00  0.18159042404E+02  0.50528863045E+02  0.30000009711E+02 0.  0.
         12    1    1    2    0    0 -0.36373826949E+02 -0.59942469853E+00 -0.18159042404E+02  0.40659136955E+02  0.00000000000E+00 0. -1.
         11    1    3    3    0    0  0.23678423655E+01 -0.35660052633E+01  0.82465610800E+01  0.92913314930E+01  0.51100000000E-03 0. -1.
        -11    1    3    3    0    0  0.89761478751E+01 -0.71204438627E+01 -0.13983967104E+01  0.11542420244E+02  0.51100000000E-03 0.  1.
         12    1    3    3    0    0  0.25029836709E+02  0.11285873824E+02  0.11310878035E+02  0.29695111307E+02  0.00000000000E+00 0. -1.
</event>
<event>
 7    1  0.4836188E-013  0.5052888E+02  0.7816164E-02  0.1300439E+00
        -11   -1    0    0    0    0  0.00000000000E+00  0.00000000000E+00  0.45593999997E+02  0.45594000000E+02  0.51100000000E-03 0. -1.
         11   -1    0    0    0    0 -0.00000000000E+00 -0.00000000000E+00 -0.45593999997E+02  0.45594000000E+02  0.51100000000E-03 0.  1.
    9900012    2    1    2    0    0  0.15746177339E+02  0.29001580624E+02 -0.23751421877E+02  0.50528882688E+02  0.30000069417E+02 0.  0.
         12    1    1    2    0    0 -0.15746177339E+02 -0.29001580624E+02  0.23751421877E+02  0.40659117312E+02  0.00000000000E+00 0. -1.
         11    1    3    3    0    0 -0.36109116833E+01  0.18610985382E+01 -0.32180110091E+01  0.51824671798E+01  0.51100000000E-03 0. -1.
        -11    1    3    3    0    0  0.30680462658E+01  0.33848244301E+01  0.50583149471E+01  0.68159001370E+01  0.51100000000E-03 0.  1.
        -12    1    3    3    0    0  0.16289042756E+02  0.23755657656E+02 -0.25591725815E+02  0.38530515371E+02  0.00000000000E+00 0.  1.
</event>
<event>
 7    1  0.4836188E-013  0.5052886E+02  0.7816164E-02  0.1300439E+00
        -11   -1    0    0    0    0  0.00000000000E+00  0.00000000000E+00  0.45593999997E+02  0.45594000000E+02  0.51100000000E-03 0.  1.
         11   -1    0    0    0    0 -0.00000000000E+00 -0.00000000000E+00 -0.45593999997E+02  0.45594000000E+02  0.51100000000E-03 0. -1.
    9900012    2    1    2    0    0  0.16350782294E+02 -0.27827826548E+02  0.24727100216E+02  0.50528862071E+02  0.30000006751E+02 0.  0.
         12    1    1    2    0    0 -0.16350782294E+02  0.27827826548E+02 -0.24727100216E+02  0.40659137929E+02  0.00000000000E+00 0. -1.
         11    1    3    3    0    0  0.70380691645E+01  0.44342340974E+01  0.37196718090E+01  0.91122339863E+01  0.51100000000E-03 0. -1.
        -11    1    3    3    0    0  0.46379891287E+01 -0.54565910577E+01  0.94421961986E+01  0.11850755184E+02  0.51100000000E-03 0.  1.
         12    1    3    3    0    0  0.46747240013E+01 -0.26805469588E+02  0.11565232209E+02  0.29565872900E+02  0.00000000000E+00 0. -1.
</event>
<event>
 7    1  0.4836188E-013  0.5052888E+02  0.7816164E-02  0.1300439E+00
        -11   -1    0    0    0    0  0.00000000000E+00  0.00000000000E+00  0.45593999997E+02  0.45594000000E+02  0.51100000000E-03 0.  1.
         11   -1    0    0    0    0 -0.00000000000E+00 -0.00000000000E+00 -0.45593999997E+02  0.45594000000E+02  0.51100000000E-03 0. -1.
    9900012    2    1    2    0    0  0.31374432919E+02  0.86019316063E+01  0.24388844631E+02  0.50528880349E+02  0.30000062310E+02 0.  0.
         12    1    1    2    0    0 -0.31374432919E+02 -0.86019316063E+01 -0.24388844631E+02  0.40659119651E+02  0.00000000000E+00 0. -1.
         11    1    3    3    0    0  0.72302882790E+01  0.13268486869E+02  0.55640452640E+01  0.16102434982E+02  0.51100000000E-03 0. -1.
        -11    1    3    3    0    0  0.93316699391E+01  0.79250746544E+00  0.15778875158E+02  0.18348870086E+02  0.51100000000E-03 0.  1.
        -12    1    3    3    0    0  0.14812474701E+02 -0.54590627280E+01  0.30459242087E+01  0.16077575281E+02  0.00000000000E+00 0.  1.
</event>
<event>
 7    1  0.4836188E-013  0.5052884E+02  0.7816164E-02  0.1300439E+00
        -11   -1    0    0    0    0  0.00000000000E+00  0.00000000000E+00  0.45593999997E+02  0.45594000000E+02  0.51100000000E-03 0.  1.
         11   -1    0    0    0    0 -0.00000000000E+00 -0.00000000000E+00 -0.45593999997E+02  0.45594000000E+02  0.51100000000E-03 0. -1.
    9900012    2    1    2    0    0  0.19162194750E+02  0.11650199809E+02  0.33915347455E+02  0.50528835520E+02  0.29999926047E+02 0.  0.
         12    1    1    2    0    0 -0.19162194750E+02 -0.11650199809E+02 -0.33915347455E+02  0.40659164480E+02  0.00000000000E+00 0. -1.
         11    1    3    3    0    0 -0.39607988153E+01  0.25588358264E+01 -0.65994249460E-01  0.47159223429E+01  0.51100000000E-03 0. -1.
        -11    1    3    3    0    0  0.52566945936E+01 -0.18774967218E+01  0.19625922774E+02  0.20404280850E+02  0.51100000000E-03 0.  1.
         12    1    3    3    0    0  0.17866298972E+02  0.10968860705E+02  0.14355418930E+02  0.25408632328E+02  0.00000000000E+00 0. -1.
</event>
<event>
 7    1  0.4836188E-013  0.5052887E+02  0.7816164E-02  0.1300439E+00
        -11   -1    0    0    0    0  0.00000000000E+00  0.00000000000E+00  0.45593999997E+02  0.45594000000E+02  0.51100000000E-03 0.  1.
         11   -1    0    0    0    0 -0.00000000000E+00 -0.00000000000E+00 -0.45593999997E+02  0.45594000000E+02  0.51100000000E-03 0. -1.
    9900012    2    1    2    0    0  0.48331591634E+01 -0.16781117509E+02  0.36717838384E+02  0.50528868333E+02  0.30000025784E+02 0.  0.
         12    1    1    2    0    0 -0.48331591634E+01  0.16781117509E+02 -0.36717838384E+02  0.40659131667E+02  0.00000000000E+00 0. -1.
         11    1    3    3    0    0 -0.41982032215E+01 -0.12064544739E+02  0.22461687915E+02  0.25839999503E+02  0.51100000000E-03 0.  1.
        -11    1    3    3    0    0  0.21190812699E+01  0.31659521509E+01  0.13667333488E+02  0.14188367185E+02  0.51100000000E-03 0. -1.
         12    1    3    3    0    0  0.69122811150E+01 -0.78825249208E+01  0.58881698045E+00  0.10500501644E+02  0.00000000000E+00 0. -1.
</event>
<event>
 7    1  0.4836188E-013  0.5052886E+02  0.7816164E-02  0.1300439E+00
        -11   -1    0    0    0    0  0.00000000000E+00  0.00000000000E+00  0.45593999997E+02  0.45594000000E+02  0.51100000000E-03 0.  1.
         11   -1    0    0    0    0 -0.00000000000E+00 -0.00000000000E+00 -0.45593999997E+02  0.45594000000E+02  0.51100000000E-03 0. -1.
    9900012    2    1    2    0    0 -0.31162940665E+02 -0.11463906903E+02  0.23465198660E+02  0.50528861045E+02  0.30000003634E+02 0.  0.
         12    1    1    2    0    0  0.31162940665E+02  0.11463906903E+02 -0.23465198660E+02  0.40659138955E+02  0.00000000000E+00 0. -1.
         11    1    3    3    0    0  0.28092446625E+01 -0.80722235878E+01  0.54436093580E+01  0.10133387012E+02  0.51100000000E-03 0. -1.
        -11    1    3    3    0    0 -0.82122699591E+01 -0.43777658467E+01  0.93635247699E+01  0.13201583544E+02  0.51100000000E-03 0.  1.
         12    1    3    3    0    0 -0.25759915368E+02  0.98608253135E+00  0.86580645326E+01  0.27193890490E+02  0.00000000000E+00 0. -1.
</event>
<event>
 7    1  0.4836188E-013  0.5052885E+02  0.7816164E-02  0.1300439E+00
        -11   -1    0    0    0    0  0.00000000000E+00  0.00000000000E+00  0.45593999997E+02  0.45594000000E+02  0.51100000000E-03 0. -1.
         11   -1    0    0    0    0 -0.00000000000E+00 -0.00000000000E+00 -0.45593999997E+02  0.45594000000E+02  0.51100000000E-03 0.  1.
    9900012    2    1    2    0    0  0.18564883307E+02 -0.20565352699E+02 -0.29758663567E+02  0.50528847511E+02  0.29999962494E+02 0.  0.
         12    1    1    2    0    0 -0.18564883307E+02  0.20565352699E+02  0.29758663567E+02  0.40659152489E+02  0.00000000000E+00 0. -1.
         11    1    3    3    0    0  0.11117501745E+01  0.25951401732E+01  0.26870666259E+01  0.38975721009E+01  0.51100000000E-03 0. -1.
        -11    1    3    3    0    0  0.22882760223E+01  0.11186729026E+01 -0.98151698783E+01  0.10140275944E+02  0.51100000000E-03 0.  1.
        -12    1    3    3    0    0  0.15164857110E+02 -0.24279165775E+02 -0.22630560314E+02  0.36490999466E+02  0.00000000000E+00 0.  1.
</event>
<event>
 7    1  0.4836188E-013  0.5052886E+02  0.7816164E-02  0.1300439E+00
        -11   -1    0    0    0    0  0.00000000000E+00  0.00000000000E+00  0.45593999997E+02  0.45594000000E+02  0.51100000000E-03 0.  1.
         11   -1    0    0    0    0 -0.00000000000E+00 -0.00000000000E+00 -0.45593999997E+02  0.45594000000E+02  0.51100000000E-03 0. -1.
    9900012    2    1    2    0    0 -0.38047949979E+01  0.24985694614E+01  0.40403541444E+02  0.50528862337E+02  0.30000007558E+02 0.  0.
         12    1    1    2    0    0  0.38047949979E+01 -0.24985694614E+01 -0.40403541444E+02  0.40659137663E+02  0.00000000000E+00 0. -1.
         11    1    3    3    0    0 -0.58243120988E+01 -0.88801685848E+01  0.98149003082E+01  0.14460714845E+02  0.51100000000E-03 0. -1.
        -11    1    3    3    0    0  0.33875629845E+00  0.80683133487E+00  0.22831677628E+02  0.22848440563E+02  0.51100000000E-03 0.  1.
         12    1    3    3    0    0  0.16807608025E+01  0.10571906711E+02  0.77569635082E+01  0.13219706928E+02  0.00000000000E+00 0. -1.
</event>
<event>
 7    1  0.4836188E-013  0.5052887E+02  0.7816164E-02  0.1300439E+00
        -11   -1    0    0    0    0  0.00000000000E+00  0.00000000000E+00  0.45593999997E+02  0.45594000000E+02  0.51100000000E-03 0.  1.
         11   -1    0    0    0    0 -0.00000000000E+00 -0.00000000000E+00 -0.45593999997E+02  0.45594000000E+02  0.51100000000E-03 0. -1.
    9900012    2    1    2    0    0  0.13095123926E+02 -0.28020339666E+02  0.26392100341E+02  0.50528872291E+02  0.30000037815E+02 0.  0.
         12    1    1    2    0    0 -0.13095123926E+02  0.28020339666E+02 -0.26392100341E+02  0.40659127709E+02  0.00000000000E+00 0. -1.
         11    1    3    3    0    0 -0.48024879199E+01 -0.13578154364E+02  0.13446666152E+02  0.19703882791E+02  0.51100000000E-03 0. -1.
        -11    1    3    3    0    0  0.10746368596E+02 -0.86436129536E+01  0.16001319483E+02  0.21124362910E+02  0.51100000000E-03 0.  1.
        -12    1    3    3    0    0  0.71512432497E+01 -0.57985723489E+01 -0.30558852944E+01  0.97006265898E+01  0.00000000000E+00 0.  1.
</event>
<event>
 7    1  0.4836188E-013  0.5052886E+02  0.7816164E-02  0.1300439E+00
        -11   -1    0    0    0    0  0.00000000000E+00  0.00000000000E+00  0.45593999997E+02  0.45594000000E+02  0.51100000000E-03 0.  1.
         11   -1    0    0    0    0 -0.00000000000E+00 -0.00000000000E+00 -0.45593999997E+02  0.45594000000E+02  0.51100000000E-03 0. -1.
    9900012    2    1    2    0    0  0.37500636426E+02 -0.23888540617E+01 -0.15529360016E+02  0.50528863529E+02  0.30000011182E+02 0.  0.
         12    1    1    2    0    0 -0.37500636426E+02  0.23888540617E+01  0.15529360016E+02  0.40659136471E+02  0.00000000000E+00 0. -1.
         11    1    3    3    0    0  0.16208828025E+01  0.44048248952E+01  0.29275621493E+01  0.55317595588E+01  0.51100000000E-03 0.  1.
        -11    1    3    3    0    0  0.59889822198E+01  0.11378133747E+01  0.35375198877E+01  0.70481610738E+01  0.51100000000E-03 0. -1.
         12    1    3    3    0    0  0.29890771404E+02 -0.79314923316E+01 -0.21994442053E+02  0.37948942896E+02  0.00000000000E+00 0. -1.
</event>
<event>
 7    1  0.4836188E-013  0.5052885E+02  0.7816164E-02  0.1300439E+00
        -11   -1    0    0    0    0  0.00000000000E+00  0.00000000000E+00  0.45593999997E+02  0.45594000000E+02  0.51100000000E-03 0. -1.
         11   -1    0    0    0    0 -0.00000000000E+00 -0.00000000000E+00 -0.45593999997E+02  0.45594000000E+02  0.51100000000E-03 0.  1.
    9900012    2    1    2    0    0  0.60290843466E+01  0.36792699165E+02 -0.16220773925E+02  0.50528854945E+02  0.29999985091E+02 0.  0.
         12    1    1    2    0    0 -0.60290843466E+01 -0.36792699165E+02  0.16220773925E+02  0.40659145055E+02  0.00000000000E+00 0. -1.
         11    1    3    3    0    0 -0.52073786010E+00 -0.15871381055E+01  0.81706963577E+00  0.18595102408E+01  0.51100000000E-03 0. -1.
        -11    1    3    3    0    0 -0.56720923197E+01  0.17456316986E+02 -0.16107021000E+02  0.24419904991E+02  0.51100000000E-03 0.  1.
         12    1    3    3    0    0  0.12221914526E+02  0.20923520284E+02 -0.93082256076E+00  0.24249439713E+02  0.00000000000E+00 0. -1.
</event>
<event>
 7    1  0.4836188E-013  0.5052886E+02  0.7816164E-02  0.1300439E+00
        -11   -1    0    0    0    0  0.00000000000E+00  0.00000000000E+00  0.45593999997E+02  0.45594000000E+02  0.51100000000E-03 0.  1.
         11   -1    0    0    0    0 -0.00000000000E+00 -0.00000000000E+00 -0.45593999997E+02  0.45594000000E+02  0.51100000000E-03 0. -1.
    9900012    2    1    2    0    0  0.11728539223E+02 -0.34062797187E+02  0.18850277743E+02  0.50528858894E+02  0.29999997094E+02 0.  0.
         12    1    1    2    0    0 -0.11728539223E+02  0.34062797187E+02 -0.18850277743E+02  0.40659141106E+02  0.00000000000E+00 0. -1.
         11    1    3    3    0    0 -0.40071941980E+01  0.18711881994E+01  0.23585077994E+01  0.50121362630E+01  0.51100000000E-03 0. -1.
        -11    1    3    3    0    0  0.21266303732E+01 -0.18422376969E+01  0.70845076882E+01  0.76227715381E+01  0.51100000000E-03 0.  1.
         12    1    3    3    0    0  0.13609103048E+02 -0.34091747689E+02  0.94072622555E+01  0.37893951093E+02  0.00000000000E+00 0. -1.
</event>
<event>
 7    1  0.4836188E-013  0.5052884E+02  0.7816164E-02  0.1300439E+00
        -11   -1    0    0    0    0  0.00000000000E+00  0.00000000000E+00  0.45593999997E+02  0.45594000000E+02  0.51100000000E-03 0.  1.
         11   -1    0    0    0    0 -0.00000000000E+00 -0.00000000000E+00 -0.45593999997E+02  0.45594000000E+02  0.51100000000E-03 0. -1.
    9900012    2    1    2    0    0  0.25363678262E+02  0.13756045336E+02  0.28646511744E+02  0.50528836292E+02  0.29999928394E+02 0.  0.
         12    1    1    2    0    0 -0.25363678262E+02 -0.13756045336E+02 -0.28646511744E+02  0.40659163708E+02  0.00000000000E+00 0. -1.
         11    1    3    3    0    0 -0.31470061558E+01  0.10002187302E+01  0.70675053156E+00  0.33769189845E+01  0.51100000000E-03 0. -1.
        -11    1    3    3    0    0  0.20452602461E+02  0.32945939835E+01  0.53926565193E+01  0.21406635456E+02  0.51100000000E-03 0.  1.
        -12    1    3    3    0    0  0.80580819569E+01  0.94612326225E+01  0.22547104694E+02  0.25745281852E+02  0.00000000000E+00 0.  1.
</event>
<event>
 7    1  0.4836188E-013  0.5052886E+02  0.7816164E-02  0.1300439E+00
        -11   -1    0    0    0    0  0.00000000000E+00  0.00000000000E+00  0.45593999997E+02  0.45594000000E+02  0.51100000000E-03 0.  1.
         11   -1    0    0    0    0 -0.00000000000E+00 -0.00000000000E+00 -0.45593999997E+02  0.45594000000E+02  0.51100000000E-03 0. -1.
    9900012    2    1    2    0    0 -0.40782282335E+01  0.40314851491E+02 -0.33535332461E+01  0.50528863493E+02  0.30000011074E+02 0.  0.
         12    1    1    2    0    0  0.40782282335E+01 -0.40314851491E+02  0.33535332461E+01  0.40659136507E+02  0.00000000000E+00 0. -1.
         11    1    3    3    0    0 -0.14944659433E+02  0.10536433179E+02  0.10405781288E+01  0.18315077745E+02  0.51100000000E-03 0.  1.
        -11    1    3    3    0    0  0.43920731620E+01  0.11296851676E+02 -0.34772837489E+01  0.12609546660E+02  0.51100000000E-03 0. -1.
        -12    1    3    3    0    0  0.64743580374E+01  0.18481566636E+02 -0.91682762597E+00  0.19604239088E+02  0.00000000000E+00 0.  1.
</event>
<event>
 7    1  0.4836188E-013  0.5052886E+02  0.7816164E-02  0.1300439E+00
        -11   -1    0    0    0    0  0.00000000000E+00  0.00000000000E+00  0.45593999997E+02  0.45594000000E+02  0.51100000000E-03 0.  1.
         11   -1    0    0    0    0 -0.00000000000E+00 -0.00000000000E+00 -0.45593999997E+02  0.45594000000E+02  0.51100000000E-03 0. -1.
    9900012    2    1    2    0    0  0.15658716792E+02  0.28847081852E+02  0.23996175440E+02  0.50528856148E+02  0.29999988749E+02 0.  0.
         12    1    1    2    0    0 -0.15658716792E+02 -0.28847081852E+02 -0.23996175440E+02  0.40659143852E+02  0.00000000000E+00 0. -1.
         11    1    3    3    0    0  0.72733818260E+01  0.46955179776E+01 -0.14245039494E+01  0.87737782071E+01  0.51100000000E-03 0. -1.
        -11    1    3    3    0    0 -0.31502034429E+01  0.20402835316E+02  0.18873145237E+02  0.27971326069E+02  0.51100000000E-03 0.  1.
         12    1    3    3    0    0  0.11535538409E+02  0.37487285586E+01  0.65475341530E+01  0.13783751872E+02  0.00000000000E+00 0. -1.
</event>
<event>
 7    1  0.4836188E-013  0.5052885E+02  0.7816164E-02  0.1300439E+00
        -11   -1    0    0    0    0  0.00000000000E+00  0.00000000000E+00  0.45593999997E+02  0.45594000000E+02  0.51100000000E-03 0.  1.
         11   -1    0    0    0    0 -0.00000000000E+00 -0.00000000000E+00 -0.45593999997E+02  0.45594000000E+02  0.51100000000E-03 0. -1.
    9900012    2    1    2    0    0  0.41427320595E+01 -0.28035959631E+02  0.29154568243E+02  0.50528854524E+02  0.29999983812E+02 0.  0.
         12    1    1    2    0    0 -0.41427320595E+01  0.28035959631E+02 -0.29154568243E+02  0.40659145476E+02  0.00000000000E+00 0. -1.
         11    1    3    3    0    0  0.11558598821E+02 -0.10643530022E+02  0.97178466998E+01  0.18474914960E+02  0.51100000000E-03 0. -1.
        -11    1    3    3    0    0  0.11965322178E+01 -0.16776466101E+02  0.13631288730E+02  0.21649331096E+02  0.51100000000E-03 0.  1.
         12    1    3    3    0    0 -0.86123989796E+01 -0.61596350805E+00  0.58054328132E+01  0.10404608468E+02  0.00000000000E+00 0. -1.
</event>
<event>
 7    1  0.4836188E-013  0.5052886E+02  0.7816164E-02  0.1300439E+00
        -11   -1    0    0    0    0  0.00000000000E+00  0.00000000000E+00  0.45593999997E+02  0.45594000000E+02  0.51100000000E-03 0.  1.
         11   -1    0    0    0    0 -0.00000000000E+00 -0.00000000000E+00 -0.45593999997E+02  0.45594000000E+02  0.51100000000E-03 0. -1.
    9900012    2    1    2    0    0  0.38025044934E+02  0.13736989011E+02 -0.43077574378E+01  0.50528859780E+02  0.29999999786E+02 0.  0.
         12    1    1    2    0    0 -0.38025044934E+02 -0.13736989011E+02  0.43077574378E+01  0.40659140220E+02  0.00000000000E+00 0. -1.
         11    1    3    3    0    0  0.12640300597E+02 -0.52017499532E+01  0.50588069877E+01  0.14574873246E+02  0.51100000000E-03 0. -1.
        -11    1    3    3    0    0  0.14320706956E+02  0.63782569299E+01  0.18783253422E+01  0.15789012494E+02  0.51100000000E-03 0.  1.
         12    1    3    3    0    0  0.11064037381E+02  0.12560482034E+02 -0.11244889768E+02  0.20164974039E+02  0.00000000000E+00 0. -1.
</event>
<event>
 7    1  0.4836188E-013  0.5052884E+02  0.7816164E-02  0.1300439E+00
        -11   -1    0    0    0    0  0.00000000000E+00  0.00000000000E+00  0.45593999997E+02  0.45594000000E+02  0.51100000000E-03 0.  1.
         11   -1    0    0    0    0 -0.00000000000E+00 -0.00000000000E+00 -0.45593999997E+02  0.45594000000E+02  0.51100000000E-03 0. -1.
    9900012    2    1    2    0    0 -0.11812834685E+02 -0.10456157789E+02  0.37473897428E+02  0.50528840055E+02  0.29999939830E+02 0.  0.
         12    1    1    2    0    0  0.11812834685E+02  0.10456157789E+02 -0.37473897428E+02  0.40659159945E+02  0.00000000000E+00 0. -1.
         11    1    3    3    0    0 -0.51093163327E+01 -0.82206153214E+01  0.79194467994E+01  0.12506049237E+02  0.51100000000E-03 0. -1.
        -11    1    3    3    0    0 -0.14891500035E+02 -0.62129786347E-01  0.14714621728E+02  0.20935155273E+02  0.51100000000E-03 0.  1.
         12    1    3    3    0    0  0.81879816835E+01 -0.21734126813E+01  0.14839828900E+02  0.17087635545E+02  0.00000000000E+00 0. -1.
</event>
<event>
 7    1  0.4836188E-013  0.5052883E+02  0.7816164E-02  0.1300439E+00
        -11   -1    0    0    0    0  0.00000000000E+00  0.00000000000E+00  0.45593999997E+02  0.45594000000E+02  0.51100000000E-03 0.  1.
         11   -1    0    0    0    0 -0.00000000000E+00 -0.00000000000E+00 -0.45593999997E+02  0.45594000000E+02  0.51100000000E-03 0. -1.
    9900012    2    1    2    0    0 -0.33630329981E+02  0.63093771013E+01  0.21962709727E+02  0.50528831876E+02  0.29999914969E+02 0.  0.
         12    1    1    2    0    0  0.33630329981E+02 -0.63093771013E+01 -0.21962709727E+02  0.40659168124E+02  0.00000000000E+00 0. -1.
         11    1    3    3    0    0 -0.51837020681E+00 -0.29915371031E+01  0.72863000492E+01  0.78935524689E+01  0.51100000000E-03 0. -1.
        -11    1    3    3    0    0  0.12798003826E+01  0.25138074063E+01 -0.23431170887E+01  0.36670580371E+01  0.51100000000E-03 0.  1.
        -12    1    3    3    0    0 -0.34391760156E+02  0.67871067981E+01  0.17019526767E+02  0.38968221370E+02  0.00000000000E+00 0.  1.
</event>
<event>
 7    1  0.4836188E-013  0.5052887E+02  0.7816164E-02  0.1300439E+00
        -11   -1    0    0    0    0  0.00000000000E+00  0.00000000000E+00  0.45593999997E+02  0.45594000000E+02  0.51100000000E-03 0.  1.
         11   -1    0    0    0    0 -0.00000000000E+00 -0.00000000000E+00 -0.45593999997E+02  0.45594000000E+02  0.51100000000E-03 0. -1.
    9900012    2    1    2    0    0  0.12451692229E+02 -0.17003187961E+02  0.34770852313E+02  0.50528865593E+02  0.30000017456E+02 0.  0.
         12    1    1    2    0    0 -0.12451692229E+02  0.17003187961E+02 -0.34770852313E+02  0.40659134407E+02  0.00000000000E+00 0. -1.
         11    1    3    3    0    0 -0.20929382657E+01 -0.80838210912E+01  0.67065606213E+01  0.10710112495E+02  0.51100000000E-03 0. -1.
        -11    1    3    3    0    0  0.80041146273E+01 -0.99565370141E+01  0.30256677717E+02  0.32843036203E+02  0.51100000000E-03 0.  1.
        -12    1    3    3    0    0  0.65405158675E+01  0.10371701445E+01 -0.21923860255E+01  0.69757168955E+01  0.00000000000E+00 0.  1.
</event>
<event>
 7    1  0.4836188E-013  0.5052887E+02  0.7816164E-02  0.1300439E+00
        -11   -1    0    0    0    0  0.00000000000E+00  0.00000000000E+00  0.45593999997E+02  0.45594000000E+02  0.51100000000E-03 0. -1.
         11   -1    0    0    0    0 -0.00000000000E+00 -0.00000000000E+00 -0.45593999997E+02  0.45594000000E+02  0.51100000000E-03 0.  1.
    9900012    2    1    2    0    0 -0.21179651438E+02 -0.29616854532E+02 -0.18095001161E+02  0.50528870958E+02  0.30000033765E+02 0.  0.
         12    1    1    2    0    0  0.21179651438E+02  0.29616854532E+02  0.18095001161E+02  0.40659129042E+02  0.00000000000E+00 0. -1.
         11    1    3    3    0    0 -0.84723253608E+00 -0.75274967243E+01  0.38386477439E+01  0.84921273346E+01  0.51100000000E-03 0. -1.
        -11    1    3    3    0    0  0.50810421411E+00 -0.11191298232E+02 -0.23824867010E+01  0.11453364971E+02  0.51100000000E-03 0.  1.
         12    1    3    3    0    0 -0.20840523117E+02 -0.10898059575E+02 -0.19551162204E+02  0.30583378653E+02  0.00000000000E+00 0. -1.
</event>
<event>
 7    1  0.4836188E-013  0.5052886E+02  0.7816164E-02  0.1300439E+00
        -11   -1    0    0    0    0  0.00000000000E+00  0.00000000000E+00  0.45593999997E+02  0.45594000000E+02  0.51100000000E-03 0. -1.
         11   -1    0    0    0    0 -0.00000000000E+00 -0.00000000000E+00 -0.45593999997E+02  0.45594000000E+02  0.51100000000E-03 0.  1.
    9900012    2    1    2    0    0  0.65185323108E+01  0.39442288509E+02  0.74148751448E+01  0.50528858842E+02  0.29999996935E+02 0.  0.
         12    1    1    2    0    0 -0.65185323108E+01 -0.39442288509E+02 -0.74148751448E+01  0.40659141158E+02  0.00000000000E+00 0. -1.
         11    1    3    3    0    0 -0.33497115902E+00  0.16165262743E+02  0.92273560852E+01  0.18616445037E+02  0.51100000000E-03 0. -1.
        -11    1    3    3    0    0 -0.62185921591E+01  0.23964260389E+01  0.20589024794E+01  0.69751577675E+01  0.51100000000E-03 0.  1.
         12    1    3    3    0    0  0.13072095629E+02  0.20880599727E+02 -0.38713834198E+01  0.24937256038E+02  0.00000000000E+00 0. -1.
</event>
<event>
 7    1  0.4836188E-013  0.5052888E+02  0.7816164E-02  0.1300439E+00
        -11   -1    0    0    0    0  0.00000000000E+00  0.00000000000E+00  0.45593999997E+02  0.45594000000E+02  0.51100000000E-03 0.  1.
         11   -1    0    0    0    0 -0.00000000000E+00 -0.00000000000E+00 -0.45593999997E+02  0.45594000000E+02  0.51100000000E-03 0. -1.
    9900012    2    1    2    0    0  0.18638395723E+02 -0.30314843207E+02 -0.19666847660E+02  0.50528875432E+02  0.30000047362E+02 0.  0.
         12    1    1    2    0    0 -0.18638395723E+02  0.30314843207E+02  0.19666847660E+02  0.40659124568E+02  0.00000000000E+00 0. -1.
         11    1    3    3    0    0  0.60509534700E+01  0.12832688614E+01 -0.97069933871E+01  0.11510279655E+02  0.51100000000E-03 0. -1.
        -11    1    3    3    0    0  0.13321452992E+01 -0.10510913540E+02 -0.10762052806E+02  0.15102175187E+02  0.51100000000E-03 0.  1.
        -12    1    3    3    0    0  0.11255296954E+02 -0.21087198528E+02  0.80219853271E+00  0.23916420589E+02  0.00000000000E+00 0.  1.
</event>
<event>
 7    1  0.4836188E-013  0.5052889E+02  0.7816164E-02  0.1300439E+00
        -11   -1    0    0    0    0  0.00000000000E+00  0.00000000000E+00  0.45593999997E+02  0.45594000000E+02  0.51100000000E-03 0.  1.
         11   -1    0    0    0    0 -0.00000000000E+00 -0.00000000000E+00 -0.45593999997E+02  0.45594000000E+02  0.51100000000E-03 0. -1.
    9900012    2    1    2    0    0 -0.34000541448E+02 -0.15948810739E+02  0.15580826888E+02  0.50528886025E+02  0.30000079561E+02 0.  0.
         12    1    1    2    0    0  0.34000541448E+02  0.15948810739E+02 -0.15580826888E+02  0.40659113975E+02  0.00000000000E+00 0. -1.
         11    1    3    3    0    0 -0.12481674809E+02 -0.60684949630E+01  0.11039918791E+02  0.17734109629E+02  0.51100000000E-03 0.  1.
        -11    1    3    3    0    0 -0.13351737175E+02 -0.14983183993E+02 -0.33473600842E+01  0.20346240634E+02  0.51100000000E-03 0. -1.
         12    1    3    3    0    0 -0.81671294634E+01  0.51028682168E+01  0.78882681811E+01  0.12448535762E+02  0.00000000000E+00 0. -1.
</event>
<event>
 7    1  0.4836188E-013  0.5052886E+02  0.7816164E-02  0.1300439E+00
        -11   -1    0    0    0    0  0.00000000000E+00  0.00000000000E+00  0.45593999997E+02  0.45594000000E+02  0.51100000000E-03 0.  1.
         11   -1    0    0    0    0 -0.00000000000E+00 -0.00000000000E+00 -0.45593999997E+02  0.45594000000E+02  0.51100000000E-03 0. -1.
    9900012    2    1    2    0    0 -0.20423285064E+02  0.12071075537E+02  0.33020354784E+02  0.50528864895E+02  0.30000015334E+02 0.  0.
         12    1    1    2    0    0  0.20423285064E+02 -0.12071075537E+02 -0.33020354784E+02  0.40659135105E+02  0.00000000000E+00 0. -1.
         11    1    3    3    0    0  0.27865786083E+01  0.17126648694E+01 -0.11278497682E+01  0.34598102052E+01  0.51100000000E-03 0. -1.
        -11    1    3    3    0    0 -0.11388063006E+02  0.12034404093E+02  0.81593317037E+01  0.18468609992E+02  0.51100000000E-03 0.  1.
        -12    1    3    3    0    0 -0.11821800666E+02 -0.16759934262E+01  0.25988872849E+02  0.28600444698E+02  0.00000000000E+00 0.  1.
</event>
<event>
 7    1  0.6127856E-013  0.5052890E+02  0.7816164E-02  0.1300439E+00
        -11   -1    0    0    0    0  0.00000000000E+00  0.00000000000E+00  0.45593999997E+02  0.45594000000E+02  0.51100000000E-03 0.  1.
         11   -1    0    0    0    0 -0.00000000000E+00 -0.00000000000E+00 -0.45593999997E+02  0.45594000000E+02  0.51100000000E-03 0. -1.
    9900012    2    1    2    0    0 -0.39124322672E+02 -0.11065657986E+02  0.28537277936E-01  0.50528902303E+02  0.30000129039E+02 0.  0.
         12    1    1    2    0    0  0.39124322672E+02  0.11065657986E+02 -0.28537277936E-01  0.40659097697E+02  0.00000000000E+00 0. -1.
         11    1    3    3    0    0 -0.30226097103E-01  0.71241796382E+00  0.57853667201E+01  0.58291441327E+01  0.51100000000E-03 0.  1.
        -11    1    3    3    0    0 -0.56176507112E+01 -0.33059567025E+01 -0.77302188157E+01  0.10111559347E+02  0.51100000000E-03 0. -1.
        -12    1    3    3    0    0 -0.33476445863E+02 -0.84721192477E+01  0.19733893735E+01  0.34588198823E+02  0.00000000000E+00 0.  1.
</event>
<event>
 7    1  0.4836188E-013  0.5052886E+02  0.7816164E-02  0.1300439E+00
        -11   -1    0    0    0    0  0.00000000000E+00  0.00000000000E+00  0.45593999997E+02  0.45594000000E+02  0.51100000000E-03 0. -1.
         11   -1    0    0    0    0 -0.00000000000E+00 -0.00000000000E+00 -0.45593999997E+02  0.45594000000E+02  0.51100000000E-03 0.  1.
    9900012    2    1    2    0    0 -0.20332487389E+02 -0.33267047737E+02 -0.11535126239E+02  0.50528860241E+02  0.30000001190E+02 0.  0.
         12    1    1    2    0    0  0.20332487389E+02  0.33267047737E+02  0.11535126239E+02  0.40659139759E+02  0.00000000000E+00 0. -1.
         11    1    3    3    0    0 -0.16838586500E+02 -0.13784764829E+02 -0.99856242820E+01  0.23943066414E+02  0.51100000000E-03 0. -1.
        -11    1    3    3    0    0  0.35530247619E+01 -0.16269165087E+02 -0.59432435003E+01  0.17681398733E+02  0.51100000000E-03 0.  1.
         12    1    3    3    0    0 -0.70469256503E+01 -0.32131178209E+01  0.43937415437E+01  0.89043950948E+01  0.00000000000E+00 0. -1.
</event>
<event>
 7    1  0.4836188E-013  0.5052885E+02  0.7816164E-02  0.1300439E+00
        -11   -1    0    0    0    0  0.00000000000E+00  0.00000000000E+00  0.45593999997E+02  0.45594000000E+02  0.51100000000E-03 0.  1.
         11   -1    0    0    0    0 -0.00000000000E+00 -0.00000000000E+00 -0.45593999997E+02  0.45594000000E+02  0.51100000000E-03 0. -1.
    9900012    2    1    2    0    0 -0.12589711905E+02 -0.19665771061E+02  0.33285479959E+02  0.50528848837E+02  0.29999966524E+02 0.  0.
         12    1    1    2    0    0  0.12589711905E+02  0.19665771061E+02 -0.33285479959E+02  0.40659151163E+02  0.00000000000E+00 0. -1.
         11    1    3    3    0    0 -0.31557764410E+01  0.15748517200E+01 -0.45453968977E+01  0.57532352728E+01  0.51100000000E-03 0.  1.
        -11    1    3    3    0    0 -0.62974483940E+00 -0.80458306934E+01  0.11928750139E+02  0.14402327945E+02  0.51100000000E-03 0. -1.
        -12    1    3    3    0    0 -0.88041906243E+01 -0.13194792087E+02  0.25902126717E+02  0.30373285618E+02  0.00000000000E+00 0.  1.
</event>
<event>
 7    1  0.4836188E-013  0.5052885E+02  0.7816164E-02  0.1300439E+00
        -11   -1    0    0    0    0  0.00000000000E+00  0.00000000000E+00  0.45593999997E+02  0.45594000000E+02  0.51100000000E-03 0. -1.
         11   -1    0    0    0    0 -0.00000000000E+00 -0.00000000000E+00 -0.45593999997E+02  0.45594000000E+02  0.51100000000E-03 0.  1.
    9900012    2    1    2    0    0 -0.11995707516E+02 -0.30193740927E+02 -0.24446004508E+02  0.50528854333E+02  0.29999983231E+02 0.  0.
         12    1    1    2    0    0  0.11995707516E+02  0.30193740927E+02  0.24446004508E+02  0.40659145667E+02  0.00000000000E+00 0. -1.
         11    1    3    3    0    0 -0.11953913755E+02 -0.14874838257E+02 -0.85755965578E+01  0.20921226632E+02  0.51100000000E-03 0.  1.
        -11    1    3    3    0    0 -0.12212957732E+01  0.42039374062E+01  0.66620704373E-01  0.43782521239E+01  0.51100000000E-03 0. -1.
        -12    1    3    3    0    0  0.11795020126E+01 -0.19522840076E+02 -0.15937028655E+02  0.25229375577E+02  0.00000000000E+00 0.  1.
</event>
<event>
 7    1  0.4836188E-013  0.5052887E+02  0.7816164E-02  0.1300439E+00
        -11   -1    0    0    0    0  0.00000000000E+00  0.00000000000E+00  0.45593999997E+02  0.45594000000E+02  0.51100000000E-03 0.  1.
         11   -1    0    0    0    0 -0.00000000000E+00 -0.00000000000E+00 -0.45593999997E+02  0.45594000000E+02  0.51100000000E-03 0. -1.
    9900012    2    1    2    0    0 -0.58724966818E+00 -0.16369396544E+02  0.37213750510E+02  0.50528865326E+02  0.30000016645E+02 0.  0.
         12    1    1    2    0    0  0.58724966818E+00  0.16369396544E+02 -0.37213750510E+02  0.40659134674E+02  0.00000000000E+00 0. -1.
         11    1    3    3    0    0  0.39342785059E+01 -0.42175115315E+01 -0.28360839451E+01  0.64272329416E+01  0.51100000000E-03 0. -1.
        -11    1    3    3    0    0 -0.61521487785E+01 -0.32472726481E+01  0.71367795564E+01  0.99663100966E+01  0.51100000000E-03 0.  1.
         12    1    3    3    0    0  0.16306206045E+01 -0.89046123641E+01  0.32913054899E+02  0.34135322288E+02  0.00000000000E+00 0. -1.
</event>
<event>
 7    1  0.4836188E-013  0.5052886E+02  0.7816164E-02  0.1300439E+00
        -11   -1    0    0    0    0  0.00000000000E+00  0.00000000000E+00  0.45593999997E+02  0.45594000000E+02  0.51100000000E-03 0.  1.
         11   -1    0    0    0    0 -0.00000000000E+00 -0.00000000000E+00 -0.45593999997E+02  0.45594000000E+02  0.51100000000E-03 0. -1.
    9900012    2    1    2    0    0 -0.17817984607E+01 -0.82448534735E+01  0.39774528666E+02  0.50528861481E+02  0.30000004956E+02 0.  0.
         12    1    1    2    0    0  0.17817984607E+01  0.82448534735E+01 -0.39774528666E+02  0.40659138519E+02  0.00000000000E+00 0. -1.
         11    1    3    3    0    0 -0.60160313745E+01  0.14131157087E+01  0.26529085948E+02  0.27239345275E+02  0.51100000000E-03 0. -1.
        -11    1    3    3    0    0  0.79870085760E+01  0.66646284740E+00  0.70697695175E+01  0.10687287776E+02  0.51100000000E-03 0.  1.
        -12    1    3    3    0    0 -0.37527756623E+01 -0.10324432030E+02  0.61756732002E+01  0.12602228429E+02  0.00000000000E+00 0.  1.
</event>
<event>
 7    1  0.4836188E-013  0.5052885E+02  0.7816164E-02  0.1300439E+00
        -11   -1    0    0    0    0  0.00000000000E+00  0.00000000000E+00  0.45593999997E+02  0.45594000000E+02  0.51100000000E-03 0. -1.
         11   -1    0    0    0    0 -0.00000000000E+00 -0.00000000000E+00 -0.45593999997E+02  0.45594000000E+02  0.51100000000E-03 0.  1.
    9900012    2    1    2    0    0  0.39502719051E+01  0.30701326840E+02 -0.26362662372E+02  0.50528854839E+02  0.29999984768E+02 0.  0.
         12    1    1    2    0    0 -0.39502719051E+01 -0.30701326840E+02  0.26362662372E+02  0.40659145161E+02  0.00000000000E+00 0. -1.
         11    1    3    3    0    0 -0.45420347682E+01  0.89762239576E+01  0.27880840421E+01  0.10439161329E+02  0.51100000000E-03 0. -1.
        -11    1    3    3    0    0  0.94220751511E+01  0.15972629088E+02 -0.12282216527E+02  0.22243048874E+02  0.51100000000E-03 0.  1.
         12    1    3    3    0    0 -0.92976847779E+00  0.57524737944E+01 -0.16868529888E+02  0.17846644636E+02  0.00000000000E+00 0. -1.
</event>
<event>
 7    1  0.4836188E-013  0.5052886E+02  0.7816164E-02  0.1300439E+00
        -11   -1    0    0    0    0  0.00000000000E+00  0.00000000000E+00  0.45593999997E+02  0.45594000000E+02  0.51100000000E-03 0. -1.
         11   -1    0    0    0    0 -0.00000000000E+00 -0.00000000000E+00 -0.45593999997E+02  0.45594000000E+02  0.51100000000E-03 0.  1.
    9900012    2    1    2    0    0 -0.37228863607E+02  0.35126563955E+01 -0.15963677706E+02  0.50528855318E+02  0.29999986223E+02 0.  0.
         12    1    1    2    0    0  0.37228863607E+02 -0.35126563955E+01  0.15963677706E+02  0.40659144682E+02  0.00000000000E+00 0. -1.
         11    1    3    3    0    0 -0.22617516005E+02  0.71443391519E+01 -0.20501636173E+01  0.23807494267E+02  0.51100000000E-03 0. -1.
        -11    1    3    3    0    0  0.32530047945E+01  0.23040273866E+01 -0.22878699916E+01  0.45961866532E+01  0.51100000000E-03 0.  1.
        -12    1    3    3    0    0 -0.17864352396E+02 -0.59357101430E+01 -0.11625644097E+02  0.22125174397E+02  0.00000000000E+00 0.  1.
</event>
<event>
 7    1  0.4836188E-013  0.5052887E+02  0.7816164E-02  0.1300439E+00
        -11   -1    0    0    0    0  0.00000000000E+00  0.00000000000E+00  0.45593999997E+02  0.45594000000E+02  0.51100000000E-03 0.  1.
         11   -1    0    0    0    0 -0.00000000000E+00 -0.00000000000E+00 -0.45593999997E+02  0.45594000000E+02  0.51100000000E-03 0. -1.
    9900012    2    1    2    0    0  0.34317757648E+01  0.37570420591E+02  0.15160838590E+02  0.50528872919E+02  0.30000039724E+02 0.  0.
         12    1    1    2    0    0 -0.34317757648E+01 -0.37570420591E+02 -0.15160838590E+02  0.40659127081E+02  0.00000000000E+00 0. -1.
         11    1    3    3    0    0  0.70722563131E+01  0.12587455756E+01  0.46911937150E+01  0.85795424420E+01  0.51100000000E-03 0. -1.
        -11    1    3    3    0    0 -0.15514026171E+01  0.20371085140E+01 -0.39492189235E+01  0.47066964578E+01  0.51100000000E-03 0.  1.
        -12    1    3    3    0    0 -0.20890779311E+01  0.34274566501E+02  0.14418863799E+02  0.37242634019E+02  0.00000000000E+00 0.  1.
</event>
<event>
 7    1  0.4836188E-013  0.5052886E+02  0.7816164E-02  0.1300439E+00
        -11   -1    0    0    0    0  0.00000000000E+00  0.00000000000E+00  0.45593999997E+02  0.45594000000E+02  0.51100000000E-03 0.  1.
         11   -1    0    0    0    0 -0.00000000000E+00 -0.00000000000E+00 -0.45593999997E+02  0.45594000000E+02  0.51100000000E-03 0. -1.
    9900012    2    1    2    0    0  0.20867769741E+02 -0.31503429241E+02  0.15007853340E+02  0.50528861670E+02  0.30000005532E+02 0.  0.
         12    1    1    2    0    0 -0.20867769741E+02  0.31503429241E+02 -0.15007853340E+02  0.40659138330E+02  0.00000000000E+00 0. -1.
         11    1    3    3    0    0 -0.27547354323E+01 -0.98129094560E+00  0.22325846362E+01  0.36791213137E+01  0.51100000000E-03 0. -1.
        -11    1    3    3    0    0  0.13424765321E+02 -0.97800923666E+00  0.65982861534E+01  0.14990603938E+02  0.51100000000E-03 0.  1.
        -12    1    3    3    0    0  0.10197739852E+02 -0.29544129058E+02  0.61769825500E+01  0.31859136418E+02  0.00000000000E+00 0.  1.
</event>
<event>
 7    1  0.5323100E-013  0.5052890E+02  0.7816164E-02  0.1300439E+00
        -11   -1    0    0    0    0  0.00000000000E+00  0.00000000000E+00  0.45593999997E+02  0.45594000000E+02  0.51100000000E-03 0. -1.
         11   -1    0    0    0    0 -0.00000000000E+00 -0.00000000000E+00 -0.45593999997E+02  0.45594000000E+02  0.51100000000E-03 0.  1.
    9900012    2    1    2    0    0 -0.16384773859E+02 -0.10113386203E+01 -0.37197829155E+02  0.50528903674E+02  0.30000133207E+02 0.  0.
         12    1    1    2    0    0  0.16384773859E+02  0.10113386203E+01  0.37197829155E+02  0.40659096326E+02  0.00000000000E+00 0. -1.
         11    1    3    3    0    0 -0.58109818251E+01 -0.24159654131E+01 -0.33216952127E+00  0.63019628293E+01  0.51100000000E-03 0. -1.
        -11    1    3    3    0    0  0.33286475221E+01 -0.66306313440E+01 -0.64418359704E+01  0.98256000975E+01  0.51100000000E-03 0.  1.
        -12    1    3    3    0    0 -0.13902439556E+02  0.80352581368E+01 -0.30423823663E+02  0.34401340747E+02  0.00000000000E+00 0.  1.
</event>
<event>
 7    1  0.4836188E-013  0.5052886E+02  0.7816164E-02  0.1300439E+00
        -11   -1    0    0    0    0  0.00000000000E+00  0.00000000000E+00  0.45593999997E+02  0.45594000000E+02  0.51100000000E-03 0.  1.
         11   -1    0    0    0    0 -0.00000000000E+00 -0.00000000000E+00 -0.45593999997E+02  0.45594000000E+02  0.51100000000E-03 0. -1.
    9900012    2    1    2    0    0  0.27781731440E+02 -0.30151646160E+01  0.29533873775E+02  0.50528861794E+02  0.30000005911E+02 0.  0.
         12    1    1    2    0    0 -0.27781731440E+02  0.30151646160E+01 -0.29533873775E+02  0.40659138206E+02  0.00000000000E+00 0. -1.
         11    1    3    3    0    0  0.37305160212E+01 -0.62456739480E+01  0.99354937493E+01  0.12314188124E+02  0.51100000000E-03 0. -1.
        -11    1    3    3    0    0  0.55230398073E+01 -0.67432004854E+01 -0.99414949934E+00  0.87728589974E+01  0.51100000000E-03 0.  1.
        -12    1    3    3    0    0  0.18528175612E+02  0.99737098174E+01  0.20592529525E+02  0.29441814673E+02  0.00000000000E+00 0.  1.
</event>
<event>
 7    1  0.4836188E-013  0.5052886E+02  0.7816164E-02  0.1300439E+00
        -11   -1    0    0    0    0  0.00000000000E+00  0.00000000000E+00  0.45593999997E+02  0.45594000000E+02  0.51100000000E-03 0. -1.
         11   -1    0    0    0    0 -0.00000000000E+00 -0.00000000000E+00 -0.45593999997E+02  0.45594000000E+02  0.51100000000E-03 0.  1.
    9900012    2    1    2    0    0  0.21338404799E+02 -0.23158320912E+02 -0.25720227974E+02  0.50528862357E+02  0.30000007620E+02 0.  0.
         12    1    1    2    0    0 -0.21338404799E+02  0.23158320912E+02  0.25720227974E+02  0.40659137643E+02  0.00000000000E+00 0. -1.
         11    1    3    3    0    0 -0.45298671396E+01  0.19719210283E+00 -0.13785666647E+01  0.47390956245E+01  0.51100000000E-03 0. -1.
        -11    1    3    3    0    0  0.14846564283E+02 -0.38895662918E+01 -0.47836150488E+01  0.16075825644E+02  0.51100000000E-03 0.  1.
         12    1    3    3    0    0  0.11021707656E+02 -0.19465946723E+02 -0.19558046261E+02  0.29713941088E+02  0.00000000000E+00 0. -1.
</event>
<event>
 7    1  0.4836188E-013  0.5052886E+02  0.7816164E-02  0.1300439E+00
        -11   -1    0    0    0    0  0.00000000000E+00  0.00000000000E+00  0.45593999997E+02  0.45594000000E+02  0.51100000000E-03 0. -1.
         11   -1    0    0    0    0 -0.00000000000E+00 -0.00000000000E+00 -0.45593999997E+02  0.45594000000E+02  0.51100000000E-03 0.  1.
    9900012    2    1    2    0    0 -0.46936528118E+01 -0.32482685462E+02 -0.24000210002E+02  0.50528864351E+02  0.30000013682E+02 0.  0.
         12    1    1    2    0    0  0.46936528118E+01  0.32482685462E+02  0.24000210002E+02  0.40659135649E+02  0.00000000000E+00 0. -1.
         11    1    3    3    0    0 -0.96088543527E+01 -0.17823445057E+02 -0.94816850947E+01  0.22358614183E+02  0.51100000000E-03 0. -1.
        -11    1    3    3    0    0  0.12893804353E+01 -0.12636120383E+02 -0.18484845603E+02  0.22428186674E+02  0.51100000000E-03 0.  1.
         12    1    3    3    0    0  0.36258211056E+01 -0.20231200221E+01  0.39663206959E+01  0.57420634947E+01  0.00000000000E+00 0. -1.
</event>
<event>
 7    1  0.4836188E-013  0.5052886E+02  0.7816164E-02  0.1300439E+00
        -11   -1    0    0    0    0  0.00000000000E+00  0.00000000000E+00  0.45593999997E+02  0.45594000000E+02  0.51100000000E-03 0.  1.
         11   -1    0    0    0    0 -0.00000000000E+00 -0.00000000000E+00 -0.45593999997E+02  0.45594000000E+02  0.51100000000E-03 0. -1.
    9900012    2    1    2    0    0 -0.28302111568E+01 -0.37046442629E+02  0.16514136507E+02  0.50528859438E+02  0.29999998748E+02 0.  0.
         12    1    1    2    0    0  0.28302111568E+01  0.37046442629E+02 -0.16514136507E+02  0.40659140562E+02  0.00000000000E+00 0. -1.
         11    1    3    3    0    0 -0.89163477262E+01 -0.83336829550E+01 -0.34744434349E+01  0.12689495097E+02  0.51100000000E-03 0. -1.
        -11    1    3    3    0    0  0.80819806950E+00 -0.13556221064E+02  0.19913465481E+01  0.13725515472E+02  0.51100000000E-03 0.  1.
        -12    1    3    3    0    0  0.52779384999E+01 -0.15156538611E+02  0.17997233393E+02  0.24113848869E+02  0.00000000000E+00 0.  1.
</event>
<event>
 7    1  0.4836188E-013  0.5052886E+02  0.7816164E-02  0.1300439E+00
        -11   -1    0    0    0    0  0.00000000000E+00  0.00000000000E+00  0.45593999997E+02  0.45594000000E+02  0.51100000000E-03 0. -1.
         11   -1    0    0    0    0 -0.00000000000E+00 -0.00000000000E+00 -0.45593999997E+02  0.45594000000E+02  0.51100000000E-03 0.  1.
    9900012    2    1    2    0    0  0.20725855250E+02 -0.11588357771E+02 -0.33004767783E+02  0.50528858247E+02  0.29999995126E+02 0.  0.
         12    1    1    2    0    0 -0.20725855250E+02  0.11588357771E+02  0.33004767783E+02  0.40659141753E+02  0.00000000000E+00 0. -1.
         11    1    3    3    0    0  0.13248475694E+02 -0.10594639084E+02 -0.10139858103E+02  0.19763228688E+02  0.51100000000E-03 0.  1.
        -11    1    3    3    0    0  0.33389953438E+01  0.31790221398E+00  0.30235312724E+01  0.45157162598E+01  0.51100000000E-03 0. -1.
        -12    1    3    3    0    0  0.41383842129E+01 -0.13116209007E+01 -0.25888440952E+02  0.26249913299E+02  0.00000000000E+00 0.  1.
</event>
<event>
 7    1  0.4836188E-013  0.5052886E+02  0.7816164E-02  0.1300439E+00
        -11   -1    0    0    0    0  0.00000000000E+00  0.00000000000E+00  0.45593999997E+02  0.45594000000E+02  0.51100000000E-03 0. -1.
         11   -1    0    0    0    0 -0.00000000000E+00 -0.00000000000E+00 -0.45593999997E+02  0.45594000000E+02  0.51100000000E-03 0.  1.
    9900012    2    1    2    0    0 -0.15383747535E+02  0.26276032411E+02 -0.26945801164E+02  0.50528858742E+02  0.29999996633E+02 0.  0.
         12    1    1    2    0    0  0.15383747535E+02 -0.26276032411E+02  0.26945801164E+02  0.40659141258E+02  0.00000000000E+00 0. -1.
         11    1    3    3    0    0 -0.10123735413E+02  0.15460797874E+02 -0.18000726812E+02  0.25798303348E+02  0.51100000000E-03 0. -1.
        -11    1    3    3    0    0 -0.94114891294E+01  0.14589958022E+02 -0.76459620218E+01  0.18971129071E+02  0.51100000000E-03 0.  1.
         12    1    3    3    0    0  0.41514770077E+01 -0.37747234849E+01 -0.12991123301E+01  0.57594263238E+01  0.00000000000E+00 0. -1.
</event>
<event>
 7    1  0.4836188E-013  0.5052885E+02  0.7816164E-02  0.1300439E+00
        -11   -1    0    0    0    0  0.00000000000E+00  0.00000000000E+00  0.45593999997E+02  0.45594000000E+02  0.51100000000E-03 0.  1.
         11   -1    0    0    0    0 -0.00000000000E+00 -0.00000000000E+00 -0.45593999997E+02  0.45594000000E+02  0.51100000000E-03 0. -1.
    9900012    2    1    2    0    0 -0.37961728583E+02  0.13788944318E+02  0.46838632991E+01  0.50528850994E+02  0.29999973082E+02 0.  0.
         12    1    1    2    0    0  0.37961728583E+02 -0.13788944318E+02 -0.46838632991E+01  0.40659149006E+02  0.00000000000E+00 0. -1.
         11    1    3    3    0    0 -0.17140019421E+02 -0.35100186633E+01  0.63809239568E+01  0.18623014997E+02  0.51100000000E-03 0. -1.
        -11    1    3    3    0    0  0.15699526528E+01  0.52088818377E+00  0.31035406561E+01  0.35168225286E+01  0.51100000000E-03 0.  1.
         12    1    3    3    0    0 -0.22391661816E+02  0.16778074798E+02 -0.48006013138E+01  0.28389013469E+02  0.00000000000E+00 0. -1.
</event>
<event>
 7    1  0.4836188E-013  0.5052885E+02  0.7816164E-02  0.1300439E+00
        -11   -1    0    0    0    0  0.00000000000E+00  0.00000000000E+00  0.45593999997E+02  0.45594000000E+02  0.51100000000E-03 0.  1.
         11   -1    0    0    0    0 -0.00000000000E+00 -0.00000000000E+00 -0.45593999997E+02  0.45594000000E+02  0.51100000000E-03 0. -1.
    9900012    2    1    2    0    0  0.82871369405E+01  0.19170111500E+02  0.34885479464E+02  0.50528849849E+02  0.29999969601E+02 0.  0.
         12    1    1    2    0    0 -0.82871369405E+01 -0.19170111500E+02 -0.34885479464E+02  0.40659150151E+02  0.00000000000E+00 0. -1.
         11    1    3    3    0    0  0.67741001354E+01 -0.38012447887E+01  0.43041685673E+01  0.88805271186E+01  0.51100000000E-03 0. -1.
        -11    1    3    3    0    0  0.72839121655E+01  0.80804968581E+01  0.62567086476E+01  0.12549749371E+02  0.51100000000E-03 0.  1.
        -12    1    3    3    0    0 -0.57708753603E+01  0.14890859430E+02  0.24324602249E+02  0.29098573360E+02  0.00000000000E+00 0.  1.
</event>
<event>
 7    1  0.4836188E-013  0.5052889E+02  0.7816164E-02  0.1300439E+00
        -11   -1    0    0    0    0  0.00000000000E+00  0.00000000000E+00  0.45593999997E+02  0.45594000000E+02  0.51100000000E-03 0. -1.
         11   -1    0    0    0    0 -0.00000000000E+00 -0.00000000000E+00 -0.45593999997E+02  0.45594000000E+02  0.51100000000E-03 0.  1.
    9900012    2    1    2    0    0  0.23655798363E+02 -0.29919597599E+02 -0.14084899811E+02  0.50528886393E+02  0.30000080679E+02 0.  0.
         12    1    1    2    0    0 -0.23655798363E+02  0.29919597599E+02  0.14084899811E+02  0.40659113607E+02  0.00000000000E+00 0. -1.
         11    1    3    3    0    0  0.65351721064E+01  0.87911812564E+00 -0.11508159984E+02  0.13263448632E+02  0.51100000000E-03 0. -1.
        -11    1    3    3    0    0  0.51969244946E+01 -0.82334350894E+01 -0.61180388187E+01  0.11499038082E+02  0.51100000000E-03 0.  1.
         12    1    3    3    0    0  0.11923701762E+02 -0.22565280635E+02  0.35412989912E+01  0.25766399678E+02  0.00000000000E+00 0. -1.
</event>
<event>
 7    1  0.4836188E-013  0.5052887E+02  0.7816164E-02  0.1300439E+00
        -11   -1    0    0    0    0  0.00000000000E+00  0.00000000000E+00  0.45593999997E+02  0.45594000000E+02  0.51100000000E-03 0.  1.
         11   -1    0    0    0    0 -0.00000000000E+00 -0.00000000000E+00 -0.45593999997E+02  0.45594000000E+02  0.51100000000E-03 0. -1.
    9900012    2    1    2    0    0  0.35170293556E+02  0.39674413111E+00 -0.20397489178E+02  0.50528874093E+02  0.30000043293E+02 0.  0.
         12    1    1    2    0    0 -0.35170293556E+02 -0.39674413111E+00  0.20397489178E+02  0.40659125907E+02  0.00000000000E+00 0. -1.
         11    1    3    3    0    0  0.13120586735E+01  0.14367636859E+01 -0.15099630313E+02  0.15224474497E+02  0.51100000000E-03 0. -1.
        -11    1    3    3    0    0  0.18427707516E+02  0.52782051767E+00 -0.69605933750E+01  0.19705554019E+02  0.51100000000E-03 0.  1.
        -12    1    3    3    0    0  0.15430527366E+02 -0.15678400725E+01  0.16627345097E+01  0.15598845577E+02  0.00000000000E+00 0.  1.
</event>
<event>
 7    1  0.4836188E-013  0.5052886E+02  0.7816164E-02  0.1300439E+00
        -11   -1    0    0    0    0  0.00000000000E+00  0.00000000000E+00  0.45593999997E+02  0.45594000000E+02  0.51100000000E-03 0.  1.
         11   -1    0    0    0    0 -0.00000000000E+00 -0.00000000000E+00 -0.45593999997E+02  0.45594000000E+02  0.51100000000E-03 0. -1.
    9900012    2    1    2    0    0  0.17099163090E+02  0.95190312556E+01  0.35639477949E+02  0.50528859295E+02  0.29999998312E+02 0.  0.
         12    1    1    2    0    0 -0.17099163090E+02 -0.95190312556E+01 -0.35639477949E+02  0.40659140705E+02  0.00000000000E+00 0. -1.
         11    1    3    3    0    0  0.12272620068E+02  0.13469343912E+02  0.67782328966E+01  0.19441832995E+02  0.51100000000E-03 0. -1.
        -11    1    3    3    0    0  0.25193732072E+01 -0.43948286843E+01  0.50251154306E+01  0.71353728616E+01  0.51100000000E-03 0.  1.
        -12    1    3    3    0    0  0.23071698143E+01  0.44451602838E+00  0.23836129622E+02  0.23951653438E+02  0.00000000000E+00 0.  1.
</event>
<event>
 7    1  0.4836188E-013  0.5052881E+02  0.7816164E-02  0.1300439E+00
        -11   -1    0    0    0    0  0.00000000000E+00  0.00000000000E+00  0.45593999997E+02  0.45594000000E+02  0.51100000000E-03 0. -1.
         11   -1    0    0    0    0 -0.00000000000E+00 -0.00000000000E+00 -0.45593999997E+02  0.45594000000E+02  0.51100000000E-03 0.  1.
    9900012    2    1    2    0    0 -0.20596202280E+02  0.34734059542E+02  0.47445770271E+01  0.50528813439E+02  0.29999858929E+02 0.  0.
         12    1    1    2    0    0  0.20596202280E+02 -0.34734059542E+02 -0.47445770271E+01  0.40659186561E+02  0.00000000000E+00 0. -1.
         11    1    3    3    0    0  0.37872893099E+01  0.83816309369E+01  0.70682368529E+00  0.92246895592E+01  0.51100000000E-03 0. -1.
        -11    1    3    3    0    0  0.26266003093E+01  0.22819292149E+01  0.37613649776E+01  0.51238751822E+01  0.51100000000E-03 0.  1.
        -12    1    3    3    0    0 -0.27010091899E+02  0.24070499390E+02  0.27638836415E+00  0.36180248698E+02  0.00000000000E+00 0.  1.
</event>
<event>
 7    1  0.6659426E-013  0.5052885E+02  0.7816164E-02  0.1300439E+00
        -11   -1    0    0    0    0  0.00000000000E+00  0.00000000000E+00  0.45593999997E+02  0.45594000000E+02  0.51100000000E-03 0.  1.
         11   -1    0    0    0    0 -0.00000000000E+00 -0.00000000000E+00 -0.45593999997E+02  0.45594000000E+02  0.51100000000E-03 0. -1.
    9900012    2    1    2    0    0 -0.35068774794E+02  0.19793427535E+02  0.56185283487E+01  0.50528848510E+02  0.29999965530E+02 0.  0.
         12    1    1    2    0    0  0.35068774794E+02 -0.19793427535E+02 -0.56185283487E+01  0.40659151490E+02  0.00000000000E+00 0. -1.
         11    1    3    3    0    0  0.26927562491E+01 -0.26500785451E+01 -0.12620419248E+01  0.39832904229E+01  0.51100000000E-03 0. -1.
        -11    1    3    3    0    0 -0.17967672882E+02  0.55855190928E+01 -0.23365507216E+01  0.18960347092E+02  0.51100000000E-03 0.  1.
        -12    1    3    3    0    0 -0.19793858161E+02  0.16857986988E+02  0.92171209951E+01  0.27585210994E+02  0.00000000000E+00 0.  1.
</event>
<event>
 7    1  0.4836188E-013  0.5052886E+02  0.7816164E-02  0.1300439E+00
        -11   -1    0    0    0    0  0.00000000000E+00  0.00000000000E+00  0.45593999997E+02  0.45594000000E+02  0.51100000000E-03 0.  1.
         11   -1    0    0    0    0 -0.00000000000E+00 -0.00000000000E+00 -0.45593999997E+02  0.45594000000E+02  0.51100000000E-03 0. -1.
    9900012    2    1    2    0    0 -0.38398204380E+02 -0.11679305450E+02  0.65066994222E+01  0.50528863108E+02  0.30000009905E+02 0.  0.
         12    1    1    2    0    0  0.38398204380E+02  0.11679305450E+02 -0.65066994222E+01  0.40659136892E+02  0.00000000000E+00 0. -1.
         11    1    3    3    0    0  0.21889500558E+01 -0.24966300666E+01  0.23165651995E+01  0.40485971176E+01  0.51100000000E-03 0. -1.
        -11    1    3    3    0    0 -0.10589124907E+02 -0.32410833138E+01 -0.78928268738E+01  0.13598930240E+02  0.51100000000E-03 0.  1.
        -12    1    3    3    0    0 -0.29998029529E+02 -0.59415920693E+01  0.12082961097E+02  0.32881335751E+02  0.00000000000E+00 0.  1.
</event>
<event>
 7    1  0.4836188E-013  0.5052887E+02  0.7816164E-02  0.1300439E+00
        -11   -1    0    0    0    0  0.00000000000E+00  0.00000000000E+00  0.45593999997E+02  0.45594000000E+02  0.51100000000E-03 0.  1.
         11   -1    0    0    0    0 -0.00000000000E+00 -0.00000000000E+00 -0.45593999997E+02  0.45594000000E+02  0.51100000000E-03 0. -1.
    9900012    2    1    2    0    0 -0.13230318923E+02  0.37178253863E+02  0.97929119944E+01  0.50528867884E+02  0.30000024421E+02 0.  0.
         12    1    1    2    0    0  0.13230318923E+02 -0.37178253863E+02 -0.97929119944E+01  0.40659132116E+02  0.00000000000E+00 0. -1.
         11    1    3    3    0    0 -0.12901869397E+02  0.13682298023E+02  0.95413938317E+01  0.21087951765E+02  0.51100000000E-03 0. -1.
        -11    1    3    3    0    0 -0.46528718402E+01  0.20248785626E+02  0.59231649396E+01  0.21604314820E+02  0.51100000000E-03 0.  1.
         12    1    3    3    0    0  0.43244223151E+01  0.32471702145E+01 -0.56716467769E+01  0.78366012993E+01  0.00000000000E+00 0. -1.
</event>
<event>
 7    1  0.5670000E-013  0.5052885E+02  0.7816164E-02  0.1300439E+00
        -11   -1    0    0    0    0  0.00000000000E+00  0.00000000000E+00  0.45593999997E+02  0.45594000000E+02  0.51100000000E-03 0.  1.
         11   -1    0    0    0    0 -0.00000000000E+00 -0.00000000000E+00 -0.45593999997E+02  0.45594000000E+02  0.51100000000E-03 0. -1.
    9900012    2    1    2    0    0  0.39623920747E+02  0.49984843659E+01 -0.76240626535E+01  0.50528852534E+02  0.29999977762E+02 0.  0.
         12    1    1    2    0    0 -0.39623920747E+02 -0.49984843659E+01  0.76240626535E+01  0.40659147466E+02  0.00000000000E+00 0. -1.
         11    1    3    3    0    0  0.26731486870E+00  0.29783794217E+01 -0.66512161351E+01  0.72925220298E+01  0.51100000000E-03 0. -1.
        -11    1    3    3    0    0  0.74788212034E+01 -0.67644565132E+01  0.85119690349E+00  0.10120038287E+02  0.51100000000E-03 0.  1.
        -12    1    3    3    0    0  0.31877784675E+02  0.87845614573E+01 -0.18240434219E+01  0.33116292217E+02  0.00000000000E+00 0.  1.
</event>
<event>
 7    1  0.4836188E-013  0.5052889E+02  0.7816164E-02  0.1300439E+00
        -11   -1    0    0    0    0  0.00000000000E+00  0.00000000000E+00  0.45593999997E+02  0.45594000000E+02  0.51100000000E-03 0. -1.
         11   -1    0    0    0    0 -0.00000000000E+00 -0.00000000000E+00 -0.45593999997E+02  0.45594000000E+02  0.51100000000E-03 0.  1.
    9900012    2    1    2    0    0  0.40402568277E+02  0.11379865245E+01  0.44160008776E+01  0.50528885395E+02  0.30000077646E+02 0.  0.
         12    1    1    2    0    0 -0.40402568277E+02 -0.11379865245E+01 -0.44160008776E+01  0.40659114605E+02  0.00000000000E+00 0. -1.
         11    1    3    3    0    0  0.25934176269E+02 -0.15193835823E+01  0.11911165419E+02  0.28579116276E+02  0.51100000000E-03 0. -1.
        -11    1    3    3    0    0  0.29641809131E+00 -0.41920947326E+01 -0.40506611287E+01  0.58368979581E+01  0.51100000000E-03 0.  1.
        -12    1    3    3    0    0  0.14171973917E+02  0.68494648394E+01 -0.34445034124E+01  0.16112871161E+02  0.00000000000E+00 0.  1.
</event>
<event>
 7    1  0.4836188E-013  0.5052886E+02  0.7816164E-02  0.1300439E+00
        -11   -1    0    0    0    0  0.00000000000E+00  0.00000000000E+00  0.45593999997E+02  0.45594000000E+02  0.51100000000E-03 0. -1.
         11   -1    0    0    0    0 -0.00000000000E+00 -0.00000000000E+00 -0.45593999997E+02  0.45594000000E+02  0.51100000000E-03 0.  1.
    9900012    2    1    2    0    0  0.32323318871E+02 -0.13943155260E+02 -0.20345934132E+02  0.50528861333E+02  0.30000004508E+02 0.  0.
         12    1    1    2    0    0 -0.32323318871E+02  0.13943155260E+02  0.20345934132E+02  0.40659138667E+02  0.00000000000E+00 0. -1.
         11    1    3    3    0    0 -0.20786033113E+01 -0.75053540044E+01 -0.59252591840E+01  0.97856848057E+01  0.51100000000E-03 0. -1.
        -11    1    3    3    0    0  0.14562632927E+02 -0.67015784730E+01  0.30676266294E+00  0.16033575253E+02  0.51100000000E-03 0.  1.
         12    1    3    3    0    0  0.19839289255E+02  0.26377721779E+00 -0.14727437611E+02  0.24709601274E+02  0.00000000000E+00 0. -1.
</event>
<event>
 7    1  0.4836188E-013  0.5052891E+02  0.7816164E-02  0.1300439E+00
        -11   -1    0    0    0    0  0.00000000000E+00  0.00000000000E+00  0.45593999997E+02  0.45594000000E+02  0.51100000000E-03 0.  1.
         11   -1    0    0    0    0 -0.00000000000E+00 -0.00000000000E+00 -0.45593999997E+02  0.45594000000E+02  0.51100000000E-03 0. -1.
    9900012    2    1    2    0    0 -0.22192383045E+02  0.15590077499E+02  0.30292069006E+02  0.50528907213E+02  0.30000143963E+02 0.  0.
         12    1    1    2    0    0  0.22192383045E+02 -0.15590077499E+02 -0.30292069006E+02  0.40659092787E+02  0.00000000000E+00 0. -1.
         11    1    3    3    0    0 -0.44967336188E+01  0.19147942752E+01 -0.25414710735E+01  0.55087317808E+01  0.51100000000E-03 0. -1.
        -11    1    3    3    0    0 -0.87958617391E+01  0.46534313838E+01  0.30567403317E+02  0.32146348987E+02  0.51100000000E-03 0.  1.
         12    1    3    3    0    0 -0.88997876876E+01  0.90218518398E+01  0.22661367616E+01  0.12873826445E+02  0.00000000000E+00 0. -1.
</event>
<event>
 7    1  0.4836188E-013  0.5052881E+02  0.7816164E-02  0.1300439E+00
        -11   -1    0    0    0    0  0.00000000000E+00  0.00000000000E+00  0.45593999997E+02  0.45594000000E+02  0.51100000000E-03 0. -1.
         11   -1    0    0    0    0 -0.00000000000E+00 -0.00000000000E+00 -0.45593999997E+02  0.45594000000E+02  0.51100000000E-03 0.  1.
    9900012    2    1    2    0    0 -0.39968669443E+02  0.55628043894E+01 -0.49729392652E+01  0.50528813404E+02  0.29999858824E+02 0.  0.
         12    1    1    2    0    0  0.39968669443E+02 -0.55628043894E+01  0.49729392652E+01  0.40659186596E+02  0.00000000000E+00 0. -1.
         11    1    3    3    0    0 -0.13545137681E+01  0.45476377835E+01  0.26299433773E+01  0.54251561624E+01  0.51100000000E-03 0. -1.
        -11    1    3    3    0    0 -0.39185217867E+02  0.28750635664E+01 -0.21897770530E+01  0.39351523650E+02  0.51100000000E-03 0.  1.
         12    1    3    3    0    0  0.57106219278E+00 -0.18598969605E+01 -0.54131055895E+01  0.57521335915E+01  0.00000000000E+00 0. -1.
</event>
<event>
 7    1  0.4836188E-013  0.5052888E+02  0.7816164E-02  0.1300439E+00
        -11   -1    0    0    0    0  0.00000000000E+00  0.00000000000E+00  0.45593999997E+02  0.45594000000E+02  0.51100000000E-03 0.  1.
         11   -1    0    0    0    0 -0.00000000000E+00 -0.00000000000E+00 -0.45593999997E+02  0.45594000000E+02  0.51100000000E-03 0. -1.
    9900012    2    1    2    0    0 -0.78709040312E+01 -0.10510371104E+02  0.38480450645E+02  0.50528879093E+02  0.30000058493E+02 0.  0.
         12    1    1    2    0    0  0.78709040312E+01  0.10510371104E+02 -0.38480450645E+02  0.40659120907E+02  0.00000000000E+00 0. -1.
         11    1    3    3    0    0 -0.10611916089E+02 -0.11286486163E+02  0.20542931066E+02  0.25729546246E+02  0.51100000000E-03 0. -1.
        -11    1    3    3    0    0 -0.32838115742E+01 -0.64626133332E+01  0.10687619555E+02  0.12914100881E+02  0.51100000000E-03 0.  1.
        -12    1    3    3    0    0  0.60248236323E+01  0.72387283919E+01  0.72499000244E+01  0.11885231966E+02  0.00000000000E+00 0.  1.
</event>
<event>
 7    1  0.4836188E-013  0.5052876E+02  0.7816164E-02  0.1300439E+00
        -11   -1    0    0    0    0  0.00000000000E+00  0.00000000000E+00  0.45593999997E+02  0.45594000000E+02  0.51100000000E-03 0.  1.
         11   -1    0    0    0    0 -0.00000000000E+00 -0.00000000000E+00 -0.45593999997E+02  0.45594000000E+02  0.51100000000E-03 0. -1.
    9900012    2    1    2    0    0  0.25564877833E+02  0.24055768070E+02 -0.20516596565E+02  0.50528761312E+02  0.29999700483E+02 0.  0.
         12    1    1    2    0    0 -0.25564877833E+02 -0.24055768070E+02  0.20516596565E+02  0.40659238688E+02  0.00000000000E+00 0. -1.
         11    1    3    3    0    0  0.49638317530E+01  0.69533546714E+01 -0.74042711638E+01  0.11305396879E+02  0.51100000000E-03 0.  1.
        -11    1    3    3    0    0  0.18500229769E+02  0.13106316737E+02  0.26505292748E+01  0.22826724374E+02  0.51100000000E-03 0. -1.
         12    1    3    3    0    0  0.21008163103E+01  0.39960966615E+01 -0.15762854676E+02  0.16396640060E+02  0.00000000000E+00 0. -1.
</event>
<event>
 7    1  0.4836188E-013  0.5052887E+02  0.7816164E-02  0.1300439E+00
        -11   -1    0    0    0    0  0.00000000000E+00  0.00000000000E+00  0.45593999997E+02  0.45594000000E+02  0.51100000000E-03 0.  1.
         11   -1    0    0    0    0 -0.00000000000E+00 -0.00000000000E+00 -0.45593999997E+02  0.45594000000E+02  0.51100000000E-03 0. -1.
    9900012    2    1    2    0    0  0.32252720178E+02 -0.15583775098E+02  0.19237270906E+02  0.50528873139E+02  0.30000040392E+02 0.  0.
         12    1    1    2    0    0 -0.32252720178E+02  0.15583775098E+02 -0.19237270906E+02  0.40659126861E+02  0.00000000000E+00 0. -1.
         11    1    3    3    0    0  0.68437472372E+01 -0.24055046485E+01 -0.48186366251E+01  0.87087650127E+01  0.51100000000E-03 0. -1.
        -11    1    3    3    0    0  0.11727711731E+02 -0.14121327284E+01  0.20150261593E+02  0.23357362519E+02  0.51100000000E-03 0.  1.
         12    1    3    3    0    0  0.13681261210E+02 -0.11766137721E+02  0.39056459379E+01  0.18462745607E+02  0.00000000000E+00 0. -1.
</event>
<event>
 7    1  0.4836188E-013  0.5052887E+02  0.7816164E-02  0.1300439E+00
        -11   -1    0    0    0    0  0.00000000000E+00  0.00000000000E+00  0.45593999997E+02  0.45594000000E+02  0.51100000000E-03 0.  1.
         11   -1    0    0    0    0 -0.00000000000E+00 -0.00000000000E+00 -0.45593999997E+02  0.45594000000E+02  0.51100000000E-03 0. -1.
    9900012    2    1    2    0    0 -0.36940666937E+02  0.78626932921E+01 -0.15057557283E+02  0.50528870018E+02  0.30000030907E+02 0.  0.
         12    1    1    2    0    0  0.36940666937E+02 -0.78626932921E+01  0.15057557283E+02  0.40659129982E+02  0.00000000000E+00 0. -1.
         11    1    3    3    0    0 -0.17472599198E+02  0.67493464029E+01 -0.10792347888E+00  0.18731178483E+02  0.51100000000E-03 0.  1.
        -11    1    3    3    0    0 -0.10957664321E+02 -0.36464032162E+01 -0.18169353325E+02  0.21528865839E+02  0.51100000000E-03 0. -1.
         12    1    3    3    0    0 -0.85104034174E+01  0.47597501054E+01  0.32197195211E+01  0.10268825697E+02  0.00000000000E+00 0. -1.
</event>
<event>
 7    1  0.4836188E-013  0.5052884E+02  0.7816164E-02  0.1300439E+00
        -11   -1    0    0    0    0  0.00000000000E+00  0.00000000000E+00  0.45593999997E+02  0.45594000000E+02  0.51100000000E-03 0.  1.
         11   -1    0    0    0    0 -0.00000000000E+00 -0.00000000000E+00 -0.45593999997E+02  0.45594000000E+02  0.51100000000E-03 0. -1.
    9900012    2    1    2    0    0 -0.36370302807E+02  0.52642972450E+01 -0.17396994728E+02  0.50528841409E+02  0.29999943948E+02 0.  0.
         12    1    1    2    0    0  0.36370302807E+02 -0.52642972450E+01  0.17396994728E+02  0.40659158591E+02  0.00000000000E+00 0. -1.
         11    1    3    3    0    0  0.16438684987E+01  0.15284743469E+01  0.29409337132E+01  0.36996795586E+01  0.51100000000E-03 0. -1.
        -11    1    3    3    0    0 -0.45924297384E+01  0.10727496638E+01 -0.11087446688E+02  0.12048762470E+02  0.51100000000E-03 0.  1.
        -12    1    3    3    0    0 -0.33421741567E+02  0.26630732342E+01 -0.92504817540E+01  0.34780399381E+02  0.00000000000E+00 0.  1.
</event>
<event>
 7    1  0.4836188E-013  0.5052886E+02  0.7816164E-02  0.1300439E+00
        -11   -1    0    0    0    0  0.00000000000E+00  0.00000000000E+00  0.45593999997E+02  0.45594000000E+02  0.51100000000E-03 0.  1.
         11   -1    0    0    0    0 -0.00000000000E+00 -0.00000000000E+00 -0.45593999997E+02  0.45594000000E+02  0.51100000000E-03 0. -1.
    9900012    2    1    2    0    0 -0.12390680280E+02  0.38725084925E+02 -0.69565655546E-01  0.50528855892E+02  0.29999987968E+02 0.  0.
         12    1    1    2    0    0  0.12390680280E+02 -0.38725084925E+02  0.69565655546E-01  0.40659144108E+02  0.00000000000E+00 0. -1.
         11    1    3    3    0    0  0.60948043117E+01  0.12889654827E+02  0.56137749332E+01  0.15323325697E+02  0.51100000000E-03 0. -1.
        -11    1    3    3    0    0 -0.15941382004E+01  0.55364942364E+01  0.40703174008E+01  0.70541852142E+01  0.51100000000E-03 0.  1.
         12    1    3    3    0    0 -0.16891346391E+02  0.20298935862E+02 -0.97536579895E+01  0.28151344981E+02  0.00000000000E+00 0. -1.
</event>
<event>
 7    1  0.4836188E-013  0.5052886E+02  0.7816164E-02  0.1300439E+00
        -11   -1    0    0    0    0  0.00000000000E+00  0.00000000000E+00  0.45593999997E+02  0.45594000000E+02  0.51100000000E-03 0.  1.
         11   -1    0    0    0    0 -0.00000000000E+00 -0.00000000000E+00 -0.45593999997E+02  0.45594000000E+02  0.51100000000E-03 0. -1.
    9900012    2    1    2    0    0 -0.35907847035E+02 -0.13055840685E+02  0.13904574980E+02  0.50528860067E+02  0.30000000660E+02 0.  0.
         12    1    1    2    0    0  0.35907847035E+02  0.13055840685E+02 -0.13904574980E+02  0.40659139933E+02  0.00000000000E+00 0. -1.
         11    1    3    3    0    0 -0.87727612635E+01 -0.10446363140E+02 -0.20445292384E+01  0.13793764646E+02  0.51100000000E-03 0. -1.
        -11    1    3    3    0    0 -0.18097280867E+02 -0.10595678069E+02  0.90484013550E+01  0.22839735897E+02  0.51100000000E-03 0.  1.
        -12    1    3    3    0    0 -0.90378049052E+01  0.79862005233E+01  0.69007028633E+01  0.13895359524E+02  0.00000000000E+00 0.  1.
</event>
<event>
 7    1  0.4836188E-013  0.5052876E+02  0.7816164E-02  0.1300439E+00
        -11   -1    0    0    0    0  0.00000000000E+00  0.00000000000E+00  0.45593999997E+02  0.45594000000E+02  0.51100000000E-03 0.  1.
         11   -1    0    0    0    0 -0.00000000000E+00 -0.00000000000E+00 -0.45593999997E+02  0.45594000000E+02  0.51100000000E-03 0. -1.
    9900012    2    1    2    0    0 -0.96846036501E+01 -0.12750037016E+02  0.37374036660E+02  0.50528762329E+02  0.29999703572E+02 0.  0.
         12    1    1    2    0    0  0.96846036501E+01  0.12750037016E+02 -0.37374036660E+02  0.40659237671E+02  0.00000000000E+00 0. -1.
         11    1    3    3    0    0 -0.44548702610E+01 -0.13589869461E+01 -0.29827764825E+01  0.55307929240E+01  0.51100000000E-03 0. -1.
        -11    1    3    3    0    0 -0.19282514869E+01 -0.96722771743E+01  0.87860412381E+01  0.13208543464E+02  0.51100000000E-03 0.  1.
        -12    1    3    3    0    0 -0.33014819022E+01 -0.17187728958E+01  0.31570771904E+02  0.31789425941E+02  0.00000000000E+00 0.  1.
</event>
<event>
 7    1  0.4836188E-013  0.5052885E+02  0.7816164E-02  0.1300439E+00
        -11   -1    0    0    0    0  0.00000000000E+00  0.00000000000E+00  0.45593999997E+02  0.45594000000E+02  0.51100000000E-03 0.  1.
         11   -1    0    0    0    0 -0.00000000000E+00 -0.00000000000E+00 -0.45593999997E+02  0.45594000000E+02  0.51100000000E-03 0. -1.
    9900012    2    1    2    0    0  0.40649869075E+02 -0.49765851330E-01 -0.86712732812E+00  0.50528852908E+02  0.29999978899E+02 0.  0.
         12    1    1    2    0    0 -0.40649869075E+02  0.49765851330E-01  0.86712732812E+00  0.40659147092E+02  0.00000000000E+00 0. -1.
         11    1    3    3    0    0  0.11489065321E+02 -0.52391765807E+01 -0.64284901216E+01  0.14169441721E+02  0.51100000000E-03 0. -1.
        -11    1    3    3    0    0  0.21357217207E+02  0.71788436293E+01 -0.49984374670E+01  0.23079230924E+02  0.51100000000E-03 0.  1.
        -12    1    3    3    0    0  0.78035865478E+01 -0.19894328999E+01  0.10559800260E+02  0.13280180263E+02  0.00000000000E+00 0.  1.
</event>
<event>
 7    1  0.4836188E-013  0.5052886E+02  0.7816164E-02  0.1300439E+00
        -11   -1    0    0    0    0  0.00000000000E+00  0.00000000000E+00  0.45593999997E+02  0.45594000000E+02  0.51100000000E-03 0.  1.
         11   -1    0    0    0    0 -0.00000000000E+00 -0.00000000000E+00 -0.45593999997E+02  0.45594000000E+02  0.51100000000E-03 0. -1.
    9900012    2    1    2    0    0 -0.17008587554E+02 -0.24057848092E+01  0.36852212357E+02  0.50528863182E+02  0.30000010129E+02 0.  0.
         12    1    1    2    0    0  0.17008587554E+02  0.24057848092E+01 -0.36852212357E+02  0.40659136818E+02  0.00000000000E+00 0. -1.
         11    1    3    3    0    0 -0.84913073998E+01  0.12342058819E+01  0.44693424943E+00  0.85921659668E+01  0.51100000000E-03 0. -1.
        -11    1    3    3    0    0  0.16226579590E+01  0.48944297702E+01  0.29242064445E+01  0.59278533399E+01  0.51100000000E-03 0.  1.
        -12    1    3    3    0    0 -0.10139938114E+02 -0.85344204613E+01  0.33481071663E+02  0.36008843876E+02  0.00000000000E+00 0.  1.
</event>
<event>
 7    1  0.4836188E-013  0.5052886E+02  0.7816164E-02  0.1300439E+00
        -11   -1    0    0    0    0  0.00000000000E+00  0.00000000000E+00  0.45593999997E+02  0.45594000000E+02  0.51100000000E-03 0.  1.
         11   -1    0    0    0    0 -0.00000000000E+00 -0.00000000000E+00 -0.45593999997E+02  0.45594000000E+02  0.51100000000E-03 0. -1.
    9900012    2    1    2    0    0 -0.14146328246E+02 -0.11035372030E+02  0.36486542930E+02  0.50528857686E+02  0.29999993424E+02 0.  0.
         12    1    1    2    0    0  0.14146328246E+02  0.11035372030E+02 -0.36486542930E+02  0.40659142314E+02  0.00000000000E+00 0. -1.
         11    1    3    3    0    0  0.36942028657E+01 -0.86212479921E+00  0.15526305418E+01  0.40989091040E+01  0.51100000000E-03 0. -1.
        -11    1    3    3    0    0 -0.11139326646E+02  0.42584981889E+01  0.58619116401E+01  0.13288393932E+02  0.51100000000E-03 0.  1.
        -12    1    3    3    0    0 -0.67012044662E+01 -0.14431745420E+02  0.29072000748E+02  0.33141554651E+02  0.00000000000E+00 0.  1.
</event>
<event>
 7    1  0.4836188E-013  0.5052886E+02  0.7816164E-02  0.1300439E+00
        -11   -1    0    0    0    0  0.00000000000E+00  0.00000000000E+00  0.45593999997E+02  0.45594000000E+02  0.51100000000E-03 0.  1.
         11   -1    0    0    0    0 -0.00000000000E+00 -0.00000000000E+00 -0.45593999997E+02  0.45594000000E+02  0.51100000000E-03 0. -1.
    9900012    2    1    2    0    0 -0.30320095554E+02 -0.71115437731E-01  0.27089711867E+02  0.50528859074E+02  0.29999997640E+02 0.  0.
         12    1    1    2    0    0  0.30320095554E+02  0.71115437731E-01 -0.27089711867E+02  0.40659140926E+02  0.00000000000E+00 0. -1.
         11    1    3    3    0    0 -0.32459420239E+01  0.18727677419E+01 -0.31362416384E+01  0.48866563735E+01  0.51100000000E-03 0. -1.
        -11    1    3    3    0    0  0.30062702314E+01 -0.27100303911E+01  0.45142552111E+01  0.60630376708E+01  0.51100000000E-03 0.  1.
        -12    1    3    3    0    0 -0.30080423762E+02  0.76614721153E+00  0.25711698294E+02  0.39579165029E+02  0.00000000000E+00 0.  1.
</event>
<event>
 7    1  0.4836188E-013  0.5052890E+02  0.7816164E-02  0.1300439E+00
        -11   -1    0    0    0    0  0.00000000000E+00  0.00000000000E+00  0.45593999997E+02  0.45594000000E+02  0.51100000000E-03 0.  1.
         11   -1    0    0    0    0 -0.00000000000E+00 -0.00000000000E+00 -0.45593999997E+02  0.45594000000E+02  0.51100000000E-03 0. -1.
    9900012    2    1    2    0    0 -0.13876411440E+02  0.21507221385E+02  0.31591886915E+02  0.50528896652E+02  0.30000111864E+02 0.  0.
         12    1    1    2    0    0  0.13876411440E+02 -0.21507221385E+02 -0.31591886915E+02  0.40659103348E+02  0.00000000000E+00 0. -1.
         11    1    3    3    0    0 -0.58244776585E+01  0.22621743484E+01 -0.26831411396E+01  0.68000896622E+01  0.51100000000E-03 0. -1.
        -11    1    3    3    0    0 -0.13384411896E+02  0.14806469829E+02  0.22636583980E+02  0.30179280395E+02  0.51100000000E-03 0.  1.
         12    1    3    3    0    0  0.53324781147E+01  0.44385772077E+01  0.11638444075E+02  0.13549526595E+02  0.00000000000E+00 0. -1.
</event>
<event>
 7    1  0.4836188E-013  0.5052885E+02  0.7816164E-02  0.1300439E+00
        -11   -1    0    0    0    0  0.00000000000E+00  0.00000000000E+00  0.45593999997E+02  0.45594000000E+02  0.51100000000E-03 0. -1.
         11   -1    0    0    0    0 -0.00000000000E+00 -0.00000000000E+00 -0.45593999997E+02  0.45594000000E+02  0.51100000000E-03 0.  1.
    9900012    2    1    2    0    0 -0.19457017278E+02  0.19338284622E+02 -0.30010353798E+02  0.50528854552E+02  0.29999983897E+02 0.  0.
         12    1    1    2    0    0  0.19457017278E+02 -0.19338284622E+02  0.30010353798E+02  0.40659145448E+02  0.00000000000E+00 0. -1.
         11    1    3    3    0    0 -0.30103573044E+01  0.19876059580E+01  0.39075620530E+01  0.53180701390E+01  0.51100000000E-03 0. -1.
        -11    1    3    3    0    0 -0.14915974244E+02  0.14406842668E+02 -0.14005771329E+02  0.25024089076E+02  0.51100000000E-03 0.  1.
        -12    1    3    3    0    0 -0.15306857297E+01  0.29438359961E+01 -0.19912144522E+02  0.20186695337E+02  0.00000000000E+00 0.  1.
</event>
<event>
 7    1  0.4836188E-013  0.5052885E+02  0.7816164E-02  0.1300439E+00
        -11   -1    0    0    0    0  0.00000000000E+00  0.00000000000E+00  0.45593999997E+02  0.45594000000E+02  0.51100000000E-03 0. -1.
         11   -1    0    0    0    0 -0.00000000000E+00 -0.00000000000E+00 -0.45593999997E+02  0.45594000000E+02  0.51100000000E-03 0.  1.
    9900012    2    1    2    0    0 -0.28213821094E+02 -0.29156274274E+02  0.26568471794E+01  0.50528845223E+02  0.29999955539E+02 0.  0.
         12    1    1    2    0    0  0.28213821094E+02  0.29156274274E+02 -0.26568471794E+01  0.40659154777E+02  0.00000000000E+00 0. -1.
         11    1    3    3    0    0 -0.13722612721E+02 -0.17441483950E+01 -0.27814709477E+01  0.14109880736E+02  0.51100000000E-03 0. -1.
        -11    1    3    3    0    0 -0.12910373461E+02 -0.88441471036E+01 -0.30467384870E+01  0.15943001491E+02  0.51100000000E-03 0.  1.
         12    1    3    3    0    0 -0.15808349124E+01 -0.18567978776E+02  0.84850566141E+01  0.20475962995E+02  0.00000000000E+00 0. -1.
</event>
<event>
 7    1  0.4836188E-013  0.5052887E+02  0.7816164E-02  0.1300439E+00
        -11   -1    0    0    0    0  0.00000000000E+00  0.00000000000E+00  0.45593999997E+02  0.45594000000E+02  0.51100000000E-03 0.  1.
         11   -1    0    0    0    0 -0.00000000000E+00 -0.00000000000E+00 -0.45593999997E+02  0.45594000000E+02  0.51100000000E-03 0. -1.
    9900012    2    1    2    0    0 -0.46124218834E+01 -0.17169341741E+02  0.36566436743E+02  0.50528867846E+02  0.30000024305E+02 0.  0.
         12    1    1    2    0    0  0.46124218834E+01  0.17169341741E+02 -0.36566436743E+02  0.40659132154E+02  0.00000000000E+00 0. -1.
         11    1    3    3    0    0 -0.94361851088E+01  0.16042678944E+01  0.50250434169E+01  0.10810473000E+02  0.51100000000E-03 0. -1.
        -11    1    3    3    0    0 -0.88931858829E+00 -0.86607202526E+01  0.35305966392E+01  0.93948962599E+01  0.51100000000E-03 0.  1.
         12    1    3    3    0    0  0.57130818137E+01 -0.10112889383E+02  0.28010796687E+02  0.30323498586E+02  0.00000000000E+00 0. -1.
</event>
<event>
 7    1  0.4836188E-013  0.5052884E+02  0.7816164E-02  0.1300439E+00
        -11   -1    0    0    0    0  0.00000000000E+00  0.00000000000E+00  0.45593999997E+02  0.45594000000E+02  0.51100000000E-03 0. -1.
         11   -1    0    0    0    0 -0.00000000000E+00 -0.00000000000E+00 -0.45593999997E+02  0.45594000000E+02  0.51100000000E-03 0.  1.
    9900012    2    1    2    0    0  0.48404059374E+01 -0.40344545259E+02 -0.14336681726E+01  0.50528840315E+02  0.29999940623E+02 0.  0.
         12    1    1    2    0    0 -0.48404059374E+01  0.40344545259E+02  0.14336681726E+01  0.40659159685E+02  0.00000000000E+00 0. -1.
         11    1    3    3    0    0  0.45567517869E+00 -0.24947368654E+02 -0.94308565759E+01  0.26674330331E+02  0.51100000000E-03 0. -1.
        -11    1    3    3    0    0  0.10089778146E+02 -0.97505251214E+01  0.28464010974E+01  0.14317065434E+02  0.51100000000E-03 0.  1.
         12    1    3    3    0    0 -0.57050473871E+01 -0.56466514844E+01  0.51507873059E+01  0.95374445501E+01  0.00000000000E+00 0. -1.
</event>
<event>
 7    1  0.4836188E-013  0.5052885E+02  0.7816164E-02  0.1300439E+00
        -11   -1    0    0    0    0  0.00000000000E+00  0.00000000000E+00  0.45593999997E+02  0.45594000000E+02  0.51100000000E-03 0.  1.
         11   -1    0    0    0    0 -0.00000000000E+00 -0.00000000000E+00 -0.45593999997E+02  0.45594000000E+02  0.51100000000E-03 0. -1.
    9900012    2    1    2    0    0 -0.29278617796E+02  0.24078890501E+02  0.14701562412E+02  0.50528851397E+02  0.29999974307E+02 0.  0.
         12    1    1    2    0    0  0.29278617796E+02 -0.24078890501E+02 -0.14701562412E+02  0.40659148603E+02  0.00000000000E+00 0. -1.
         11    1    3    3    0    0 -0.21008922339E+02  0.11700069521E+02  0.94660990642E+00  0.24065795546E+02  0.51100000000E-03 0. -1.
        -11    1    3    3    0    0 -0.22991728076E+01  0.78160393342E+01 -0.25275383867E+01  0.85302471846E+01  0.51100000000E-03 0.  1.
         12    1    3    3    0    0 -0.59705226487E+01  0.45627816450E+01  0.16282490892E+02  0.17932808667E+02  0.00000000000E+00 0. -1.
</event>
<event>
 7    1  0.4836188E-013  0.5052886E+02  0.7816164E-02  0.1300439E+00
        -11   -1    0    0    0    0  0.00000000000E+00  0.00000000000E+00  0.45593999997E+02  0.45594000000E+02  0.51100000000E-03 0. -1.
         11   -1    0    0    0    0 -0.00000000000E+00 -0.00000000000E+00 -0.45593999997E+02  0.45594000000E+02  0.51100000000E-03 0.  1.
    9900012    2    1    2    0    0 -0.36005679506E+02 -0.18345538298E+02 -0.44942258494E+01  0.50528858370E+02  0.29999995502E+02 0.  0.
         12    1    1    2    0    0  0.36005679506E+02  0.18345538298E+02  0.44942258494E+01  0.40659141630E+02  0.00000000000E+00 0. -1.
         11    1    3    3    0    0 -0.60676929180E+01 -0.24874477983E+01  0.90619114899E+01  0.11185818433E+02  0.51100000000E-03 0.  1.
        -11    1    3    3    0    0 -0.22601613161E+01  0.16826948633E+01  0.15993240251E+01  0.32400044408E+01  0.51100000000E-03 0. -1.
        -12    1    3    3    0    0 -0.27677825272E+02 -0.17540785363E+02 -0.15155461364E+02  0.36103035497E+02  0.00000000000E+00 0.  1.
</event>
<event>
 7    1  0.4836188E-013  0.5052885E+02  0.7816164E-02  0.1300439E+00
        -11   -1    0    0    0    0  0.00000000000E+00  0.00000000000E+00  0.45593999997E+02  0.45594000000E+02  0.51100000000E-03 0. -1.
         11   -1    0    0    0    0 -0.00000000000E+00 -0.00000000000E+00 -0.45593999997E+02  0.45594000000E+02  0.51100000000E-03 0.  1.
    9900012    2    1    2    0    0  0.17922579104E+02 -0.32173815472E+02 -0.17227692111E+02  0.50528848272E+02  0.29999964808E+02 0.  0.
         12    1    1    2    0    0 -0.17922579104E+02  0.32173815472E+02  0.17227692111E+02  0.40659151728E+02  0.00000000000E+00 0. -1.
         11    1    3    3    0    0  0.20819794999E+01 -0.11124571497E+02 -0.12851546477E+02  0.17124630704E+02  0.51100000000E-03 0. -1.
        -11    1    3    3    0    0  0.13958882847E+02 -0.15518695242E+02 -0.11784306539E+02  0.23969776662E+02  0.51100000000E-03 0.  1.
         12    1    3    3    0    0  0.18817167571E+01 -0.55305487326E+01  0.74081609045E+01  0.94344409068E+01  0.00000000000E+00 0. -1.
</event>
<event>
 7    1  0.4836188E-013  0.5052886E+02  0.7816164E-02  0.1300439E+00
        -11   -1    0    0    0    0  0.00000000000E+00  0.00000000000E+00  0.45593999997E+02  0.45594000000E+02  0.51100000000E-03 0.  1.
         11   -1    0    0    0    0 -0.00000000000E+00 -0.00000000000E+00 -0.45593999997E+02  0.45594000000E+02  0.51100000000E-03 0. -1.
    9900012    2    1    2    0    0 -0.63770801392E+01 -0.78008199770E+01  0.39390935633E+02  0.50528858918E+02  0.29999997169E+02 0.  0.
         12    1    1    2    0    0  0.63770801392E+01  0.78008199770E+01 -0.39390935633E+02  0.40659141082E+02  0.00000000000E+00 0. -1.
         11    1    3    3    0    0 -0.61525510795E+01 -0.12477669749E+02  0.11539556955E+02  0.18075051926E+02  0.51100000000E-03 0. -1.
        -11    1    3    3    0    0 -0.55998184581E+01  0.18877993517E+01  0.25471579291E+01  0.64350421081E+01  0.51100000000E-03 0.  1.
        -12    1    3    3    0    0  0.53752893984E+01  0.27890504205E+01  0.25304220750E+02  0.26018764884E+02  0.00000000000E+00 0.  1.
</event>
<event>
 7    1  0.4836188E-013  0.5052894E+02  0.7816164E-02  0.1300439E+00
        -11   -1    0    0    0    0  0.00000000000E+00  0.00000000000E+00  0.45593999997E+02  0.45594000000E+02  0.51100000000E-03 0. -1.
         11   -1    0    0    0    0 -0.00000000000E+00 -0.00000000000E+00 -0.45593999997E+02  0.45594000000E+02  0.51100000000E-03 0.  1.
    9900012    2    1    2    0    0 -0.16007990708E+02  0.19872659886E+02 -0.31654078836E+02  0.50528940931E+02  0.30000246452E+02 0.  0.
         12    1    1    2    0    0  0.16007990708E+02 -0.19872659886E+02  0.31654078836E+02  0.40659059069E+02  0.00000000000E+00 0. -1.
         11    1    3    3    0    0 -0.30968109676E+01  0.98182440423E+01  0.23975691400E+01  0.10570548344E+02  0.51100000000E-03 0. -1.
        -11    1    3    3    0    0  0.22302852427E+01  0.19643320252E+01 -0.98337477838E+01  0.10273040850E+02  0.51100000000E-03 0.  1.
        -12    1    3    3    0    0 -0.15141464983E+02  0.80900838188E+01 -0.24217900192E+02  0.29685351737E+02  0.00000000000E+00 0.  1.
</event>
<event>
 7    1  0.4836188E-013  0.5052893E+02  0.7816164E-02  0.1300439E+00
        -11   -1    0    0    0    0  0.00000000000E+00  0.00000000000E+00  0.45593999997E+02  0.45594000000E+02  0.51100000000E-03 0.  1.
         11   -1    0    0    0    0 -0.00000000000E+00 -0.00000000000E+00 -0.45593999997E+02  0.45594000000E+02  0.51100000000E-03 0. -1.
    9900012    2    1    2    0    0 -0.23030256674E+02 -0.37789167130E+01  0.33293946213E+02  0.50528932273E+02  0.30000220135E+02 0.  0.
         12    1    1    2    0    0  0.23030256674E+02  0.37789167130E+01 -0.33293946213E+02  0.40659067727E+02  0.00000000000E+00 0. -1.
         11    1    3    3    0    0 -0.98646704827E+01  0.38932455051E+01  0.68099388885E+01  0.12603346866E+02  0.51100000000E-03 0. -1.
        -11    1    3    3    0    0 -0.17814462975E+02 -0.11385542762E+02  0.21636093798E+02  0.30250722804E+02  0.51100000000E-03 0.  1.
        -12    1    3    3    0    0  0.46488767828E+01  0.37133805441E+01  0.48479135267E+01  0.76748626026E+01  0.00000000000E+00 0.  1.
</event>
<event>
 7    1  0.4836188E-013  0.5052886E+02  0.7816164E-02  0.1300439E+00
        -11   -1    0    0    0    0  0.00000000000E+00  0.00000000000E+00  0.45593999997E+02  0.45594000000E+02  0.51100000000E-03 0.  1.
         11   -1    0    0    0    0 -0.00000000000E+00 -0.00000000000E+00 -0.45593999997E+02  0.45594000000E+02  0.51100000000E-03 0. -1.
    9900012    2    1    2    0    0  0.26006926100E+01  0.27870241009E+02  0.29489852029E+02  0.50528864389E+02  0.30000013796E+02 0.  0.
         12    1    1    2    0    0 -0.26006926100E+01 -0.27870241009E+02 -0.29489852029E+02  0.40659135611E+02  0.00000000000E+00 0. -1.
         11    1    3    3    0    0  0.46468476637E+01  0.91393526083E+01 -0.85097440218E+00  0.10288105608E+02  0.51100000000E-03 0. -1.
        -11    1    3    3    0    0  0.41200436727E+01  0.16844677333E+02  0.12803935648E+02  0.21555943093E+02  0.51100000000E-03 0.  1.
        -12    1    3    3    0    0 -0.61661987264E+01  0.18862110685E+01  0.17536890783E+02  0.18684815687E+02  0.00000000000E+00 0.  1.
</event>
<event>
 7    1  0.4836188E-013  0.5052885E+02  0.7816164E-02  0.1300439E+00
        -11   -1    0    0    0    0  0.00000000000E+00  0.00000000000E+00  0.45593999997E+02  0.45594000000E+02  0.51100000000E-03 0.  1.
         11   -1    0    0    0    0 -0.00000000000E+00 -0.00000000000E+00 -0.45593999997E+02  0.45594000000E+02  0.51100000000E-03 0. -1.
    9900012    2    1    2    0    0 -0.39122580534E+02  0.10348394969E+02  0.39370689428E+01  0.50528854683E+02  0.29999984293E+02 0.  0.
         12    1    1    2    0    0  0.39122580534E+02 -0.10348394969E+02 -0.39370689428E+01  0.40659145317E+02  0.00000000000E+00 0. -1.
         11    1    3    3    0    0 -0.47229550461E+01  0.10803762978E+02  0.48338374795E+01  0.12743374117E+02  0.51100000000E-03 0. -1.
        -11    1    3    3    0    0 -0.11178273823E+02  0.22885217106E+01  0.66602526031E+01  0.13211741077E+02  0.51100000000E-03 0.  1.
        -12    1    3    3    0    0 -0.23221351665E+02 -0.27438897193E+01 -0.75570211399E+01  0.24573739489E+02  0.00000000000E+00 0.  1.
</event>
<event>
 7    1  0.4836188E-013  0.5052887E+02  0.7816164E-02  0.1300439E+00
        -11   -1    0    0    0    0  0.00000000000E+00  0.00000000000E+00  0.45593999997E+02  0.45594000000E+02  0.51100000000E-03 0.  1.
         11   -1    0    0    0    0 -0.00000000000E+00 -0.00000000000E+00 -0.45593999997E+02  0.45594000000E+02  0.51100000000E-03 0. -1.
    9900012    2    1    2    0    0 -0.93388311759E+01 -0.19466992568E+02  0.34452687557E+02  0.50528865143E+02  0.30000016090E+02 0.  0.
         12    1    1    2    0    0  0.93388311759E+01  0.19466992568E+02 -0.34452687557E+02  0.40659134857E+02  0.00000000000E+00 0. -1.
         11    1    3    3    0    0 -0.46530291061E+01 -0.24160855762E+00  0.72962321146E+01  0.86570236160E+01  0.51100000000E-03 0. -1.
        -11    1    3    3    0    0 -0.95448588330E+01  0.11725798929E+01  0.14437854197E+02  0.17347360256E+02  0.51100000000E-03 0.  1.
        -12    1    3    3    0    0  0.48590567632E+01 -0.20397963903E+02  0.12718601245E+02  0.24524481272E+02  0.00000000000E+00 0.  1.
</event>
<event>
 7    1  0.4836188E-013  0.5052880E+02  0.7816164E-02  0.1300439E+00
        -11   -1    0    0    0    0  0.00000000000E+00  0.00000000000E+00  0.45593999997E+02  0.45594000000E+02  0.51100000000E-03 0.  1.
         11   -1    0    0    0    0 -0.00000000000E+00 -0.00000000000E+00 -0.45593999997E+02  0.45594000000E+02  0.51100000000E-03 0. -1.
    9900012    2    1    2    0    0  0.30006230332E+00 -0.39166176843E+02 -0.10912889327E+02  0.50528799327E+02  0.29999816034E+02 0.  0.
         12    1    1    2    0    0 -0.30006230332E+00  0.39166176843E+02  0.10912889327E+02  0.40659200673E+02  0.00000000000E+00 0. -1.
         11    1    3    3    0    0 -0.27575091719E+01 -0.12760766643E+01  0.24721169076E+01  0.39170895767E+01  0.51100000000E-03 0. -1.
        -11    1    3    3    0    0 -0.13030125814E+01 -0.25849841665E+02  0.27323448139E+01  0.26026483902E+02  0.51100000000E-03 0.  1.
         12    1    3    3    0    0  0.43605840566E+01 -0.12040258514E+02 -0.16117351048E+02  0.20585225848E+02  0.00000000000E+00 0. -1.
</event>
<event>
 7    1  0.4836188E-013  0.5052885E+02  0.7816164E-02  0.1300439E+00
        -11   -1    0    0    0    0  0.00000000000E+00  0.00000000000E+00  0.45593999997E+02  0.45594000000E+02  0.51100000000E-03 0.  1.
         11   -1    0    0    0    0 -0.00000000000E+00 -0.00000000000E+00 -0.45593999997E+02  0.45594000000E+02  0.51100000000E-03 0. -1.
    9900012    2    1    2    0    0 -0.33728931077E+01  0.35051768754E+02  0.20326434126E+02  0.50528845742E+02  0.29999957118E+02 0.  0.
         12    1    1    2    0    0  0.33728931077E+01 -0.35051768754E+02 -0.20326434126E+02  0.40659154258E+02  0.00000000000E+00 0. -1.
         11    1    3    3    0    0  0.34855381095E+01  0.10950324118E+02 -0.91180665711E+00  0.11527791022E+02  0.51100000000E-03 0. -1.
        -11    1    3    3    0    0 -0.28617214003E+01  0.26834400772E+02  0.20925938848E+02  0.34149222994E+02  0.51100000000E-03 0.  1.
         12    1    3    3    0    0 -0.39967098168E+01 -0.27329561364E+01  0.31230193510E+00  0.48518317265E+01  0.00000000000E+00 0. -1.
</event>
<event>
 7    1  0.4836188E-013  0.5052890E+02  0.7816164E-02  0.1300439E+00
        -11   -1    0    0    0    0  0.00000000000E+00  0.00000000000E+00  0.45593999997E+02  0.45594000000E+02  0.51100000000E-03 0.  1.
         11   -1    0    0    0    0 -0.00000000000E+00 -0.00000000000E+00 -0.45593999997E+02  0.45594000000E+02  0.51100000000E-03 0. -1.
    9900012    2    1    2    0    0  0.15483891065E+02 -0.21532905637E+02  0.30817936429E+02  0.50528903681E+02  0.30000133230E+02 0.  0.
         12    1    1    2    0    0 -0.15483891065E+02  0.21532905637E+02 -0.30817936429E+02  0.40659096319E+02  0.00000000000E+00 0. -1.
         11    1    3    3    0    0  0.80268587189E+00  0.10593409416E+00 -0.33243292211E+01  0.34215042997E+01  0.51100000000E-03 0. -1.
        -11    1    3    3    0    0  0.10330799979E+02 -0.39490734005E+01  0.37585223867E+01  0.11681057303E+02  0.51100000000E-03 0.  1.
         12    1    3    3    0    0  0.43504052143E+01 -0.17689766331E+02  0.30383743263E+02  0.35426342079E+02  0.00000000000E+00 0. -1.
</event>
<event>
 7    1  0.4836188E-013  0.5052886E+02  0.7816164E-02  0.1300439E+00
        -11   -1    0    0    0    0  0.00000000000E+00  0.00000000000E+00  0.45593999997E+02  0.45594000000E+02  0.51100000000E-03 0.  1.
         11   -1    0    0    0    0 -0.00000000000E+00 -0.00000000000E+00 -0.45593999997E+02  0.45594000000E+02  0.51100000000E-03 0. -1.
    9900012    2    1    2    0    0  0.12729695670E+02 -0.19548868445E+02  0.33301081321E+02  0.50528862940E+02  0.30000009392E+02 0.  0.
         12    1    1    2    0    0 -0.12729695670E+02  0.19548868445E+02 -0.33301081321E+02  0.40659137060E+02  0.00000000000E+00 0. -1.
         11    1    3    3    0    0  0.80933621326E+00  0.36701689155E+01  0.83129486329E+01  0.91230630935E+01  0.51100000000E-03 0. -1.
        -11    1    3    3    0    0  0.17261562828E+02 -0.16882451211E+02  0.21787296478E+02  0.32521761918E+02  0.51100000000E-03 0.  1.
         12    1    3    3    0    0 -0.53412033705E+01 -0.63365861494E+01  0.32008362100E+01  0.88840379286E+01  0.00000000000E+00 0. -1.
</event>
<event>
 7    1  0.4836188E-013  0.5052883E+02  0.7816164E-02  0.1300439E+00
        -11   -1    0    0    0    0  0.00000000000E+00  0.00000000000E+00  0.45593999997E+02  0.45594000000E+02  0.51100000000E-03 0.  1.
         11   -1    0    0    0    0 -0.00000000000E+00 -0.00000000000E+00 -0.45593999997E+02  0.45594000000E+02  0.51100000000E-03 0. -1.
    9900012    2    1    2    0    0  0.83479804787E+01 -0.28104278024E+02  0.28171423980E+02  0.50528826983E+02  0.29999900098E+02 0.  0.
         12    1    1    2    0    0 -0.83479804787E+01  0.28104278024E+02 -0.28171423980E+02  0.40659173017E+02  0.00000000000E+00 0. -1.
         11    1    3    3    0    0 -0.54155541002E+01 -0.41506330563E+01 -0.23842502443E+01  0.72277680143E+01  0.51100000000E-03 0. -1.
        -11    1    3    3    0    0  0.99361472254E+01 -0.67218734152E+01  0.70808408195E+01  0.13930143964E+02  0.51100000000E-03 0.  1.
        -12    1    3    3    0    0  0.38273873535E+01 -0.17231771553E+02  0.23474833405E+02  0.29370915004E+02  0.00000000000E+00 0.  1.
</event>
<event>
 7    1  0.4836188E-013  0.5052886E+02  0.7816164E-02  0.1300439E+00
        -11   -1    0    0    0    0  0.00000000000E+00  0.00000000000E+00  0.45593999997E+02  0.45594000000E+02  0.51100000000E-03 0.  1.
         11   -1    0    0    0    0 -0.00000000000E+00 -0.00000000000E+00 -0.45593999997E+02  0.45594000000E+02  0.51100000000E-03 0. -1.
    9900012    2    1    2    0    0  0.10383342046E+02 -0.12382505697E+02  0.37309853074E+02  0.50528863563E+02  0.30000011287E+02 0.  0.
         12    1    1    2    0    0 -0.10383342046E+02  0.12382505697E+02 -0.37309853074E+02  0.40659136437E+02  0.00000000000E+00 0. -1.
         11    1    3    3    0    0  0.49925067113E+01  0.15907742579E+00 -0.23191730159E+01  0.55071764661E+01  0.51100000000E-03 0. -1.
        -11    1    3    3    0    0  0.64154247902E+01  0.20150566854E+01  0.11123447823E+02  0.12998046793E+02  0.51100000000E-03 0.  1.
        -12    1    3    3    0    0 -0.10245894554E+01 -0.14556639808E+02  0.28505578267E+02  0.32023640305E+02  0.00000000000E+00 0.  1.
</event>
<event>
 7    1  0.4836188E-013  0.5052886E+02  0.7816164E-02  0.1300439E+00
        -11   -1    0    0    0    0  0.00000000000E+00  0.00000000000E+00  0.45593999997E+02  0.45594000000E+02  0.51100000000E-03 0.  1.
         11   -1    0    0    0    0 -0.00000000000E+00 -0.00000000000E+00 -0.45593999997E+02  0.45594000000E+02  0.51100000000E-03 0. -1.
    9900012    2    1    2    0    0  0.38782769829E+02 -0.11932834135E+02  0.25825392331E+01  0.50528864803E+02  0.30000015054E+02 0.  0.
         12    1    1    2    0    0 -0.38782769829E+02  0.11932834135E+02 -0.25825392331E+01  0.40659135197E+02  0.00000000000E+00 0. -1.
         11    1    3    3    0    0  0.37767463573E+01 -0.71718118533E+01 -0.72548259940E+01  0.10878014468E+02  0.51100000000E-03 0. -1.
        -11    1    3    3    0    0  0.11067366363E+01 -0.32815843962E+01  0.38791666134E+01  0.52001534600E+01  0.51100000000E-03 0.  1.
        -12    1    3    3    0    0  0.33899286835E+02 -0.14794378855E+01  0.59581986137E+01  0.34450696874E+02  0.00000000000E+00 0.  1.
</event>
<event>
 7    1  0.4836188E-013  0.5052877E+02  0.7816164E-02  0.1300439E+00
        -11   -1    0    0    0    0  0.00000000000E+00  0.00000000000E+00  0.45593999997E+02  0.45594000000E+02  0.51100000000E-03 0.  1.
         11   -1    0    0    0    0 -0.00000000000E+00 -0.00000000000E+00 -0.45593999997E+02  0.45594000000E+02  0.51100000000E-03 0. -1.
    9900012    2    1    2    0    0 -0.24079644625E+02  0.27563102709E+01  0.32645775379E+02  0.50528767572E+02  0.29999719511E+02 0.  0.
         12    1    1    2    0    0  0.24079644625E+02 -0.27563102709E+01 -0.32645775379E+02  0.40659232428E+02  0.00000000000E+00 0. -1.
         11    1    3    3    0    0 -0.23373780772E+01 -0.91793855151E+00  0.17826215905E+02  0.18002219897E+02  0.51100000000E-03 0. -1.
        -11    1    3    3    0    0 -0.19822391692E+02  0.16022888894E+01  0.18984727622E+02  0.27493897963E+02  0.51100000000E-03 0.  1.
         12    1    3    3    0    0 -0.19198748556E+01  0.20719599330E+01 -0.41651681480E+01  0.50326497122E+01  0.00000000000E+00 0. -1.
</event>
<event>
 7    1  0.4836188E-013  0.5052886E+02  0.7816164E-02  0.1300439E+00
        -11   -1    0    0    0    0  0.00000000000E+00  0.00000000000E+00  0.45593999997E+02  0.45594000000E+02  0.51100000000E-03 0.  1.
         11   -1    0    0    0    0 -0.00000000000E+00 -0.00000000000E+00 -0.45593999997E+02  0.45594000000E+02  0.51100000000E-03 0. -1.
    9900012    2    1    2    0    0  0.18139877516E+02 -0.51258498034E+01  0.36025498006E+02  0.50528855898E+02  0.29999987987E+02 0.  0.
         12    1    1    2    0    0 -0.18139877516E+02  0.51258498034E+01 -0.36025498006E+02  0.40659144102E+02  0.00000000000E+00 0. -1.
         11    1    3    3    0    0  0.17552462534E+02 -0.77527137694E+01  0.18615742435E+02  0.26734610123E+02  0.51100000000E-03 0. -1.
        -11    1    3    3    0    0  0.69463752104E+01  0.30142512051E+01  0.15320550781E+02  0.17089678622E+02  0.51100000000E-03 0.  1.
        -12    1    3    3    0    0 -0.63589602277E+01 -0.38738723910E+00  0.20892047903E+01  0.67045671528E+01  0.00000000000E+00 0.  1.
</event>
<event>
 7    1  0.4836188E-013  0.5052886E+02  0.7816164E-02  0.1300439E+00
        -11   -1    0    0    0    0  0.00000000000E+00  0.00000000000E+00  0.45593999997E+02  0.45594000000E+02  0.51100000000E-03 0.  1.
         11   -1    0    0    0    0 -0.00000000000E+00 -0.00000000000E+00 -0.45593999997E+02  0.45594000000E+02  0.51100000000E-03 0. -1.
    9900012    2    1    2    0    0  0.17671124804E+02  0.27230806887E+02  0.24482248537E+02  0.50528856023E+02  0.29999988368E+02 0.  0.
         12    1    1    2    0    0 -0.17671124804E+02 -0.27230806887E+02 -0.24482248537E+02  0.40659143977E+02  0.00000000000E+00 0. -1.
         11    1    3    3    0    0  0.16822592004E+02  0.67257209443E+01  0.24054023330E+01  0.18276238251E+02  0.51100000000E-03 0. -1.
        -11    1    3    3    0    0  0.53830459357E+01  0.66549277975E+01  0.11050512848E+02  0.13977806767E+02  0.51100000000E-03 0.  1.
         12    1    3    3    0    0 -0.45345131360E+01  0.13850158145E+02  0.11026333355E+02  0.18274811005E+02  0.00000000000E+00 0. -1.
</event>
<event>
 7    1  0.4836188E-013  0.5052887E+02  0.7816164E-02  0.1300439E+00
        -11   -1    0    0    0    0  0.00000000000E+00  0.00000000000E+00  0.45593999997E+02  0.45594000000E+02  0.51100000000E-03 0. -1.
         11   -1    0    0    0    0 -0.00000000000E+00 -0.00000000000E+00 -0.45593999997E+02  0.45594000000E+02  0.51100000000E-03 0.  1.
    9900012    2    1    2    0    0  0.82572911198E+00  0.16233535053E+02 -0.37268693298E+02  0.50528868319E+02  0.30000025743E+02 0.  0.
         12    1    1    2    0    0 -0.82572911198E+00 -0.16233535053E+02  0.37268693298E+02  0.40659131681E+02  0.00000000000E+00 0. -1.
         11    1    3    3    0    0  0.16102488058E+00  0.45944978270E+01  0.21247061341E+01  0.50645548385E+01  0.51100000000E-03 0. -1.
        -11    1    3    3    0    0  0.20031828755E+01  0.16294147935E+02 -0.22257384396E+02  0.27656882669E+02  0.51100000000E-03 0.  1.
         12    1    3    3    0    0 -0.13384786441E+01 -0.46551107089E+01 -0.17136015036E+02  0.17807430812E+02  0.00000000000E+00 0. -1.
</event>
<event>
 7    1  0.4836188E-013  0.5052886E+02  0.7816164E-02  0.1300439E+00
        -11   -1    0    0    0    0  0.00000000000E+00  0.00000000000E+00  0.45593999997E+02  0.45594000000E+02  0.51100000000E-03 0.  1.
         11   -1    0    0    0    0 -0.00000000000E+00 -0.00000000000E+00 -0.45593999997E+02  0.45594000000E+02  0.51100000000E-03 0. -1.
    9900012    2    1    2    0    0  0.18941379959E+02 -0.31185290265E+02  0.17940665818E+02  0.50528859655E+02  0.29999999406E+02 0.  0.
         12    1    1    2    0    0 -0.18941379959E+02  0.31185290265E+02 -0.17940665818E+02  0.40659140345E+02  0.00000000000E+00 0. -1.
         11    1    3    3    0    0  0.64154040932E+01 -0.98403107373E+01 -0.60695092248E+01  0.13222256524E+02  0.51100000000E-03 0. -1.
        -11    1    3    3    0    0 -0.27735026177E+01 -0.68789874779E+01  0.50559716440E+01  0.89763932076E+01  0.51100000000E-03 0.  1.
        -12    1    3    3    0    0  0.15299478483E+02 -0.14465992049E+02  0.18954203398E+02  0.28330209923E+02  0.00000000000E+00 0.  1.
</event>
<event>
 7    1  0.4836188E-013  0.5052885E+02  0.7816164E-02  0.1300439E+00
        -11   -1    0    0    0    0  0.00000000000E+00  0.00000000000E+00  0.45593999997E+02  0.45594000000E+02  0.51100000000E-03 0. -1.
         11   -1    0    0    0    0 -0.00000000000E+00 -0.00000000000E+00 -0.45593999997E+02  0.45594000000E+02  0.51100000000E-03 0.  1.
    9900012    2    1    2    0    0 -0.37815193204E+02 -0.14930659049E+02 -0.50266646151E+00  0.50528854777E+02  0.29999984579E+02 0.  0.
         12    1    1    2    0    0  0.37815193204E+02  0.14930659049E+02  0.50266646151E+00  0.40659145223E+02  0.00000000000E+00 0. -1.
         11    1    3    3    0    0 -0.31707731758E+01  0.42326198988E+01  0.77056319635E+00  0.53444028330E+01  0.51100000000E-03 0. -1.
        -11    1    3    3    0    0 -0.19079615301E+02 -0.14426019178E+02  0.94284028492E+01  0.25710630679E+02  0.51100000000E-03 0.  1.
         12    1    3    3    0    0 -0.15564804728E+02 -0.47372597694E+01 -0.10701632507E+02  0.19473821265E+02  0.00000000000E+00 0. -1.
</event>
<event>
 7    1  0.4836188E-013  0.5052888E+02  0.7816164E-02  0.1300439E+00
        -11   -1    0    0    0    0  0.00000000000E+00  0.00000000000E+00  0.45593999997E+02  0.45594000000E+02  0.51100000000E-03 0.  1.
         11   -1    0    0    0    0 -0.00000000000E+00 -0.00000000000E+00 -0.45593999997E+02  0.45594000000E+02  0.51100000000E-03 0. -1.
    9900012    2    1    2    0    0 -0.23966123138E+02 -0.32619329577E+02  0.38429353283E+01  0.50528882053E+02  0.30000067487E+02 0.  0.
         12    1    1    2    0    0  0.23966123138E+02  0.32619329577E+02 -0.38429353283E+01  0.40659117947E+02  0.00000000000E+00 0. -1.
         11    1    3    3    0    0 -0.13596870049E+02 -0.21210455326E+02  0.11135254763E+01  0.25219005324E+02  0.51100000000E-03 0. -1.
        -11    1    3    3    0    0 -0.74594212655E+01 -0.14140357586E+02 -0.48816064675E+01  0.16715943295E+02  0.51100000000E-03 0.  1.
         12    1    3    3    0    0 -0.29098318235E+01  0.27314833353E+01  0.76110163195E+01  0.85939334340E+01  0.00000000000E+00 0. -1.
</event>
<event>
 7    1  0.4836188E-013  0.5052886E+02  0.7816164E-02  0.1300439E+00
        -11   -1    0    0    0    0  0.00000000000E+00  0.00000000000E+00  0.45593999997E+02  0.45594000000E+02  0.51100000000E-03 0. -1.
         11   -1    0    0    0    0 -0.00000000000E+00 -0.00000000000E+00 -0.45593999997E+02  0.45594000000E+02  0.51100000000E-03 0.  1.
    9900012    2    1    2    0    0  0.13447474689E+02 -0.36253612645E+02 -0.12570067229E+02  0.50528860861E+02  0.30000003074E+02 0.  0.
         12    1    1    2    0    0 -0.13447474689E+02  0.36253612645E+02  0.12570067229E+02  0.40659139139E+02  0.00000000000E+00 0. -1.
         11    1    3    3    0    0 -0.61921538597E+01  0.18120878007E+00 -0.42274375001E+00  0.62092123964E+01  0.51100000000E-03 0. -1.
        -11    1    3    3    0    0  0.38282109836E+01 -0.31258423638E+01 -0.44565672305E+01  0.66548539848E+01  0.51100000000E-03 0.  1.
         12    1    3    3    0    0  0.15811417565E+02 -0.33308979061E+02 -0.76907562489E+01  0.37664794480E+02  0.00000000000E+00 0. -1.
</event>
<event>
 7    1  0.4836188E-013  0.5052886E+02  0.7816164E-02  0.1300439E+00
        -11   -1    0    0    0    0  0.00000000000E+00  0.00000000000E+00  0.45593999997E+02  0.45594000000E+02  0.51100000000E-03 0. -1.
         11   -1    0    0    0    0 -0.00000000000E+00 -0.00000000000E+00 -0.45593999997E+02  0.45594000000E+02  0.51100000000E-03 0.  1.
    9900012    2    1    2    0    0 -0.33893675107E+02 -0.22366495909E+02 -0.20309031875E+01  0.50528856880E+02  0.29999990972E+02 0.  0.
         12    1    1    2    0    0  0.33893675107E+02  0.22366495909E+02  0.20309031875E+01  0.40659143120E+02  0.00000000000E+00 0. -1.
         11    1    3    3    0    0 -0.90361197249E+01 -0.19264385421E+02  0.60021711834E+01  0.22108687535E+02  0.51100000000E-03 0. -1.
        -11    1    3    3    0    0 -0.32683128267E+01 -0.40554153937E+01 -0.36759453438E+01  0.63750166416E+01  0.51100000000E-03 0.  1.
        -12    1    3    3    0    0 -0.21589242556E+02  0.95330490600E+00 -0.43571290271E+01  0.22045152704E+02  0.00000000000E+00 0.  1.
</event>
<event>
 7    1  0.4836188E-013  0.5052886E+02  0.7816164E-02  0.1300439E+00
        -11   -1    0    0    0    0  0.00000000000E+00  0.00000000000E+00  0.45593999997E+02  0.45594000000E+02  0.51100000000E-03 0.  1.
         11   -1    0    0    0    0 -0.00000000000E+00 -0.00000000000E+00 -0.45593999997E+02  0.45594000000E+02  0.51100000000E-03 0. -1.
    9900012    2    1    2    0    0 -0.35935790255E+01 -0.33514406184E+01  0.40361114209E+02  0.50528861979E+02  0.30000006471E+02 0.  0.
         12    1    1    2    0    0  0.35935790255E+01  0.33514406184E+01 -0.40361114209E+02  0.40659138021E+02  0.00000000000E+00 0. -1.
         11    1    3    3    0    0  0.29916335997E+01 -0.63286566272E+01  0.25872247641E+01  0.74629416815E+01  0.51100000000E-03 0. -1.
        -11    1    3    3    0    0 -0.11650883036E+02  0.32643307402E+00  0.12247627454E+02  0.16907217766E+02  0.51100000000E-03 0.  1.
        -12    1    3    3    0    0  0.50656704112E+01  0.26507829347E+01  0.25526261991E+02  0.26158702531E+02  0.00000000000E+00 0.  1.
</event>
<event>
 7    1  0.4836188E-013  0.5052886E+02  0.7816164E-02  0.1300439E+00
        -11   -1    0    0    0    0  0.00000000000E+00  0.00000000000E+00  0.45593999997E+02  0.45594000000E+02  0.51100000000E-03 0. -1.
         11   -1    0    0    0    0 -0.00000000000E+00 -0.00000000000E+00 -0.45593999997E+02  0.45594000000E+02  0.51100000000E-03 0.  1.
    9900012    2    1    2    0    0  0.11988202021E+02 -0.31606996351E+02 -0.22593058139E+02  0.50528862256E+02  0.30000007312E+02 0.  0.
         12    1    1    2    0    0 -0.11988202021E+02  0.31606996351E+02  0.22593058139E+02  0.40659137744E+02  0.00000000000E+00 0. -1.
         11    1    3    3    0    0 -0.26401876858E+01 -0.33522357999E+00 -0.15493176167E+01  0.30795050257E+01  0.51100000000E-03 0. -1.
        -11    1    3    3    0    0  0.64904158119E+01 -0.16506887716E+02 -0.24493183458E+02  0.30241013139E+02  0.51100000000E-03 0.  1.
         12    1    3    3    0    0  0.81379738949E+01 -0.14764885055E+02  0.34494429355E+01  0.17208344091E+02  0.00000000000E+00 0. -1.
</event>
<event>
 7    1  0.4836188E-013  0.5052886E+02  0.7816164E-02  0.1300439E+00
        -11   -1    0    0    0    0  0.00000000000E+00  0.00000000000E+00  0.45593999997E+02  0.45594000000E+02  0.51100000000E-03 0. -1.
         11   -1    0    0    0    0 -0.00000000000E+00 -0.00000000000E+00 -0.45593999997E+02  0.45594000000E+02  0.51100000000E-03 0.  1.
    9900012    2    1    2    0    0 -0.15641202126E+02  0.36408775311E+02  0.91060216194E+01  0.50528858920E+02  0.29999997173E+02 0.  0.
         12    1    1    2    0    0  0.15641202126E+02 -0.36408775311E+02 -0.91060216194E+01  0.40659141080E+02  0.00000000000E+00 0. -1.
         11    1    3    3    0    0  0.12853606036E+01  0.12329602207E+02  0.30188387126E+01  0.12758708003E+02  0.51100000000E-03 0. -1.
        -11    1    3    3    0    0 -0.14023503661E+02  0.27747673562E+02  0.13605266290E+01  0.31119818059E+02  0.51100000000E-03 0.  1.
         12    1    3    3    0    0 -0.29030590687E+01 -0.36685004576E+01  0.47266562777E+01  0.66503328587E+01  0.00000000000E+00 0. -1.
</event>
<event>
 7    1  0.4836188E-013  0.5052885E+02  0.7816164E-02  0.1300439E+00
        -11   -1    0    0    0    0  0.00000000000E+00  0.00000000000E+00  0.45593999997E+02  0.45594000000E+02  0.51100000000E-03 0.  1.
         11   -1    0    0    0    0 -0.00000000000E+00 -0.00000000000E+00 -0.45593999997E+02  0.45594000000E+02  0.51100000000E-03 0. -1.
    9900012    2    1    2    0    0 -0.24944887162E+02 -0.18903846325E+01  0.32052227945E+02  0.50528852618E+02  0.29999978019E+02 0.  0.
         12    1    1    2    0    0  0.24944887162E+02  0.18903846325E+01 -0.32052227945E+02  0.40659147382E+02  0.00000000000E+00 0. -1.
         11    1    3    3    0    0 -0.35343326852E+01  0.22494649920E+00  0.11402003673E+02  0.11939338193E+02  0.51100000000E-03 0. -1.
        -11    1    3    3    0    0 -0.19036939474E+02  0.50731352362E+01  0.23351167663E+02  0.30551903331E+02  0.51100000000E-03 0.  1.
         12    1    3    3    0    0 -0.23736150033E+01 -0.71884663679E+01 -0.27009433916E+01  0.80376110948E+01  0.00000000000E+00 0. -1.
</event>
<event>
 7    1  0.4836188E-013  0.5052886E+02  0.7816164E-02  0.1300439E+00
        -11   -1    0    0    0    0  0.00000000000E+00  0.00000000000E+00  0.45593999997E+02  0.45594000000E+02  0.51100000000E-03 0.  1.
         11   -1    0    0    0    0 -0.00000000000E+00 -0.00000000000E+00 -0.45593999997E+02  0.45594000000E+02  0.51100000000E-03 0. -1.
    9900012    2    1    2    0    0 -0.23590718332E+00  0.11567415881E+02  0.38978257140E+02  0.50528864593E+02  0.30000014416E+02 0.  0.
         12    1    1    2    0    0  0.23590718332E+00 -0.11567415881E+02 -0.38978257140E+02  0.40659135407E+02  0.00000000000E+00 0. -1.
         11    1    3    3    0    0 -0.10649888075E+02  0.29998294229E+01  0.41629957710E+01  0.11821574625E+02  0.51100000000E-03 0. -1.
        -11    1    3    3    0    0 -0.15587489560E+01  0.29567832218E+01  0.10636898426E+02  0.11149702853E+02  0.51100000000E-03 0.  1.
        -12    1    3    3    0    0  0.11972729847E+02  0.56108032363E+01  0.24178362943E+02  0.27557587114E+02  0.00000000000E+00 0.  1.
</event>
<event>
 7    1  0.4836188E-013  0.5052886E+02  0.7816164E-02  0.1300439E+00
        -11   -1    0    0    0    0  0.00000000000E+00  0.00000000000E+00  0.45593999997E+02  0.45594000000E+02  0.51100000000E-03 0.  1.
         11   -1    0    0    0    0 -0.00000000000E+00 -0.00000000000E+00 -0.45593999997E+02  0.45594000000E+02  0.51100000000E-03 0. -1.
    9900012    2    1    2    0    0 -0.33417695693E+02 -0.23123842929E+02 -0.13079915018E+01  0.50528864015E+02  0.30000012661E+02 0.  0.
         12    1    1    2    0    0  0.33417695693E+02  0.23123842929E+02  0.13079915018E+01  0.40659135985E+02  0.00000000000E+00 0. -1.
         11    1    3    3    0    0  0.38028744835E+01 -0.37771550697E+01  0.55219517104E+00  0.53882905012E+01  0.51100000000E-03 0. -1.
        -11    1    3    3    0    0 -0.14096008684E+02 -0.46489329633E+01 -0.82831376618E+01  0.16997658906E+02  0.51100000000E-03 0.  1.
        -12    1    3    3    0    0 -0.23124561493E+02 -0.14697754895E+02  0.64229509889E+01  0.28142914608E+02  0.00000000000E+00 0.  1.
</event>
<event>
 7    1  0.4836188E-013  0.5052885E+02  0.7816164E-02  0.1300439E+00
        -11   -1    0    0    0    0  0.00000000000E+00  0.00000000000E+00  0.45593999997E+02  0.45594000000E+02  0.51100000000E-03 0.  1.
         11   -1    0    0    0    0 -0.00000000000E+00 -0.00000000000E+00 -0.45593999997E+02  0.45594000000E+02  0.51100000000E-03 0. -1.
    9900012    2    1    2    0    0 -0.20208034630E+02  0.17091974509E+02  0.30865291488E+02  0.50528850048E+02  0.29999970204E+02 0.  0.
         12    1    1    2    0    0  0.20208034630E+02 -0.17091974509E+02 -0.30865291488E+02  0.40659149952E+02  0.00000000000E+00 0. -1.
         11    1    3    3    0    0 -0.35686492857E+00  0.12451809686E+01 -0.25629827635E+01  0.28717083990E+01  0.51100000000E-03 0. -1.
        -11    1    3    3    0    0 -0.61169653412E+01  0.16401215807E+02  0.91355169006E+01  0.19745247890E+02  0.51100000000E-03 0.  1.
         12    1    3    3    0    0 -0.13734204360E+02 -0.55442226720E+00  0.24292757351E+02  0.27911893758E+02  0.00000000000E+00 0. -1.
</event>
<event>
 7    1  0.4836188E-013  0.5052886E+02  0.7816164E-02  0.1300439E+00
        -11   -1    0    0    0    0  0.00000000000E+00  0.00000000000E+00  0.45593999997E+02  0.45594000000E+02  0.51100000000E-03 0.  1.
         11   -1    0    0    0    0 -0.00000000000E+00 -0.00000000000E+00 -0.45593999997E+02  0.45594000000E+02  0.51100000000E-03 0. -1.
    9900012    2    1    2    0    0 -0.19201706961E+02 -0.18274266495E+02  0.30830359898E+02  0.50528862557E+02  0.30000008228E+02 0.  0.
         12    1    1    2    0    0  0.19201706961E+02  0.18274266495E+02 -0.30830359898E+02  0.40659137443E+02  0.00000000000E+00 0. -1.
         11    1    3    3    0    0 -0.10124429016E+02 -0.96954386964E+01  0.64460322386E+01  0.15429093502E+02  0.51100000000E-03 0.  1.
        -11    1    3    3    0    0 -0.12216017118E+02  0.25386437109E+01  0.17998292313E+02  0.21900098460E+02  0.51100000000E-03 0. -1.
         12    1    3    3    0    0  0.31387391720E+01 -0.11117471510E+02  0.63860353463E+01  0.13199670595E+02  0.00000000000E+00 0. -1.
</event>
<event>
 7    1  0.4836188E-013  0.5052888E+02  0.7816164E-02  0.1300439E+00
        -11   -1    0    0    0    0  0.00000000000E+00  0.00000000000E+00  0.45593999997E+02  0.45594000000E+02  0.51100000000E-03 0. -1.
         11   -1    0    0    0    0 -0.00000000000E+00 -0.00000000000E+00 -0.45593999997E+02  0.45594000000E+02  0.51100000000E-03 0.  1.
    9900012    2    1    2    0    0 -0.24939677575E+02  0.45507701402E+01 -0.31787848337E+02  0.50528876445E+02  0.30000050442E+02 0.  0.
         12    1    1    2    0    0  0.24939677575E+02 -0.45507701402E+01  0.31787848337E+02  0.40659123555E+02  0.00000000000E+00 0. -1.
         11    1    3    3    0    0 -0.65080306145E+01 -0.77196078188E+01 -0.58122110722E+01  0.11650262021E+02  0.51100000000E-03 0. -1.
        -11    1    3    3    0    0 -0.12780970745E+02  0.78207654864E+01 -0.27690572265E+02  0.31484684826E+02  0.51100000000E-03 0.  1.
         12    1    3    3    0    0 -0.56506762150E+01  0.44496124726E+01  0.17149350002E+01  0.73939295979E+01  0.00000000000E+00 0. -1.
</event>
<event>
 7    1  0.4836188E-013  0.5052885E+02  0.7816164E-02  0.1300439E+00
        -11   -1    0    0    0    0  0.00000000000E+00  0.00000000000E+00  0.45593999997E+02  0.45594000000E+02  0.51100000000E-03 0.  1.
         11   -1    0    0    0    0 -0.00000000000E+00 -0.00000000000E+00 -0.45593999997E+02  0.45594000000E+02  0.51100000000E-03 0. -1.
    9900012    2    1    2    0    0 -0.37826177369E+02 -0.13457384779E+02 -0.64222476390E+01  0.50528853868E+02  0.29999981816E+02 0.  0.
         12    1    1    2    0    0  0.37826177369E+02  0.13457384779E+02  0.64222476390E+01  0.40659146132E+02  0.00000000000E+00 0. -1.
         11    1    3    3    0    0  0.34094526524E+01 -0.10204999885E+01  0.93390473430E+00  0.36793974954E+01  0.51100000000E-03 0. -1.
        -11    1    3    3    0    0 -0.13872729240E+02  0.27056463290E+00 -0.91595156021E+01  0.16625960066E+02  0.51100000000E-03 0.  1.
        -12    1    3    3    0    0 -0.27362900782E+02 -0.12707449423E+02  0.18033632288E+01  0.30223496307E+02  0.00000000000E+00 0.  1.
</event>
<event>
 7    1  0.4836188E-013  0.5052873E+02  0.7816164E-02  0.1300439E+00
        -11   -1    0    0    0    0  0.00000000000E+00  0.00000000000E+00  0.45593999997E+02  0.45594000000E+02  0.51100000000E-03 0.  1.
         11   -1    0    0    0    0 -0.00000000000E+00 -0.00000000000E+00 -0.45593999997E+02  0.45594000000E+02  0.51100000000E-03 0. -1.
    9900012    2    1    2    0    0 -0.20381418575E+02  0.35181744430E+02  0.13773627819E+00  0.50528728788E+02  0.29999601621E+02 0.  0.
         12    1    1    2    0    0  0.20381418575E+02 -0.35181744430E+02 -0.13773627819E+00  0.40659271212E+02  0.00000000000E+00 0. -1.
         11    1    3    3    0    0 -0.11417829653E+02  0.70487327394E+01 -0.52949658241E+01  0.14425260155E+02  0.51100000000E-03 0. -1.
        -11    1    3    3    0    0 -0.14001166304E+02  0.17185966717E+02  0.83789091572E+01  0.23698021622E+02  0.51100000000E-03 0.  1.
         12    1    3    3    0    0  0.50375773818E+01  0.10947044973E+02 -0.29462070549E+01  0.12405447011E+02  0.00000000000E+00 0. -1.
</event>
<event>
 7    1  0.4836188E-013  0.5052886E+02  0.7816164E-02  0.1300439E+00
        -11   -1    0    0    0    0  0.00000000000E+00  0.00000000000E+00  0.45593999997E+02  0.45594000000E+02  0.51100000000E-03 0.  1.
         11   -1    0    0    0    0 -0.00000000000E+00 -0.00000000000E+00 -0.45593999997E+02  0.45594000000E+02  0.51100000000E-03 0. -1.
    9900012    2    1    2    0    0 -0.68577214190E+01 -0.11731579739E+02  0.38321109736E+02  0.50528858867E+02  0.29999997013E+02 0.  0.
         12    1    1    2    0    0  0.68577214190E+01  0.11731579739E+02 -0.38321109736E+02  0.40659141133E+02  0.00000000000E+00 0. -1.
         11    1    3    3    0    0 -0.49914522331E+01  0.51107646956E+01  0.26088628451E+00  0.71486063736E+01  0.51100000000E-03 0. -1.
        -11    1    3    3    0    0 -0.30805342762E+01 -0.31206430431E+01  0.20802519921E+01  0.48534063338E+01  0.51100000000E-03 0.  1.
         12    1    3    3    0    0  0.12142650903E+01 -0.13721701392E+02  0.35979971460E+02  0.38526846160E+02  0.00000000000E+00 0. -1.
</event>
<event>
 7    1  0.4836188E-013  0.5052885E+02  0.7816164E-02  0.1300439E+00
        -11   -1    0    0    0    0  0.00000000000E+00  0.00000000000E+00  0.45593999997E+02  0.45594000000E+02  0.51100000000E-03 0.  1.
         11   -1    0    0    0    0 -0.00000000000E+00 -0.00000000000E+00 -0.45593999997E+02  0.45594000000E+02  0.51100000000E-03 0. -1.
    9900012    2    1    2    0    0  0.13945871764E+02  0.38114393887E+02 -0.24437838965E+01  0.50528850471E+02  0.29999971492E+02 0.  0.
         12    1    1    2    0    0 -0.13945871764E+02 -0.38114393887E+02  0.24437838965E+01  0.40659149529E+02  0.00000000000E+00 0. -1.
         11    1    3    3    0    0 -0.21702121264E+01 -0.22681437709E+01 -0.84258661339E-01  0.31402860733E+01  0.51100000000E-03 0.  1.
        -11    1    3    3    0    0  0.33465218178E+01  0.71249132074E+01 -0.81106208899E+01  0.11302467340E+02  0.51100000000E-03 0. -1.
        -12    1    3    3    0    0  0.12769562073E+02  0.33257624451E+02  0.57510956547E+01  0.36086097058E+02  0.00000000000E+00 0.  1.
</event>
<event>
 7    1  0.4836188E-013  0.5052886E+02  0.7816164E-02  0.1300439E+00
        -11   -1    0    0    0    0  0.00000000000E+00  0.00000000000E+00  0.45593999997E+02  0.45594000000E+02  0.51100000000E-03 0. -1.
         11   -1    0    0    0    0 -0.00000000000E+00 -0.00000000000E+00 -0.45593999997E+02  0.45594000000E+02  0.51100000000E-03 0.  1.
    9900012    2    1    2    0    0 -0.15478078612E+01 -0.40603937297E+02  0.14456759221E+01  0.50528863117E+02  0.30000009930E+02 0.  0.
         12    1    1    2    0    0  0.15478078612E+01  0.40603937297E+02 -0.14456759221E+01  0.40659136883E+02  0.00000000000E+00 0. -1.
         11    1    3    3    0    0 -0.51560070318E+01 -0.44127402863E+02  0.34383916340E+01  0.44560460379E+02  0.51100000000E-03 0.  1.
        -11    1    3    3    0    0  0.19312835402E+01  0.37692441779E+00 -0.12353249747E+01  0.23233502069E+01  0.51100000000E-03 0. -1.
        -12    1    3    3    0    0  0.16769156303E+01  0.31465411475E+01 -0.75739073720E+00  0.36450525309E+01  0.00000000000E+00 0.  1.
</event>
<event>
 7    1  0.4836188E-013  0.5052886E+02  0.7816164E-02  0.1300439E+00
        -11   -1    0    0    0    0  0.00000000000E+00  0.00000000000E+00  0.45593999997E+02  0.45594000000E+02  0.51100000000E-03 0. -1.
         11   -1    0    0    0    0 -0.00000000000E+00 -0.00000000000E+00 -0.45593999997E+02  0.45594000000E+02  0.51100000000E-03 0.  1.
    9900012    2    1    2    0    0 -0.28104562036E+02  0.18611322418E+02 -0.22735827302E+02  0.50528861144E+02  0.30000003934E+02 0.  0.
         12    1    1    2    0    0  0.28104562036E+02 -0.18611322418E+02  0.22735827302E+02  0.40659138856E+02  0.00000000000E+00 0. -1.
         11    1    3    3    0    0 -0.16312078881E+02  0.17266274066E+02 -0.43641783319E+01  0.24150656105E+02  0.51100000000E-03 0. -1.
        -11    1    3    3    0    0 -0.14977205968E+02 -0.85834125404E+00 -0.15377832995E+02  0.21483277129E+02  0.51100000000E-03 0.  1.
         12    1    3    3    0    0  0.31847228129E+01  0.22033896063E+01 -0.29938159746E+01  0.48949279098E+01  0.00000000000E+00 0. -1.
</event>
<event>
 7    1  0.4836188E-013  0.5052887E+02  0.7816164E-02  0.1300439E+00
        -11   -1    0    0    0    0  0.00000000000E+00  0.00000000000E+00  0.45593999997E+02  0.45594000000E+02  0.51100000000E-03 0. -1.
         11   -1    0    0    0    0 -0.00000000000E+00 -0.00000000000E+00 -0.45593999997E+02  0.45594000000E+02  0.51100000000E-03 0.  1.
    9900012    2    1    2    0    0 -0.80295152667E+01  0.28017657159E+02 -0.28349644979E+02  0.50528873122E+02  0.30000040341E+02 0.  0.
         12    1    1    2    0    0  0.80295152667E+01 -0.28017657159E+02  0.28349644979E+02  0.40659126878E+02  0.00000000000E+00 0. -1.
         11    1    3    3    0    0 -0.71470519253E+01  0.98448891533E+01 -0.89396562949E+01  0.15097007935E+02  0.51100000000E-03 0. -1.
        -11    1    3    3    0    0  0.32540029359E+01  0.21946935740E+02 -0.19909445556E+02  0.29810108120E+02  0.51100000000E-03 0.  1.
         12    1    3    3    0    0 -0.41364662772E+01 -0.37741677348E+01  0.49945687239E+00  0.56217570670E+01  0.00000000000E+00 0. -1.
</event>
<event>
 7    1  0.4836188E-013  0.5052884E+02  0.7816164E-02  0.1300439E+00
        -11   -1    0    0    0    0  0.00000000000E+00  0.00000000000E+00  0.45593999997E+02  0.45594000000E+02  0.51100000000E-03 0.  1.
         11   -1    0    0    0    0 -0.00000000000E+00 -0.00000000000E+00 -0.45593999997E+02  0.45594000000E+02  0.51100000000E-03 0. -1.
    9900012    2    1    2    0    0  0.14242853204E+02  0.33897366254E+02  0.17357332908E+02  0.50528839753E+02  0.29999938912E+02 0.  0.
         12    1    1    2    0    0 -0.14242853204E+02 -0.33897366254E+02 -0.17357332908E+02  0.40659160247E+02  0.00000000000E+00 0. -1.
         11    1    3    3    0    0  0.47371898193E+01  0.12109644400E+01  0.85396345068E+01  0.98403638159E+01  0.51100000000E-03 0. -1.
        -11    1    3    3    0    0  0.14696533433E+02  0.25802729279E+02  0.11211845907E+02  0.31740737579E+02  0.51100000000E-03 0.  1.
         12    1    3    3    0    0 -0.51908700481E+01  0.68836725352E+01 -0.23941475061E+01  0.89477383572E+01  0.00000000000E+00 0. -1.
</event>
<event>
 7    1  0.4836188E-013  0.5052886E+02  0.7816164E-02  0.1300439E+00
        -11   -1    0    0    0    0  0.00000000000E+00  0.00000000000E+00  0.45593999997E+02  0.45594000000E+02  0.51100000000E-03 0.  1.
         11   -1    0    0    0    0 -0.00000000000E+00 -0.00000000000E+00 -0.45593999997E+02  0.45594000000E+02  0.51100000000E-03 0. -1.
    9900012    2    1    2    0    0 -0.13233416419E+02  0.24012094081E+02  0.30024350667E+02  0.50528860741E+02  0.30000002709E+02 0.  0.
         12    1    1    2    0    0  0.13233416419E+02 -0.24012094081E+02 -0.30024350667E+02  0.40659139259E+02  0.00000000000E+00 0. -1.
         11    1    3    3    0    0 -0.12279582809E+02  0.13809108313E+02  0.83427542970E+01  0.20275136890E+02  0.51100000000E-03 0. -1.
        -11    1    3    3    0    0 -0.44832759575E+00  0.15499824459E+02  0.18128455358E+02  0.23855532897E+02  0.51100000000E-03 0.  1.
        -12    1    3    3    0    0 -0.50550601407E+00 -0.52968386905E+01  0.35531410123E+01  0.63981909550E+01  0.00000000000E+00 0.  1.
</event>
<event>
 7    1  0.4836188E-013  0.5052886E+02  0.7816164E-02  0.1300439E+00
        -11   -1    0    0    0    0  0.00000000000E+00  0.00000000000E+00  0.45593999997E+02  0.45594000000E+02  0.51100000000E-03 0. -1.
         11   -1    0    0    0    0 -0.00000000000E+00 -0.00000000000E+00 -0.45593999997E+02  0.45594000000E+02  0.51100000000E-03 0.  1.
    9900012    2    1    2    0    0  0.39031961957E+02  0.11367121385E+02  0.67817226100E+00  0.50528863015E+02  0.30000009620E+02 0.  0.
         12    1    1    2    0    0 -0.39031961957E+02 -0.11367121385E+02 -0.67817226100E+00  0.40659136985E+02  0.00000000000E+00 0. -1.
         11    1    3    3    0    0  0.72294243622E+01 -0.28038085463E+01  0.47287753841E+01  0.90822483927E+01  0.51100000000E-03 0. -1.
        -11    1    3    3    0    0  0.33519399594E+02  0.75719559994E+01 -0.25063779448E+01  0.34455284028E+02  0.51100000000E-03 0.  1.
        -12    1    3    3    0    0 -0.17168619991E+01  0.65989739317E+01 -0.15442251783E+01  0.69913305942E+01  0.00000000000E+00 0.  1.
</event>
<event>
 7    1  0.4836188E-013  0.5052883E+02  0.7816164E-02  0.1300439E+00
        -11   -1    0    0    0    0  0.00000000000E+00  0.00000000000E+00  0.45593999997E+02  0.45594000000E+02  0.51100000000E-03 0.  1.
         11   -1    0    0    0    0 -0.00000000000E+00 -0.00000000000E+00 -0.45593999997E+02  0.45594000000E+02  0.51100000000E-03 0. -1.
    9900012    2    1    2    0    0  0.35114856761E+02 -0.55539361980E+00  0.20489174439E+02  0.50528832563E+02  0.29999917060E+02 0.  0.
         12    1    1    2    0    0 -0.35114856761E+02  0.55539361980E+00 -0.20489174439E+02  0.40659167437E+02  0.00000000000E+00 0. -1.
         11    1    3    3    0    0 -0.38416387283E+01 -0.30216502281E+01  0.11943247676E+01  0.50313984271E+01  0.51100000000E-03 0. -1.
        -11    1    3    3    0    0  0.47530821268E+01  0.45871434162E+01  0.10964071283E+01  0.66959527535E+01  0.51100000000E-03 0.  1.
         12    1    3    3    0    0  0.34203413363E+02 -0.21208868079E+01  0.18198442543E+02  0.38801481383E+02  0.00000000000E+00 0. -1.
</event>
<event>
 7    1  0.4836188E-013  0.5052886E+02  0.7816164E-02  0.1300439E+00
        -11   -1    0    0    0    0  0.00000000000E+00  0.00000000000E+00  0.45593999997E+02  0.45594000000E+02  0.51100000000E-03 0.  1.
         11   -1    0    0    0    0 -0.00000000000E+00 -0.00000000000E+00 -0.45593999997E+02  0.45594000000E+02  0.51100000000E-03 0. -1.
    9900012    2    1    2    0    0  0.31404667130E+02  0.84187749273E+01  0.24413859254E+02  0.50528863112E+02  0.30000009915E+02 0.  0.
         12    1    1    2    0    0 -0.31404667130E+02 -0.84187749273E+01 -0.24413859254E+02  0.40659136888E+02  0.00000000000E+00 0. -1.
         11    1    3    3    0    0  0.55709121531E+01  0.97877659895E+01  0.11128429566E+02  0.15832794136E+02  0.51100000000E-03 0.  1.
        -11    1    3    3    0    0  0.22200931285E+02  0.47702982368E+01  0.15181103616E+02  0.27314886096E+02  0.51100000000E-03 0. -1.
         12    1    3    3    0    0  0.36328236920E+01 -0.61392892990E+01 -0.18956739276E+01  0.73811828804E+01  0.00000000000E+00 0. -1.
</event>
<event>
 7    1  0.4836188E-013  0.5052888E+02  0.7816164E-02  0.1300439E+00
        -11   -1    0    0    0    0  0.00000000000E+00  0.00000000000E+00  0.45593999997E+02  0.45594000000E+02  0.51100000000E-03 0. -1.
         11   -1    0    0    0    0 -0.00000000000E+00 -0.00000000000E+00 -0.45593999997E+02  0.45594000000E+02  0.51100000000E-03 0.  1.
    9900012    2    1    2    0    0 -0.23755786963E+02  0.31009651155E+02 -0.11279552474E+02  0.50528878232E+02  0.30000055873E+02 0.  0.
         12    1    1    2    0    0  0.23755786963E+02 -0.31009651155E+02  0.11279552474E+02  0.40659121768E+02  0.00000000000E+00 0. -1.
         11    1    3    3    0    0 -0.32269625948E+01  0.11534012298E+02 -0.34780391098E+01  0.12471707325E+02  0.51100000000E-03 0. -1.
        -11    1    3    3    0    0  0.29987286441E+01  0.28773559748E+01 -0.82751036988E+01  0.92600697823E+01  0.51100000000E-03 0.  1.
         12    1    3    3    0    0 -0.23527553012E+02  0.16598282882E+02  0.47359033497E+00  0.28797101125E+02  0.00000000000E+00 0. -1.
</event>
<event>
 7    1  0.4836188E-013  0.5052874E+02  0.7816164E-02  0.1300439E+00
        -11   -1    0    0    0    0  0.00000000000E+00  0.00000000000E+00  0.45593999997E+02  0.45594000000E+02  0.51100000000E-03 0.  1.
         11   -1    0    0    0    0 -0.00000000000E+00 -0.00000000000E+00 -0.45593999997E+02  0.45594000000E+02  0.51100000000E-03 0. -1.
    9900012    2    1    2    0    0  0.21177156043E+02  0.15208146192E+02  0.31199617779E+02  0.50528735395E+02  0.29999621703E+02 0.  0.
         12    1    1    2    0    0 -0.21177156043E+02 -0.15208146192E+02 -0.31199617779E+02  0.40659264605E+02  0.00000000000E+00 0. -1.
         11    1    3    3    0    0  0.26980711174E+01 -0.94937775813E+00  0.13356854034E+02  0.13659665289E+02  0.51100000000E-03 0. -1.
        -11    1    3    3    0    0  0.22319549278E+02  0.15587770498E+02  0.18522450780E+02  0.32927527272E+02  0.51100000000E-03 0.  1.
         12    1    3    3    0    0 -0.38404643526E+01  0.56975345230E+00 -0.67968703446E+00  0.39415428330E+01  0.00000000000E+00 0. -1.
</event>
<event>
 7    1  0.5667872E-013  0.5052887E+02  0.7816164E-02  0.1300439E+00
        -11   -1    0    0    0    0  0.00000000000E+00  0.00000000000E+00  0.45593999997E+02  0.45594000000E+02  0.51100000000E-03 0.  1.
         11   -1    0    0    0    0 -0.00000000000E+00 -0.00000000000E+00 -0.45593999997E+02  0.45594000000E+02  0.51100000000E-03 0. -1.
    9900012    2    1    2    0    0 -0.75592297917E+01  0.36258487605E+02  0.16773348844E+02  0.50528866833E+02  0.30000021226E+02 0.  0.
         12    1    1    2    0    0  0.75592297917E+01 -0.36258487605E+02 -0.16773348844E+02  0.40659133167E+02  0.00000000000E+00 0. -1.
         11    1    3    3    0    0 -0.21603002419E+01  0.72189111754E+01 -0.57778350422E+01  0.94954175121E+01  0.51100000000E-03 0. -1.
        -11    1    3    3    0    0 -0.96451632759E+01  0.23422890830E+02  0.11246817704E+02  0.27715553362E+02  0.51100000000E-03 0.  1.
         12    1    3    3    0    0  0.42462337260E+01  0.56166855992E+01  0.11304366183E+02  0.13317895959E+02  0.00000000000E+00 0. -1.
</event>
<event>
 7    1  0.4836188E-013  0.5052886E+02  0.7816164E-02  0.1300439E+00
        -11   -1    0    0    0    0  0.00000000000E+00  0.00000000000E+00  0.45593999997E+02  0.45594000000E+02  0.51100000000E-03 0. -1.
         11   -1    0    0    0    0 -0.00000000000E+00 -0.00000000000E+00 -0.45593999997E+02  0.45594000000E+02  0.51100000000E-03 0.  1.
    9900012    2    1    2    0    0  0.38034057851E+02  0.13357116427E+02  0.53069368789E+01  0.50528859639E+02  0.29999999358E+02 0.  0.
         12    1    1    2    0    0 -0.38034057851E+02 -0.13357116427E+02 -0.53069368789E+01  0.40659140361E+02  0.00000000000E+00 0. -1.
         11    1    3    3    0    0  0.15054483041E+02 -0.79316055391E+01  0.21154908287E+01  0.17147102605E+02  0.51100000000E-03 0. -1.
        -11    1    3    3    0    0  0.10825337546E+02  0.33327614664E+01  0.29209355956E+01  0.11697311529E+02  0.51100000000E-03 0.  1.
        -12    1    3    3    0    0  0.12154237264E+02  0.17955960500E+02  0.27051045452E+00  0.21684445505E+02  0.00000000000E+00 0.  1.
</event>
<event>
 7    1  0.4836188E-013  0.5052887E+02  0.7816164E-02  0.1300439E+00
        -11   -1    0    0    0    0  0.00000000000E+00  0.00000000000E+00  0.45593999997E+02  0.45594000000E+02  0.51100000000E-03 0.  1.
         11   -1    0    0    0    0 -0.00000000000E+00 -0.00000000000E+00 -0.45593999997E+02  0.45594000000E+02  0.51100000000E-03 0. -1.
    9900012    2    1    2    0    0 -0.10008251727E+01 -0.10061234179E+01  0.40634357864E+02  0.50528868500E+02  0.30000026292E+02 0.  0.
         12    1    1    2    0    0  0.10008251727E+01  0.10061234179E+01 -0.40634357864E+02  0.40659131500E+02  0.00000000000E+00 0. -1.
         11    1    3    3    0    0 -0.95927425951E+01 -0.45645888109E+01  0.21436430317E+02  0.23924396053E+02  0.51100000000E-03 0. -1.
        -11    1    3    3    0    0  0.65960748508E+01  0.51707820154E-01  0.21126496832E+02  0.22132323552E+02  0.51100000000E-03 0.  1.
         12    1    3    3    0    0  0.19958425716E+01  0.35067575728E+01 -0.19285692858E+01  0.44721488945E+01  0.00000000000E+00 0. -1.
</event>
<event>
 7    1  0.4836188E-013  0.5052887E+02  0.7816164E-02  0.1300439E+00
        -11   -1    0    0    0    0  0.00000000000E+00  0.00000000000E+00  0.45593999997E+02  0.45594000000E+02  0.51100000000E-03 0.  1.
         11   -1    0    0    0    0 -0.00000000000E+00 -0.00000000000E+00 -0.45593999997E+02  0.45594000000E+02  0.51100000000E-03 0. -1.
    9900012    2    1    2    0    0 -0.29883525490E+02  0.17545449452E+02  0.21267272676E+02  0.50528870899E+02  0.30000033583E+02 0.  0.
         12    1    1    2    0    0  0.29883525490E+02 -0.17545449452E+02 -0.21267272676E+02  0.40659129101E+02  0.00000000000E+00 0. -1.
         11    1    3    3    0    0 -0.55141218232E+01  0.10571549245E+02  0.85973664756E+01  0.14699588548E+02  0.51100000000E-03 0. -1.
        -11    1    3    3    0    0 -0.23396324553E+02  0.10292643568E+02  0.16689619082E+02  0.30526544180E+02  0.51100000000E-03 0.  1.
        -12    1    3    3    0    0 -0.97307911406E+00 -0.33187433605E+01 -0.40197128814E+01  0.53027381704E+01  0.00000000000E+00 0.  1.
</event>
<event>
 7    1  0.4836188E-013  0.5052886E+02  0.7816164E-02  0.1300439E+00
        -11   -1    0    0    0    0  0.00000000000E+00  0.00000000000E+00  0.45593999997E+02  0.45594000000E+02  0.51100000000E-03 0.  1.
         11   -1    0    0    0    0 -0.00000000000E+00 -0.00000000000E+00 -0.45593999997E+02  0.45594000000E+02  0.51100000000E-03 0. -1.
    9900012    2    1    2    0    0 -0.23589862352E+02  0.25151707089E+02  0.21542412769E+02  0.50528861751E+02  0.30000005777E+02 0.  0.
         12    1    1    2    0    0  0.23589862352E+02 -0.25151707089E+02 -0.21542412769E+02  0.40659138249E+02  0.00000000000E+00 0. -1.
         11    1    3    3    0    0 -0.16785603340E+02  0.73108790948E+01  0.19204102204E+02  0.26533054372E+02  0.51100000000E-03 0. -1.
        -11    1    3    3    0    0 -0.82777025264E+01  0.55663964017E+01 -0.31626905354E+01  0.10464594579E+02  0.51100000000E-03 0.  1.
        -12    1    3    3    0    0  0.14734435143E+01  0.12274431592E+02  0.55010011006E+01  0.13531212799E+02  0.00000000000E+00 0.  1.
</event>
<event>
 7    1  0.4836188E-013  0.5052887E+02  0.7816164E-02  0.1300439E+00
        -11   -1    0    0    0    0  0.00000000000E+00  0.00000000000E+00  0.45593999997E+02  0.45594000000E+02  0.51100000000E-03 0.  1.
         11   -1    0    0    0    0 -0.00000000000E+00 -0.00000000000E+00 -0.45593999997E+02  0.45594000000E+02  0.51100000000E-03 0. -1.
    9900012    2    1    2    0    0 -0.43431103772E+00 -0.40474075797E+02  0.38504100621E+01  0.50528867012E+02  0.30000021769E+02 0.  0.
         12    1    1    2    0    0  0.43431103772E+00  0.40474075797E+02 -0.38504100621E+01  0.40659132988E+02  0.00000000000E+00 0. -1.
         11    1    3    3    0    0  0.58078966209E+01 -0.34226305286E+01 -0.10298293321E+01  0.68195756179E+01  0.51100000000E-03 0. -1.
        -11    1    3    3    0    0 -0.60214808643E+00 -0.35355534563E+02  0.90411700113E+01  0.36498207654E+02  0.51100000000E-03 0.  1.
         12    1    3    3    0    0 -0.56400595722E+01 -0.16959107059E+01 -0.41609306172E+01  0.72110837397E+01  0.00000000000E+00 0. -1.
</event>
<event>
 7    1  0.4836188E-013  0.5052885E+02  0.7816164E-02  0.1300439E+00
        -11   -1    0    0    0    0  0.00000000000E+00  0.00000000000E+00  0.45593999997E+02  0.45594000000E+02  0.51100000000E-03 0.  1.
         11   -1    0    0    0    0 -0.00000000000E+00 -0.00000000000E+00 -0.45593999997E+02  0.45594000000E+02  0.51100000000E-03 0. -1.
    9900012    2    1    2    0    0 -0.88022199517E+01 -0.24825505565E+02  0.30973881366E+02  0.50528854294E+02  0.29999983113E+02 0.  0.
         12    1    1    2    0    0  0.88022199517E+01  0.24825505565E+02 -0.30973881366E+02  0.40659145706E+02  0.00000000000E+00 0. -1.
         11    1    3    3    0    0 -0.57721335887E+01 -0.19836612095E+02  0.13253570282E+02  0.24545179386E+02  0.51100000000E-03 0. -1.
        -11    1    3    3    0    0 -0.21801284477E+01 -0.17373003768E+01 -0.35137624117E+01  0.44852758215E+01  0.51100000000E-03 0.  1.
        -12    1    3    3    0    0 -0.84995791541E+00 -0.32515930926E+01  0.21234073496E+02  0.21498399087E+02  0.00000000000E+00 0.  1.
</event>
<event>
 7    1  0.4836188E-013  0.5052887E+02  0.7816164E-02  0.1300439E+00
        -11   -1    0    0    0    0  0.00000000000E+00  0.00000000000E+00  0.45593999997E+02  0.45594000000E+02  0.51100000000E-03 0.  1.
         11   -1    0    0    0    0 -0.00000000000E+00 -0.00000000000E+00 -0.45593999997E+02  0.45594000000E+02  0.51100000000E-03 0. -1.
    9900012    2    1    2    0    0  0.32702710403E+02 -0.24789394366E+01  0.24032325299E+02  0.50528867352E+02  0.30000022803E+02 0.  0.
         12    1    1    2    0    0 -0.32702710403E+02  0.24789394366E+01 -0.24032325299E+02  0.40659132648E+02  0.00000000000E+00 0. -1.
         11    1    3    3    0    0  0.27779186315E+01 -0.10111088540E+02  0.13032164095E+02  0.16726871933E+02  0.51100000000E-03 0. -1.
        -11    1    3    3    0    0  0.67702977833E+01 -0.15118968833E+01  0.11612821775E+01  0.70335866254E+01  0.51100000000E-03 0.  1.
        -12    1    3    3    0    0  0.23154493988E+02  0.91440459871E+01  0.98388790267E+01  0.26768408794E+02  0.00000000000E+00 0.  1.
</event>
<event>
 7    1  0.4836188E-013  0.5052886E+02  0.7816164E-02  0.1300439E+00
        -11   -1    0    0    0    0  0.00000000000E+00  0.00000000000E+00  0.45593999997E+02  0.45594000000E+02  0.51100000000E-03 0.  1.
         11   -1    0    0    0    0 -0.00000000000E+00 -0.00000000000E+00 -0.45593999997E+02  0.45594000000E+02  0.51100000000E-03 0. -1.
    9900012    2    1    2    0    0  0.37706380305E+02 -0.14778113036E+02 -0.36058601237E+01  0.50528856282E+02  0.29999989156E+02 0.  0.
         12    1    1    2    0    0 -0.37706380305E+02  0.14778113036E+02  0.36058601237E+01  0.40659143718E+02  0.00000000000E+00 0. -1.
         11    1    3    3    0    0 -0.19790629510E+01 -0.26792464782E+01  0.17561095298E+01  0.37654976825E+01  0.51100000000E-03 0. -1.
        -11    1    3    3    0    0  0.10738859883E+02 -0.12701049144E+02 -0.63249176895E+01  0.17794503224E+02  0.51100000000E-03 0.  1.
        -12    1    3    3    0    0  0.28946583374E+02  0.60218258677E+00  0.96294803598E+00  0.28968855376E+02  0.00000000000E+00 0.  1.
</event>
<event>
 7    1  0.4836188E-013  0.5052886E+02  0.7816164E-02  0.1300439E+00
        -11   -1    0    0    0    0  0.00000000000E+00  0.00000000000E+00  0.45593999997E+02  0.45594000000E+02  0.51100000000E-03 0.  1.
         11   -1    0    0    0    0 -0.00000000000E+00 -0.00000000000E+00 -0.45593999997E+02  0.45594000000E+02  0.51100000000E-03 0. -1.
    9900012    2    1    2    0    0 -0.40517491981E+01 -0.37565519026E+02  0.15019349397E+02  0.50528858991E+02  0.29999997388E+02 0.  0.
         12    1    1    2    0    0  0.40517491981E+01  0.37565519026E+02 -0.15019349397E+02  0.40659141009E+02  0.00000000000E+00 0. -1.
         11    1    3    3    0    0 -0.82106061542E+01 -0.22090025030E+01  0.16348183336E+01  0.86583125794E+01  0.51100000000E-03 0. -1.
        -11    1    3    3    0    0  0.52605368730E+01 -0.27903247759E+02  0.23267271500E+01  0.28489965657E+02  0.51100000000E-03 0.  1.
         12    1    3    3    0    0 -0.11016799169E+01 -0.74532687649E+01  0.11057803914E+02  0.13380580754E+02  0.00000000000E+00 0. -1.
</event>
<event>
 7    1  0.4836188E-013  0.5052885E+02  0.7816164E-02  0.1300439E+00
        -11   -1    0    0    0    0  0.00000000000E+00  0.00000000000E+00  0.45593999997E+02  0.45594000000E+02  0.51100000000E-03 0. -1.
         11   -1    0    0    0    0 -0.00000000000E+00 -0.00000000000E+00 -0.45593999997E+02  0.45594000000E+02  0.51100000000E-03 0.  1.
    9900012    2    1    2    0    0 -0.29558726752E+02 -0.21587344113E+02 -0.17704080344E+02  0.50528853257E+02  0.29999979959E+02 0.  0.
         12    1    1    2    0    0  0.29558726752E+02  0.21587344113E+02  0.17704080344E+02  0.40659146743E+02  0.00000000000E+00 0. -1.
         11    1    3    3    0    0  0.10687648296E+01  0.32947866799E+01 -0.69313903489E+01  0.77486805301E+01  0.51100000000E-03 0. -1.
        -11    1    3    3    0    0 -0.13493461809E+02 -0.18349358006E+02 -0.34564979194E+01  0.23037357248E+02  0.51100000000E-03 0.  1.
        -12    1    3    3    0    0 -0.17134029773E+02 -0.65327727870E+01 -0.73161920752E+01  0.19742815479E+02  0.00000000000E+00 0.  1.
</event>
<event>
 7    1  0.4836188E-013  0.5052887E+02  0.7816164E-02  0.1300439E+00
        -11   -1    0    0    0    0  0.00000000000E+00  0.00000000000E+00  0.45593999997E+02  0.45594000000E+02  0.51100000000E-03 0. -1.
         11   -1    0    0    0    0 -0.00000000000E+00 -0.00000000000E+00 -0.45593999997E+02  0.45594000000E+02  0.51100000000E-03 0.  1.
    9900012    2    1    2    0    0  0.26635438491E+01  0.35935261377E+02 -0.18834207693E+02  0.50528869961E+02  0.30000030734E+02 0.  0.
         12    1    1    2    0    0 -0.26635438491E+01 -0.35935261377E+02  0.18834207693E+02  0.40659130039E+02  0.00000000000E+00 0. -1.
         11    1    3    3    0    0  0.83686588888E+01  0.45934607912E+01  0.47447979908E+00  0.95582145287E+01  0.51100000000E-03 0. -1.
        -11    1    3    3    0    0  0.93288443841E+00  0.18435046525E+02 -0.18947610523E+02  0.26452469801E+02  0.51100000000E-03 0.  1.
         12    1    3    3    0    0 -0.66379994781E+01  0.12906754061E+02 -0.36107696887E+00  0.14518185632E+02  0.00000000000E+00 0. -1.
</event>
<event>
 7    1  0.4836188E-013  0.5052886E+02  0.7816164E-02  0.1300439E+00
        -11   -1    0    0    0    0  0.00000000000E+00  0.00000000000E+00  0.45593999997E+02  0.45594000000E+02  0.51100000000E-03 0.  1.
         11   -1    0    0    0    0 -0.00000000000E+00 -0.00000000000E+00 -0.45593999997E+02  0.45594000000E+02  0.51100000000E-03 0. -1.
    9900012    2    1    2    0    0  0.93626100249E+01  0.54082032616E+01  0.39195138291E+02  0.50528855952E+02  0.29999988153E+02 0.  0.
         12    1    1    2    0    0 -0.93626100249E+01 -0.54082032616E+01 -0.39195138291E+02  0.40659144048E+02  0.00000000000E+00 0. -1.
         11    1    3    3    0    0 -0.19645472104E+01 -0.22591064382E+01 -0.31048615499E+00  0.30098853059E+01  0.51100000000E-03 0. -1.
        -11    1    3    3    0    0  0.88310048929E+01  0.13626246835E+02  0.14758864659E+02  0.21942774129E+02  0.51100000000E-03 0.  1.
         12    1    3    3    0    0  0.24961523425E+01 -0.59589371348E+01  0.24746759788E+02  0.25576196517E+02  0.00000000000E+00 0. -1.
</event>
<event>
 7    1  0.4836188E-013  0.5052885E+02  0.7816164E-02  0.1300439E+00
        -11   -1    0    0    0    0  0.00000000000E+00  0.00000000000E+00  0.45593999997E+02  0.45594000000E+02  0.51100000000E-03 0. -1.
         11   -1    0    0    0    0 -0.00000000000E+00 -0.00000000000E+00 -0.45593999997E+02  0.45594000000E+02  0.51100000000E-03 0.  1.
    9900012    2    1    2    0    0  0.25859698366E+02 -0.24184023710E+02 -0.19989379354E+02  0.50528852328E+02  0.29999977137E+02 0.  0.
         12    1    1    2    0    0 -0.25859698366E+02  0.24184023710E+02  0.19989379354E+02  0.40659147672E+02  0.00000000000E+00 0. -1.
         11    1    3    3    0    0 -0.86526701172E+00 -0.57180220680E+01 -0.12238745483E+02  0.13536297671E+02  0.51100000000E-03 0. -1.
        -11    1    3    3    0    0  0.14754906022E+02 -0.84308683128E+01 -0.12001517379E+02  0.20804403666E+02  0.51100000000E-03 0.  1.
        -12    1    3    3    0    0  0.11970059356E+02 -0.10035133330E+02  0.42508835083E+01  0.16188150992E+02  0.00000000000E+00 0.  1.
</event>
<event>
 7    1  0.4836188E-013  0.5052886E+02  0.7816164E-02  0.1300439E+00
        -11   -1    0    0    0    0  0.00000000000E+00  0.00000000000E+00  0.45593999997E+02  0.45594000000E+02  0.51100000000E-03 0.  1.
         11   -1    0    0    0    0 -0.00000000000E+00 -0.00000000000E+00 -0.45593999997E+02  0.45594000000E+02  0.51100000000E-03 0. -1.
    9900012    2    1    2    0    0  0.30157376516E+02  0.50625400619E+01  0.26796805273E+02  0.50528862736E+02  0.30000008774E+02 0.  0.
         12    1    1    2    0    0 -0.30157376516E+02 -0.50625400619E+01 -0.26796805273E+02  0.40659137264E+02  0.00000000000E+00 0. -1.
         11    1    3    3    0    0  0.76652193452E+01 -0.72039890540E+00  0.97903398509E+00  0.77609967142E+01  0.51100000000E-03 0. -1.
        -11    1    3    3    0    0  0.26003851058E+02  0.89333553965E+01  0.26270810932E+02  0.38028418528E+02  0.51100000000E-03 0.  1.
         12    1    3    3    0    0 -0.35116938869E+01 -0.31504164292E+01 -0.45303964410E+00  0.47394474943E+01  0.00000000000E+00 0. -1.
</event>
<event>
 7    1  0.4836188E-013  0.5052885E+02  0.7816164E-02  0.1300439E+00
        -11   -1    0    0    0    0  0.00000000000E+00  0.00000000000E+00  0.45593999997E+02  0.45594000000E+02  0.51100000000E-03 0.  1.
         11   -1    0    0    0    0 -0.00000000000E+00 -0.00000000000E+00 -0.45593999997E+02  0.45594000000E+02  0.51100000000E-03 0. -1.
    9900012    2    1    2    0    0 -0.23240593503E+02  0.16172970170E+02  0.29180063251E+02  0.50528852913E+02  0.29999978915E+02 0.  0.
         12    1    1    2    0    0  0.23240593503E+02 -0.16172970170E+02 -0.29180063251E+02  0.40659147087E+02  0.00000000000E+00 0. -1.
         11    1    3    3    0    0 -0.77488521434E+01  0.60783301980E+01  0.81572374547E+01  0.12787936921E+02  0.51100000000E-03 0. -1.
        -11    1    3    3    0    0 -0.19899030120E+02  0.14870635757E+02  0.16446964164E+02  0.29792781643E+02  0.51100000000E-03 0.  1.
         12    1    3    3    0    0  0.44072887605E+01 -0.47759957852E+01  0.45758616325E+01  0.79481343495E+01  0.00000000000E+00 0. -1.
</event>
<event>
 7    1  0.4836188E-013  0.5052886E+02  0.7816164E-02  0.1300439E+00
        -11   -1    0    0    0    0  0.00000000000E+00  0.00000000000E+00  0.45593999997E+02  0.45594000000E+02  0.51100000000E-03 0.  1.
         11   -1    0    0    0    0 -0.00000000000E+00 -0.00000000000E+00 -0.45593999997E+02  0.45594000000E+02  0.51100000000E-03 0. -1.
    9900012    2    1    2    0    0  0.13833362094E+02  0.44170213706E+01  0.37977542300E+02  0.50528859530E+02  0.29999999028E+02 0.  0.
         12    1    1    2    0    0 -0.13833362094E+02 -0.44170213706E+01 -0.37977542300E+02  0.40659140470E+02  0.00000000000E+00 0. -1.
         11    1    3    3    0    0 -0.20623569990E+01 -0.57589092793E+01  0.83361563722E+00  0.61735943964E+01  0.51100000000E-03 0. -1.
        -11    1    3    3    0    0 -0.25365938283E+01  0.38010041553E+01  0.92745784948E+01  0.10339233403E+02  0.51100000000E-03 0.  1.
        -12    1    3    3    0    0  0.18432312922E+02  0.63749264946E+01  0.27869348168E+02  0.34016031731E+02  0.00000000000E+00 0.  1.
</event>
<event>
 7    1  0.4836188E-013  0.5052886E+02  0.7816164E-02  0.1300439E+00
        -11   -1    0    0    0    0  0.00000000000E+00  0.00000000000E+00  0.45593999997E+02  0.45594000000E+02  0.51100000000E-03 0.  1.
         11   -1    0    0    0    0 -0.00000000000E+00 -0.00000000000E+00 -0.45593999997E+02  0.45594000000E+02  0.51100000000E-03 0. -1.
    9900012    2    1    2    0    0  0.29863333417E+01 -0.30481723213E+02  0.26741585739E+02  0.50528855337E+02  0.29999986283E+02 0.  0.
         12    1    1    2    0    0 -0.29863333417E+01  0.30481723213E+02 -0.26741585739E+02  0.40659144663E+02  0.00000000000E+00 0. -1.
         11    1    3    3    0    0  0.48770915924E+01  0.83621632850E+00  0.41758976471E+01  0.64748283042E+01  0.51100000000E-03 0. -1.
        -11    1    3    3    0    0  0.74801084030E+01 -0.15207817106E+02  0.18285219087E+02  0.24931485319E+02  0.51100000000E-03 0.  1.
        -12    1    3    3    0    0 -0.93708666537E+01 -0.16110122435E+02  0.42804690045E+01  0.19122541715E+02  0.00000000000E+00 0.  1.
</event>
<event>
 7    1  0.4836188E-013  0.5052887E+02  0.7816164E-02  0.1300439E+00
        -11   -1    0    0    0    0  0.00000000000E+00  0.00000000000E+00  0.45593999997E+02  0.45594000000E+02  0.51100000000E-03 0.  1.
         11   -1    0    0    0    0 -0.00000000000E+00 -0.00000000000E+00 -0.45593999997E+02  0.45594000000E+02  0.51100000000E-03 0. -1.
    9900012    2    1    2    0    0  0.10410628857E+02  0.26762274261E+02  0.28784796179E+02  0.50528868088E+02  0.30000025039E+02 0.  0.
         12    1    1    2    0    0 -0.10410628857E+02 -0.26762274261E+02 -0.28784796179E+02  0.40659131912E+02  0.00000000000E+00 0. -1.
         11    1    3    3    0    0  0.37056095943E+01  0.19775544946E+02  0.51344011918E+01  0.20764532170E+02  0.51100000000E-03 0. -1.
        -11    1    3    3    0    0  0.25553841791E+01 -0.46012103217E+01  0.41421018373E+01  0.66976214150E+01  0.51100000000E-03 0.  1.
        -12    1    3    3    0    0  0.41496350839E+01  0.11587939637E+02  0.19508293150E+02  0.23066714503E+02  0.00000000000E+00 0.  1.
</event>
<event>
 7    1  0.4836188E-013  0.5052886E+02  0.7816164E-02  0.1300439E+00
        -11   -1    0    0    0    0  0.00000000000E+00  0.00000000000E+00  0.45593999997E+02  0.45594000000E+02  0.51100000000E-03 0.  1.
         11   -1    0    0    0    0 -0.00000000000E+00 -0.00000000000E+00 -0.45593999997E+02  0.45594000000E+02  0.51100000000E-03 0. -1.
    9900012    2    1    2    0    0 -0.20457750723E+02 -0.33979906107E+02 -0.89449691264E+01  0.50528855194E+02  0.29999985847E+02 0.  0.
         12    1    1    2    0    0  0.20457750723E+02  0.33979906107E+02  0.89449691264E+01  0.40659144806E+02  0.00000000000E+00 0. -1.
         11    1    3    3    0    0 -0.89937946068E+01 -0.33327884340E+01 -0.54480547661E+01  0.11030735296E+02  0.51100000000E-03 0. -1.
        -11    1    3    3    0    0  0.35353320476E+01 -0.10671064859E+02 -0.84099598513E+01  0.14039146088E+02  0.51100000000E-03 0.  1.
        -12    1    3    3    0    0 -0.14999288164E+02 -0.19976052814E+02  0.49130454910E+01  0.25458973810E+02  0.00000000000E+00 0.  1.
</event>
<event>
 7    1  0.4836188E-013  0.5052885E+02  0.7816164E-02  0.1300439E+00
        -11   -1    0    0    0    0  0.00000000000E+00  0.00000000000E+00  0.45593999997E+02  0.45594000000E+02  0.51100000000E-03 0.  1.
         11   -1    0    0    0    0 -0.00000000000E+00 -0.00000000000E+00 -0.45593999997E+02  0.45594000000E+02  0.51100000000E-03 0. -1.
    9900012    2    1    2    0    0 -0.15565642795E+01 -0.17855029543E+02  0.36495768885E+02  0.50528854425E+02  0.29999983511E+02 0.  0.
         12    1    1    2    0    0  0.15565642795E+01  0.17855029543E+02 -0.36495768885E+02  0.40659145575E+02  0.00000000000E+00 0. -1.
         11    1    3    3    0    0 -0.57540500396E+01  0.35158640089E+01  0.11348659249E+02  0.13200850677E+02  0.51100000000E-03 0. -1.
        -11    1    3    3    0    0 -0.66007316319E+01 -0.76638869731E+01  0.99553641001E+01  0.14192043413E+02  0.51100000000E-03 0.  1.
         12    1    3    3    0    0  0.10798217392E+02 -0.13707006579E+02  0.15191745536E+02  0.23135960335E+02  0.00000000000E+00 0. -1.
</event>
<event>
 7    1  0.4836188E-013  0.5052885E+02  0.7816164E-02  0.1300439E+00
        -11   -1    0    0    0    0  0.00000000000E+00  0.00000000000E+00  0.45593999997E+02  0.45594000000E+02  0.51100000000E-03 0. -1.
         11   -1    0    0    0    0 -0.00000000000E+00 -0.00000000000E+00 -0.45593999997E+02  0.45594000000E+02  0.51100000000E-03 0.  1.
    9900012    2    1    2    0    0 -0.11930492350E+02 -0.10836583088E+01 -0.38854288114E+02  0.50528847674E+02  0.29999962990E+02 0.  0.
         12    1    1    2    0    0  0.11930492350E+02  0.10836583088E+01  0.38854288114E+02  0.40659152326E+02  0.00000000000E+00 0. -1.
         11    1    3    3    0    0 -0.72307456398E+01 -0.10425223725E+02 -0.24998183365E+02  0.28033518224E+02  0.51100000000E-03 0.  1.
        -11    1    3    3    0    0  0.47770779685E+01  0.17151983787E+01 -0.66184416603E+01  0.83406324500E+01  0.51100000000E-03 0. -1.
         12    1    3    3    0    0 -0.94768246784E+01  0.76263670377E+01 -0.72376630888E+01  0.14154697000E+02  0.00000000000E+00 0. -1.
</event>
<event>
 7    1  0.4836188E-013  0.5052887E+02  0.7816164E-02  0.1300439E+00
        -11   -1    0    0    0    0  0.00000000000E+00  0.00000000000E+00  0.45593999997E+02  0.45594000000E+02  0.51100000000E-03 0. -1.
         11   -1    0    0    0    0 -0.00000000000E+00 -0.00000000000E+00 -0.45593999997E+02  0.45594000000E+02  0.51100000000E-03 0.  1.
    9900012    2    1    2    0    0 -0.24544106352E+02  0.28769582265E+02  0.14935301316E+02  0.50528865163E+02  0.30000016149E+02 0.  0.
         12    1    1    2    0    0  0.24544106352E+02 -0.28769582265E+02 -0.14935301316E+02  0.40659134837E+02  0.00000000000E+00 0. -1.
         11    1    3    3    0    0 -0.12702302457E+02  0.11076271575E+02  0.17861781411E+02  0.24557595875E+02  0.51100000000E-03 0. -1.
        -11    1    3    3    0    0 -0.76114171339E+01  0.14922132951E+02  0.41649808989E+01  0.17261251077E+02  0.51100000000E-03 0.  1.
        -12    1    3    3    0    0 -0.42303867606E+01  0.27711777388E+01 -0.70914609940E+01  0.87100182109E+01  0.00000000000E+00 0.  1.
</event>
<event>
 7    1  0.4836188E-013  0.5052886E+02  0.7816164E-02  0.1300439E+00
        -11   -1    0    0    0    0  0.00000000000E+00  0.00000000000E+00  0.45593999997E+02  0.45594000000E+02  0.51100000000E-03 0.  1.
         11   -1    0    0    0    0 -0.00000000000E+00 -0.00000000000E+00 -0.45593999997E+02  0.45594000000E+02  0.51100000000E-03 0. -1.
    9900012    2    1    2    0    0 -0.27912313981E+02 -0.19533659640E+02  0.22192442078E+02  0.50528860608E+02  0.30000002305E+02 0.  0.
         12    1    1    2    0    0  0.27912313981E+02  0.19533659640E+02 -0.22192442078E+02  0.40659139392E+02  0.00000000000E+00 0. -1.
         11    1    3    3    0    0 -0.75163376137E+01 -0.88171485914E+01 -0.27887115287E+01  0.11916977497E+02  0.51100000000E-03 0. -1.
        -11    1    3    3    0    0  0.13430594153E+01  0.30607259439E+01  0.11466027053E+01  0.35336312657E+01  0.51100000000E-03 0.  1.
        -12    1    3    3    0    0 -0.21739035782E+02 -0.13777236993E+02  0.23834550901E+02  0.35078251846E+02  0.00000000000E+00 0.  1.
</event>
<event>
 7    1  0.4836188E-013  0.5052886E+02  0.7816164E-02  0.1300439E+00
        -11   -1    0    0    0    0  0.00000000000E+00  0.00000000000E+00  0.45593999997E+02  0.45594000000E+02  0.51100000000E-03 0.  1.
         11   -1    0    0    0    0 -0.00000000000E+00 -0.00000000000E+00 -0.45593999997E+02  0.45594000000E+02  0.51100000000E-03 0. -1.
    9900012    2    1    2    0    0 -0.47480006451E+01  0.14787784102E+02  0.37575839794E+02  0.50528858285E+02  0.29999995244E+02 0.  0.
         12    1    1    2    0    0  0.47480006451E+01 -0.14787784102E+02 -0.37575839794E+02  0.40659141715E+02  0.00000000000E+00 0. -1.
         11    1    3    3    0    0 -0.89560749583E+01 -0.10460065935E+01  0.10736174237E+02  0.14020372533E+02  0.51100000000E-03 0.  1.
        -11    1    3    3    0    0 -0.16765063794E+01  0.53455705173E+00 -0.24068957368E+01  0.29815385677E+01  0.51100000000E-03 0. -1.
         12    1    3    3    0    0  0.58845806927E+01  0.15299233643E+02  0.29246561294E+02  0.33526947185E+02  0.00000000000E+00 0. -1.
</event>
<event>
 7    1  0.4836188E-013  0.5052885E+02  0.7816164E-02  0.1300439E+00
        -11   -1    0    0    0    0  0.00000000000E+00  0.00000000000E+00  0.45593999997E+02  0.45594000000E+02  0.51100000000E-03 0.  1.
         11   -1    0    0    0    0 -0.00000000000E+00 -0.00000000000E+00 -0.45593999997E+02  0.45594000000E+02  0.51100000000E-03 0. -1.
    9900012    2    1    2    0    0 -0.24929423437E+02 -0.11374563545E+02  0.30038462903E+02  0.50528854628E+02  0.29999984129E+02 0.  0.
         12    1    1    2    0    0  0.24929423437E+02  0.11374563545E+02 -0.30038462903E+02  0.40659145372E+02  0.00000000000E+00 0. -1.
         11    1    3    3    0    0 -0.16857006608E+02 -0.11452875311E+01  0.50375099232E+01  0.17630849718E+02  0.51100000000E-03 0.  1.
        -11    1    3    3    0    0 -0.64101632828E+00  0.41765954574E+01  0.17942620101E+01  0.45906674863E+01  0.51100000000E-03 0. -1.
         12    1    3    3    0    0 -0.74314005014E+01 -0.14405871471E+02  0.23206690970E+02  0.28307337424E+02  0.00000000000E+00 0. -1.
</event>
<event>
 7    1  0.4836188E-013  0.5052885E+02  0.7816164E-02  0.1300439E+00
        -11   -1    0    0    0    0  0.00000000000E+00  0.00000000000E+00  0.45593999997E+02  0.45594000000E+02  0.51100000000E-03 0.  1.
         11   -1    0    0    0    0 -0.00000000000E+00 -0.00000000000E+00 -0.45593999997E+02  0.45594000000E+02  0.51100000000E-03 0. -1.
    9900012    2    1    2    0    0  0.10039595096E+02 -0.26805265504E+02  0.28876470127E+02  0.50528852745E+02  0.29999978405E+02 0.  0.
         12    1    1    2    0    0 -0.10039595096E+02  0.26805265504E+02 -0.28876470127E+02  0.40659147255E+02  0.00000000000E+00 0. -1.
         11    1    3    3    0    0  0.29775538488E+01 -0.18655969922E+02  0.40002558525E+01  0.19310957713E+02  0.51100000000E-03 0. -1.
        -11    1    3    3    0    0 -0.22593430605E+01 -0.87191643820E+01  0.15847141335E+02  0.18228009967E+02  0.51100000000E-03 0.  1.
         12    1    3    3    0    0  0.93213843080E+01  0.56986879984E+00  0.90290729396E+01  0.12989885065E+02  0.00000000000E+00 0. -1.
</event>
<event>
 7    1  0.4836188E-013  0.5052885E+02  0.7816164E-02  0.1300439E+00
        -11   -1    0    0    0    0  0.00000000000E+00  0.00000000000E+00  0.45593999997E+02  0.45594000000E+02  0.51100000000E-03 0. -1.
         11   -1    0    0    0    0 -0.00000000000E+00 -0.00000000000E+00 -0.45593999997E+02  0.45594000000E+02  0.51100000000E-03 0.  1.
    9900012    2    1    2    0    0 -0.22696817070E+02  0.77754198699E+01 -0.32826262023E+02  0.50528854194E+02  0.29999982809E+02 0.  0.
         12    1    1    2    0    0  0.22696817070E+02 -0.77754198699E+01  0.32826262023E+02  0.40659145806E+02  0.00000000000E+00 0. -1.
         11    1    3    3    0    0 -0.26349572359E+02  0.82458721638E+01 -0.25684831978E+02  0.37709481106E+02  0.51100000000E-03 0. -1.
        -11    1    3    3    0    0 -0.26354083166E+01 -0.23221307648E+01 -0.60871549367E+00  0.35648566728E+01  0.51100000000E-03 0.  1.
         12    1    3    3    0    0  0.62881636057E+01  0.18516784709E+01 -0.65327145504E+01  0.92545164157E+01  0.00000000000E+00 0. -1.
</event>
<event>
 7    1  0.4836188E-013  0.5052886E+02  0.7816164E-02  0.1300439E+00
        -11   -1    0    0    0    0  0.00000000000E+00  0.00000000000E+00  0.45593999997E+02  0.45594000000E+02  0.51100000000E-03 0.  1.
         11   -1    0    0    0    0 -0.00000000000E+00 -0.00000000000E+00 -0.45593999997E+02  0.45594000000E+02  0.51100000000E-03 0. -1.
    9900012    2    1    2    0    0  0.27636839619E+02  0.40699343015E+01  0.29543303646E+02  0.50528855153E+02  0.29999985724E+02 0.  0.
         12    1    1    2    0    0 -0.27636839619E+02 -0.40699343015E+01 -0.29543303646E+02  0.40659144847E+02  0.00000000000E+00 0. -1.
         11    1    3    3    0    0  0.16428315044E+02 -0.25451710806E+01  0.24970125349E+02  0.29997909781E+02  0.51100000000E-03 0. -1.
        -11    1    3    3    0    0  0.98433298603E+01  0.67022618569E+01  0.96158107672E+01  0.15306053499E+02  0.51100000000E-03 0.  1.
         12    1    3    3    0    0  0.13651947149E+01 -0.87156474733E-01 -0.50426324703E+01  0.52248918736E+01  0.00000000000E+00 0. -1.
</event>
<event>
 7    1  0.4836188E-013  0.5052887E+02  0.7816164E-02  0.1300439E+00
        -11   -1    0    0    0    0  0.00000000000E+00  0.00000000000E+00  0.45593999997E+02  0.45594000000E+02  0.51100000000E-03 0. -1.
         11   -1    0    0    0    0 -0.00000000000E+00 -0.00000000000E+00 -0.45593999997E+02  0.45594000000E+02  0.51100000000E-03 0.  1.
    9900012    2    1    2    0    0  0.29410047992E+02 -0.27591128009E+02 -0.51907526606E+01  0.50528865960E+02  0.30000018573E+02 0.  0.
         12    1    1    2    0    0 -0.29410047992E+02  0.27591128009E+02  0.51907526606E+01  0.40659134040E+02  0.00000000000E+00 0. -1.
         11    1    3    3    0    0 -0.25449398673E+01 -0.22096441956E+01  0.36080847863E+01  0.49373598700E+01  0.51100000000E-03 0. -1.
        -11    1    3    3    0    0  0.12859237160E+01 -0.66595195469E+01 -0.67995608456E+01  0.96040006431E+01  0.51100000000E-03 0.  1.
         12    1    3    3    0    0  0.30669064143E+02 -0.18721964266E+02 -0.19992766013E+01  0.35987505447E+02  0.00000000000E+00 0. -1.
</event>
<event>
 7    1  0.4836188E-013  0.5052886E+02  0.7816164E-02  0.1300439E+00
        -11   -1    0    0    0    0  0.00000000000E+00  0.00000000000E+00  0.45593999997E+02  0.45594000000E+02  0.51100000000E-03 0.  1.
         11   -1    0    0    0    0 -0.00000000000E+00 -0.00000000000E+00 -0.45593999997E+02  0.45594000000E+02  0.51100000000E-03 0. -1.
    9900012    2    1    2    0    0 -0.13133701775E+02 -0.16139401565E+02  0.34931237217E+02  0.50528859101E+02  0.29999997723E+02 0.  0.
         12    1    1    2    0    0  0.13133701775E+02  0.16139401565E+02 -0.34931237217E+02  0.40659140899E+02  0.00000000000E+00 0. -1.
         11    1    3    3    0    0  0.13545213870E+01  0.22041458313E+01  0.18525082676E+02  0.18704857001E+02  0.51100000000E-03 0. -1.
        -11    1    3    3    0    0 -0.74079626476E+00 -0.96677856045E+01  0.11066657174E+02  0.14713455028E+02  0.51100000000E-03 0.  1.
         12    1    3    3    0    0 -0.13747426897E+02 -0.86757617913E+01  0.53394973668E+01  0.17110547071E+02  0.00000000000E+00 0. -1.
</event>
<event>
 7    1  0.4836188E-013  0.5052886E+02  0.7816164E-02  0.1300439E+00
        -11   -1    0    0    0    0  0.00000000000E+00  0.00000000000E+00  0.45593999997E+02  0.45594000000E+02  0.51100000000E-03 0. -1.
         11   -1    0    0    0    0 -0.00000000000E+00 -0.00000000000E+00 -0.45593999997E+02  0.45594000000E+02  0.51100000000E-03 0.  1.
    9900012    2    1    2    0    0 -0.27521164762E+01  0.11480885794E+01 -0.40549637982E+02  0.50528863352E+02  0.30000010644E+02 0.  0.
         12    1    1    2    0    0  0.27521164762E+01 -0.11480885794E+01  0.40549637982E+02  0.40659136648E+02  0.00000000000E+00 0. -1.
         11    1    3    3    0    0 -0.61486765704E+01 -0.37993318796E+01 -0.31656704165E+02  0.32471342213E+02  0.51100000000E-03 0. -1.
        -11    1    3    3    0    0 -0.26581162921E+01  0.56207743931E+01 -0.10087271865E+02  0.11849546023E+02  0.51100000000E-03 0.  1.
         12    1    3    3    0    0  0.60546763863E+01 -0.67335393396E+00  0.11943380477E+01  0.62079751156E+01  0.00000000000E+00 0. -1.
</event>
<event>
 7    1  0.4836188E-013  0.5052887E+02  0.7816164E-02  0.1300439E+00
        -11   -1    0    0    0    0  0.00000000000E+00  0.00000000000E+00  0.45593999997E+02  0.45594000000E+02  0.51100000000E-03 0. -1.
         11   -1    0    0    0    0 -0.00000000000E+00 -0.00000000000E+00 -0.45593999997E+02  0.45594000000E+02  0.51100000000E-03 0.  1.
    9900012    2    1    2    0    0 -0.12556066058E+02  0.37425661574E+02 -0.97380833616E+01  0.50528865643E+02  0.30000017608E+02 0.  0.
         12    1    1    2    0    0  0.12556066058E+02 -0.37425661574E+02  0.97380833616E+01  0.40659134357E+02  0.00000000000E+00 0. -1.
         11    1    3    3    0    0  0.46469062935E+01  0.12923541822E+02  0.51553853822E+01  0.14669344567E+02  0.51100000000E-03 0. -1.
        -11    1    3    3    0    0 -0.10449667121E+02  0.20703595953E+02 -0.57862336556E+01  0.23902195056E+02  0.51100000000E-03 0.  1.
        -12    1    3    3    0    0 -0.67533052310E+01  0.37985237989E+01 -0.91072350882E+01  0.11957326020E+02  0.00000000000E+00 0.  1.
</event>
<event>
 7    1  0.4836188E-013  0.5052874E+02  0.7816164E-02  0.1300439E+00
        -11   -1    0    0    0    0  0.00000000000E+00  0.00000000000E+00  0.45593999997E+02  0.45594000000E+02  0.51100000000E-03 0.  1.
         11   -1    0    0    0    0 -0.00000000000E+00 -0.00000000000E+00 -0.45593999997E+02  0.45594000000E+02  0.51100000000E-03 0. -1.
    9900012    2    1    2    0    0  0.23684636450E+02 -0.15535054855E+02  0.29169772793E+02  0.50528738104E+02  0.29999629939E+02 0.  0.
         12    1    1    2    0    0 -0.23684636450E+02  0.15535054855E+02 -0.29169772793E+02  0.40659261896E+02  0.00000000000E+00 0. -1.
         11    1    3    3    0    0  0.53546018007E+01 -0.13654610743E+02  0.81478496963E+01  0.16778188517E+02  0.51100000000E-03 0. -1.
        -11    1    3    3    0    0  0.74827771265E+01  0.27101807443E+01 -0.17174353885E+01  0.81416593988E+01  0.51100000000E-03 0.  1.
         12    1    3    3    0    0  0.10847257523E+02 -0.45906248564E+01  0.22739358485E+02  0.25608890188E+02  0.00000000000E+00 0. -1.
</event>
<event>
 7    1  0.4836188E-013  0.5052886E+02  0.7816164E-02  0.1300439E+00
        -11   -1    0    0    0    0  0.00000000000E+00  0.00000000000E+00  0.45593999997E+02  0.45594000000E+02  0.51100000000E-03 0.  1.
         11   -1    0    0    0    0 -0.00000000000E+00 -0.00000000000E+00 -0.45593999997E+02  0.45594000000E+02  0.51100000000E-03 0. -1.
    9900012    2    1    2    0    0 -0.14538468567E+02  0.12413227718E+02  0.35884686485E+02  0.50528855705E+02  0.29999987401E+02 0.  0.
         12    1    1    2    0    0  0.14538468567E+02 -0.12413227718E+02 -0.35884686485E+02  0.40659144295E+02  0.00000000000E+00 0. -1.
         11    1    3    3    0    0 -0.21041859412E+01 -0.62430397188E+01  0.54753927339E+01  0.85663918458E+01  0.51100000000E-03 0. -1.
        -11    1    3    3    0    0 -0.58187309273E+01  0.31957953368E+00  0.17840620500E+02  0.18768257798E+02  0.51100000000E-03 0.  1.
        -12    1    3    3    0    0 -0.66155516990E+01  0.18336687903E+02  0.12568673251E+02  0.23194206062E+02  0.00000000000E+00 0.  1.
</event>
<event>
 7    1  0.4836188E-013  0.5052881E+02  0.7816164E-02  0.1300439E+00
        -11   -1    0    0    0    0  0.00000000000E+00  0.00000000000E+00  0.45593999997E+02  0.45594000000E+02  0.51100000000E-03 0.  1.
         11   -1    0    0    0    0 -0.00000000000E+00 -0.00000000000E+00 -0.45593999997E+02  0.45594000000E+02  0.51100000000E-03 0. -1.
    9900012    2    1    2    0    0 -0.18529457531E+02 -0.99634192969E+01  0.34793090937E+02  0.50528810418E+02  0.29999849747E+02 0.  0.
         12    1    1    2    0    0  0.18529457531E+02  0.99634192969E+01 -0.34793090937E+02  0.40659189582E+02  0.00000000000E+00 0. -1.
         11    1    3    3    0    0 -0.13089266307E+02 -0.71976185948E+00  0.49303203053E+01  0.14005534912E+02  0.51100000000E-03 0. -1.
        -11    1    3    3    0    0 -0.51992931508E+01 -0.88941789606E+01  0.46436031183E+01  0.11300536219E+02  0.51100000000E-03 0.  1.
         12    1    3    3    0    0 -0.24089807328E+00 -0.34947847684E+00  0.25219167514E+02  0.25222739288E+02  0.00000000000E+00 0. -1.
</event>
<event>
 7    1  0.4836188E-013  0.5052881E+02  0.7816164E-02  0.1300439E+00
        -11   -1    0    0    0    0  0.00000000000E+00  0.00000000000E+00  0.45593999997E+02  0.45594000000E+02  0.51100000000E-03 0.  1.
         11   -1    0    0    0    0 -0.00000000000E+00 -0.00000000000E+00 -0.45593999997E+02  0.45594000000E+02  0.51100000000E-03 0. -1.
    9900012    2    1    2    0    0  0.66765694709E+01  0.33115836947E+02 -0.22625978210E+02  0.50528805141E+02  0.29999833705E+02 0.  0.
         12    1    1    2    0    0 -0.66765694709E+01 -0.33115836947E+02  0.22625978210E+02  0.40659194859E+02  0.00000000000E+00 0. -1.
         11    1    3    3    0    0 -0.31311907839E+01  0.12755770000E+01 -0.38772352567E+01  0.51443567047E+01  0.51100000000E-03 0. -1.
        -11    1    3    3    0    0  0.73729737145E+01  0.42273041563E+01  0.41235227578E+01  0.94463898935E+01  0.51100000000E-03 0.  1.
        -12    1    3    3    0    0  0.24347865402E+01  0.27612955791E+02 -0.22872265712E+02  0.35938058542E+02  0.00000000000E+00 0.  1.
</event>
<event>
 7    1  0.4836188E-013  0.5052887E+02  0.7816164E-02  0.1300439E+00
        -11   -1    0    0    0    0  0.00000000000E+00  0.00000000000E+00  0.45593999997E+02  0.45594000000E+02  0.51100000000E-03 0.  1.
         11   -1    0    0    0    0 -0.00000000000E+00 -0.00000000000E+00 -0.45593999997E+02  0.45594000000E+02  0.51100000000E-03 0. -1.
    9900012    2    1    2    0    0 -0.22144342203E+02  0.21147994899E+02  0.26749872500E+02  0.50528865004E+02  0.30000015667E+02 0.  0.
         12    1    1    2    0    0  0.22144342203E+02 -0.21147994899E+02 -0.26749872500E+02  0.40659134996E+02  0.00000000000E+00 0. -1.
         11    1    3    3    0    0  0.18698016967E+01 -0.21005878742E+00 -0.23740217771E+01  0.30292346787E+01  0.51100000000E-03 0. -1.
        -11    1    3    3    0    0 -0.54522304599E+01  0.15533630942E+02  0.65976207676E+01  0.17735532337E+02  0.51100000000E-03 0.  1.
         12    1    3    3    0    0 -0.18561913440E+02  0.58244227443E+01  0.22526273510E+02  0.29764097989E+02  0.00000000000E+00 0. -1.
</event>
<event>
 7    1  0.4836188E-013  0.5052886E+02  0.7816164E-02  0.1300439E+00
        -11   -1    0    0    0    0  0.00000000000E+00  0.00000000000E+00  0.45593999997E+02  0.45594000000E+02  0.51100000000E-03 0.  1.
         11   -1    0    0    0    0 -0.00000000000E+00 -0.00000000000E+00 -0.45593999997E+02  0.45594000000E+02  0.51100000000E-03 0. -1.
    9900012    2    1    2    0    0 -0.19418117732E+02  0.32626060197E+02 -0.14547951943E+02  0.50528855813E+02  0.29999987730E+02 0.  0.
         12    1    1    2    0    0  0.19418117732E+02 -0.32626060197E+02  0.14547951943E+02  0.40659144187E+02  0.00000000000E+00 0. -1.
         11    1    3    3    0    0 -0.36709531987E+01  0.11277524058E+01  0.31887422196E+01  0.49915729064E+01  0.51100000000E-03 0. -1.
        -11    1    3    3    0    0 -0.20072985969E+02  0.16557832945E+02 -0.81554903299E+01  0.27269004755E+02  0.51100000000E-03 0.  1.
        -12    1    3    3    0    0  0.43258214365E+01  0.14940474846E+02 -0.95812038331E+01  0.18268278152E+02  0.00000000000E+00 0.  1.
</event>
<event>
 7    1  0.4836188E-013  0.5052887E+02  0.7816164E-02  0.1300439E+00
        -11   -1    0    0    0    0  0.00000000000E+00  0.00000000000E+00  0.45593999997E+02  0.45594000000E+02  0.51100000000E-03 0.  1.
         11   -1    0    0    0    0 -0.00000000000E+00 -0.00000000000E+00 -0.45593999997E+02  0.45594000000E+02  0.51100000000E-03 0. -1.
    9900012    2    1    2    0    0  0.26524480780E+02 -0.22983486738E+02  0.20527454102E+02  0.50528866768E+02  0.30000021028E+02 0.  0.
         12    1    1    2    0    0 -0.26524480780E+02  0.22983486738E+02 -0.20527454102E+02  0.40659133232E+02  0.00000000000E+00 0. -1.
         11    1    3    3    0    0 -0.65767910295E+00 -0.86079181655E+01  0.95625836146E+01  0.12883004409E+02  0.51100000000E-03 0. -1.
        -11    1    3    3    0    0  0.15808235884E+02 -0.69435137259E+01  0.15620720903E+02  0.23283462509E+02  0.51100000000E-03 0.  1.
        -12    1    3    3    0    0  0.11373923999E+02 -0.74320548461E+01 -0.46558504155E+01  0.14362399851E+02  0.00000000000E+00 0.  1.
</event>
<event>
 7    1  0.4836188E-013  0.5052890E+02  0.7816164E-02  0.1300439E+00
        -11   -1    0    0    0    0  0.00000000000E+00  0.00000000000E+00  0.45593999997E+02  0.45594000000E+02  0.51100000000E-03 0. -1.
         11   -1    0    0    0    0 -0.00000000000E+00 -0.00000000000E+00 -0.45593999997E+02  0.45594000000E+02  0.51100000000E-03 0.  1.
    9900012    2    1    2    0    0  0.10701175065E+02 -0.25778373881E+02 -0.29565562749E+02  0.50528902514E+02  0.30000129681E+02 0.  0.
         12    1    1    2    0    0 -0.10701175065E+02  0.25778373881E+02  0.29565562749E+02  0.40659097486E+02  0.00000000000E+00 0. -1.
         11    1    3    3    0    0  0.95672057471E+01 -0.15083745029E+01 -0.48381327374E+01  0.10826548300E+02  0.51100000000E-03 0. -1.
        -11    1    3    3    0    0 -0.40374461691E+01  0.14004419941E+01 -0.10538509920E+01  0.44014556139E+01  0.51100000000E-03 0.  1.
        -12    1    3    3    0    0  0.51714154872E+01 -0.25670441372E+02 -0.23673579019E+02  0.35300898600E+02  0.00000000000E+00 0.  1.
</event>
<event>
 7    1  0.4836188E-013  0.5052886E+02  0.7816164E-02  0.1300439E+00
        -11   -1    0    0    0    0  0.00000000000E+00  0.00000000000E+00  0.45593999997E+02  0.45594000000E+02  0.51100000000E-03 0. -1.
         11   -1    0    0    0    0 -0.00000000000E+00 -0.00000000000E+00 -0.45593999997E+02  0.45594000000E+02  0.51100000000E-03 0.  1.
    9900012    2    1    2    0    0  0.31603688585E+02 -0.12986640032E+02  0.22039051871E+02  0.50528858852E+02  0.29999996967E+02 0.  0.
         12    1    1    2    0    0 -0.31603688585E+02  0.12986640032E+02 -0.22039051871E+02  0.40659141148E+02  0.00000000000E+00 0. -1.
         11    1    3    3    0    0  0.20056022035E+02 -0.50377401082E+01  0.23552103998E+02  0.31342055584E+02  0.51100000000E-03 0. -1.
        -11    1    3    3    0    0  0.67469503006E+01 -0.79714086154E+01  0.46019971784E+01  0.11412408684E+02  0.51100000000E-03 0.  1.
        -12    1    3    3    0    0  0.48007162490E+01  0.22508691173E-01 -0.61150493051E+01  0.77743945840E+01  0.00000000000E+00 0.  1.
</event>
<event>
 7    1  0.4836188E-013  0.5052886E+02  0.7816164E-02  0.1300439E+00
        -11   -1    0    0    0    0  0.00000000000E+00  0.00000000000E+00  0.45593999997E+02  0.45594000000E+02  0.51100000000E-03 0. -1.
         11   -1    0    0    0    0 -0.00000000000E+00 -0.00000000000E+00 -0.45593999997E+02  0.45594000000E+02  0.51100000000E-03 0.  1.
    9900012    2    1    2    0    0 -0.29234964154E+02 -0.14394741849E+02 -0.24316132624E+02  0.50528855545E+02  0.29999986915E+02 0.  0.
         12    1    1    2    0    0  0.29234964154E+02  0.14394741849E+02  0.24316132624E+02  0.40659144455E+02  0.00000000000E+00 0. -1.
         11    1    3    3    0    0 -0.13319813295E+02  0.49273736741E+01 -0.14738966121E+01  0.14278263516E+02  0.51100000000E-03 0.  1.
        -11    1    3    3    0    0  0.14542941423E+01 -0.20952945213E+01  0.30893503077E+00  0.25691772413E+01  0.51100000000E-03 0. -1.
        -12    1    3    3    0    0 -0.17369445002E+02 -0.17226821002E+02 -0.23151171043E+02  0.33681414788E+02  0.00000000000E+00 0.  1.
</event>
<event>
 7    1  0.4836188E-013  0.5052886E+02  0.7816164E-02  0.1300439E+00
        -11   -1    0    0    0    0  0.00000000000E+00  0.00000000000E+00  0.45593999997E+02  0.45594000000E+02  0.51100000000E-03 0. -1.
         11   -1    0    0    0    0 -0.00000000000E+00 -0.00000000000E+00 -0.45593999997E+02  0.45594000000E+02  0.51100000000E-03 0.  1.
    9900012    2    1    2    0    0 -0.18239059991E+02 -0.36165184791E+02 -0.35470729708E+01  0.50528860474E+02  0.30000001898E+02 0.  0.
         12    1    1    2    0    0  0.18239059991E+02  0.36165184791E+02  0.35470729708E+01  0.40659139526E+02  0.00000000000E+00 0. -1.
         11    1    3    3    0    0 -0.52293125768E+01  0.33236918523E+00  0.20763247421E+01  0.56362491071E+01  0.51100000000E-03 0. -1.
        -11    1    3    3    0    0 -0.16170325718E+02 -0.27185420735E+02 -0.11238802497E+02  0.33568396092E+02  0.51100000000E-03 0.  1.
         12    1    3    3    0    0  0.31605783039E+01 -0.93121332412E+01  0.56154047843E+01  0.11324215276E+02  0.00000000000E+00 0. -1.
</event>
<event>
 7    1  0.4836188E-013  0.5052886E+02  0.7816164E-02  0.1300439E+00
        -11   -1    0    0    0    0  0.00000000000E+00  0.00000000000E+00  0.45593999997E+02  0.45594000000E+02  0.51100000000E-03 0. -1.
         11   -1    0    0    0    0 -0.00000000000E+00 -0.00000000000E+00 -0.45593999997E+02  0.45594000000E+02  0.51100000000E-03 0.  1.
    9900012    2    1    2    0    0  0.11826756028E+02  0.38446175341E+02 -0.59317239782E+01  0.50528857045E+02  0.29999991473E+02 0.  0.
         12    1    1    2    0    0 -0.11826756028E+02 -0.38446175341E+02  0.59317239782E+01  0.40659142955E+02  0.00000000000E+00 0. -1.
         11    1    3    3    0    0  0.11966882881E+02  0.11950293201E+02 -0.22528036706E+01  0.17061386758E+02  0.51100000000E-03 0.  1.
        -11    1    3    3    0    0  0.60403308420E+01  0.91217011166E+00  0.22113585615E+01  0.64967497983E+01  0.51100000000E-03 0. -1.
         12    1    3    3    0    0 -0.61804576952E+01  0.25583712029E+02 -0.58902788691E+01  0.26970720488E+02  0.00000000000E+00 0. -1.
</event>
<event>
 7    1  0.4836188E-013  0.5052886E+02  0.7816164E-02  0.1300439E+00
        -11   -1    0    0    0    0  0.00000000000E+00  0.00000000000E+00  0.45593999997E+02  0.45594000000E+02  0.51100000000E-03 0.  1.
         11   -1    0    0    0    0 -0.00000000000E+00 -0.00000000000E+00 -0.45593999997E+02  0.45594000000E+02  0.51100000000E-03 0. -1.
    9900012    2    1    2    0    0  0.93056761211E+01 -0.30344412378E+01  0.39463427664E+02  0.50528861240E+02  0.30000004224E+02 0.  0.
         12    1    1    2    0    0 -0.93056761211E+01  0.30344412378E+01 -0.39463427664E+02  0.40659138760E+02  0.00000000000E+00 0. -1.
         11    1    3    3    0    0 -0.46393742927E+01 -0.35857104858E+01  0.80775633635E+01  0.99813898666E+01  0.51100000000E-03 0. -1.
        -11    1    3    3    0    0 -0.53740390304E+01  0.33155619488E+00  0.28658786247E+01  0.60994660064E+01  0.51100000000E-03 0.  1.
        -12    1    3    3    0    0  0.19319089444E+02  0.21971305318E+00  0.28519985676E+02  0.34448005367E+02  0.00000000000E+00 0.  1.
</event>
<event>
 7    1  0.4836188E-013  0.5052889E+02  0.7816164E-02  0.1300439E+00
        -11   -1    0    0    0    0  0.00000000000E+00  0.00000000000E+00  0.45593999997E+02  0.45594000000E+02  0.51100000000E-03 0. -1.
         11   -1    0    0    0    0 -0.00000000000E+00 -0.00000000000E+00 -0.45593999997E+02  0.45594000000E+02  0.51100000000E-03 0.  1.
    9900012    2    1    2    0    0  0.16059548561E+02 -0.40659495439E+01 -0.37131151727E+02  0.50528886947E+02  0.30000082364E+02 0.  0.
         12    1    1    2    0    0 -0.16059548561E+02  0.40659495439E+01  0.37131151727E+02  0.40659113053E+02  0.00000000000E+00 0. -1.
         11    1    3    3    0    0  0.12472313887E+02 -0.27225482758E+01 -0.35339293254E+01  0.13246114130E+02  0.51100000000E-03 0. -1.
        -11    1    3    3    0    0 -0.26133137654E+01  0.14716836345E+01  0.32395275420E-02  0.29992119485E+01  0.51100000000E-03 0.  1.
        -12    1    3    3    0    0  0.62005484390E+01 -0.28150849027E+01 -0.33600461929E+02  0.34283560869E+02  0.00000000000E+00 0.  1.
</event>
<event>
 7    1  0.4836188E-013  0.5052886E+02  0.7816164E-02  0.1300439E+00
        -11   -1    0    0    0    0  0.00000000000E+00  0.00000000000E+00  0.45593999997E+02  0.45594000000E+02  0.51100000000E-03 0. -1.
         11   -1    0    0    0    0 -0.00000000000E+00 -0.00000000000E+00 -0.45593999997E+02  0.45594000000E+02  0.51100000000E-03 0.  1.
    9900012    2    1    2    0    0  0.55205896299E+01 -0.38604177907E+02 -0.11506776458E+02  0.50528863681E+02  0.30000011646E+02 0.  0.
         12    1    1    2    0    0 -0.55205896299E+01  0.38604177907E+02  0.11506776458E+02  0.40659136319E+02  0.00000000000E+00 0. -1.
         11    1    3    3    0    0  0.21919252861E+00  0.12485097239E+01  0.11828936215E+01  0.17337991453E+01  0.51100000000E-03 0. -1.
        -11    1    3    3    0    0  0.58450397447E+01 -0.11296489915E+02 -0.15551808988E+02  0.20090643023E+02  0.51100000000E-03 0.  1.
        -12    1    3    3    0    0 -0.54364264333E+00 -0.28556197715E+02  0.28621389082E+01  0.28704421513E+02  0.00000000000E+00 0.  1.
</event>
<event>
 7    1  0.4836188E-013  0.5052893E+02  0.7816164E-02  0.1300439E+00
        -11   -1    0    0    0    0  0.00000000000E+00  0.00000000000E+00  0.45593999997E+02  0.45594000000E+02  0.51100000000E-03 0.  1.
         11   -1    0    0    0    0 -0.00000000000E+00 -0.00000000000E+00 -0.45593999997E+02  0.45594000000E+02  0.51100000000E-03 0. -1.
    9900012    2    1    2    0    0 -0.18779348002E+02 -0.14496688393E+02  0.33020324383E+02  0.50528933261E+02  0.30000223139E+02 0.  0.
         12    1    1    2    0    0  0.18779348002E+02  0.14496688393E+02 -0.33020324383E+02  0.40659066739E+02  0.00000000000E+00 0. -1.
         11    1    3    3    0    0  0.26874382197E+01 -0.12073811933E+02  0.24194165078E+02  0.27172723140E+02  0.51100000000E-03 0.  1.
        -11    1    3    3    0    0 -0.61572581194E+01 -0.86187687681E+00  0.21098859268E+01  0.65655371589E+01  0.51100000000E-03 0. -1.
        -12    1    3    3    0    0 -0.15309528102E+02 -0.15609995825E+01  0.67162733781E+01  0.16790672962E+02  0.00000000000E+00 0.  1.
</event>
<event>
 7    1  0.4836188E-013  0.5052885E+02  0.7816164E-02  0.1300439E+00
        -11   -1    0    0    0    0  0.00000000000E+00  0.00000000000E+00  0.45593999997E+02  0.45594000000E+02  0.51100000000E-03 0.  1.
         11   -1    0    0    0    0 -0.00000000000E+00 -0.00000000000E+00 -0.45593999997E+02  0.45594000000E+02  0.51100000000E-03 0. -1.
    9900012    2    1    2    0    0 -0.14091072703E+02  0.13887258313E+02  0.35521155497E+02  0.50528846526E+02  0.29999959500E+02 0.  0.
         12    1    1    2    0    0  0.14091072703E+02 -0.13887258313E+02 -0.35521155497E+02  0.40659153474E+02  0.00000000000E+00 0. -1.
         11    1    3    3    0    0 -0.63067762699E+01 -0.14484055702E+01  0.90975903538E+00  0.65345977212E+01  0.51100000000E-03 0. -1.
        -11    1    3    3    0    0  0.47714549632E+01 -0.11749760982E+01  0.19161037771E+01  0.52743535380E+01  0.51100000000E-03 0.  1.
        -12    1    3    3    0    0 -0.12555751397E+02  0.16510639981E+02  0.32695292685E+02  0.38719895267E+02  0.00000000000E+00 0.  1.
</event>
<event>
 7    1  0.4836188E-013  0.5052886E+02  0.7816164E-02  0.1300439E+00
        -11   -1    0    0    0    0  0.00000000000E+00  0.00000000000E+00  0.45593999997E+02  0.45594000000E+02  0.51100000000E-03 0.  1.
         11   -1    0    0    0    0 -0.00000000000E+00 -0.00000000000E+00 -0.45593999997E+02  0.45594000000E+02  0.51100000000E-03 0. -1.
    9900012    2    1    2    0    0 -0.26423079913E+02  0.28002519132E+02  0.13070782690E+02  0.50528860929E+02  0.30000003281E+02 0.  0.
         12    1    1    2    0    0  0.26423079913E+02 -0.28002519132E+02 -0.13070782690E+02  0.40659139071E+02  0.00000000000E+00 0. -1.
         11    1    3    3    0    0 -0.10366563611E+02  0.18472778792E+02  0.10712704058E+02  0.23737548860E+02  0.51100000000E-03 0. -1.
        -11    1    3    3    0    0 -0.17227518378E+02  0.13910880873E+02  0.16855470983E+01  0.22206779717E+02  0.51100000000E-03 0.  1.
         12    1    3    3    0    0  0.11710020752E+01 -0.43811405327E+01  0.67253153384E+00  0.45845323525E+01  0.00000000000E+00 0. -1.
</event>
<event>
 7    1  0.4836188E-013  0.5052886E+02  0.7816164E-02  0.1300439E+00
        -11   -1    0    0    0    0  0.00000000000E+00  0.00000000000E+00  0.45593999997E+02  0.45594000000E+02  0.51100000000E-03 0. -1.
         11   -1    0    0    0    0 -0.00000000000E+00 -0.00000000000E+00 -0.45593999997E+02  0.45594000000E+02  0.51100000000E-03 0.  1.
    9900012    2    1    2    0    0 -0.69760439020E+01  0.18789066023E+02 -0.35376142843E+02  0.50528859909E+02  0.30000000178E+02 0.  0.
         12    1    1    2    0    0  0.69760439020E+01 -0.18789066023E+02  0.35376142843E+02  0.40659140091E+02  0.00000000000E+00 0. -1.
         11    1    3    3    0    0 -0.28020406856E+01 -0.57476449878E+00  0.16697146540E+01  0.33120588038E+01  0.51100000000E-03 0. -1.
        -11    1    3    3    0    0  0.72715761361E+01  0.12761023125E+01 -0.60321345134E+01  0.95336720976E+01  0.51100000000E-03 0.  1.
        -12    1    3    3    0    0 -0.11445579353E+02  0.18087728210E+02 -0.31013722983E+02  0.37683129007E+02  0.00000000000E+00 0.  1.
</event>
<event>
 7    1  0.4836188E-013  0.5052885E+02  0.7816164E-02  0.1300439E+00
        -11   -1    0    0    0    0  0.00000000000E+00  0.00000000000E+00  0.45593999997E+02  0.45594000000E+02  0.51100000000E-03 0. -1.
         11   -1    0    0    0    0 -0.00000000000E+00 -0.00000000000E+00 -0.45593999997E+02  0.45594000000E+02  0.51100000000E-03 0.  1.
    9900012    2    1    2    0    0 -0.27713307458E+02 -0.10963633451E+02  0.27657505489E+02  0.50528852461E+02  0.29999977540E+02 0.  0.
         12    1    1    2    0    0  0.27713307458E+02  0.10963633451E+02 -0.27657505489E+02  0.40659147539E+02  0.00000000000E+00 0. -1.
         11    1    3    3    0    0 -0.13718160609E+01 -0.92184769594E+01  0.32359286738E+01  0.98657706946E+01  0.51100000000E-03 0. -1.
        -11    1    3    3    0    0  0.12751457467E+01  0.40432518437E+01  0.40294250974E+01  0.58489442657E+01  0.51100000000E-03 0.  1.
         12    1    3    3    0    0 -0.27616637144E+02 -0.57884083357E+01  0.20392151718E+02  0.34814137500E+02  0.00000000000E+00 0. -1.
</event>
<event>
 7    1  0.4836188E-013  0.5052886E+02  0.7816164E-02  0.1300439E+00
        -11   -1    0    0    0    0  0.00000000000E+00  0.00000000000E+00  0.45593999997E+02  0.45594000000E+02  0.51100000000E-03 0.  1.
         11   -1    0    0    0    0 -0.00000000000E+00 -0.00000000000E+00 -0.45593999997E+02  0.45594000000E+02  0.51100000000E-03 0. -1.
    9900012    2    1    2    0    0 -0.47777998707E+01 -0.35093647676E+02  0.19969327253E+02  0.50528861916E+02  0.30000006280E+02 0.  0.
         12    1    1    2    0    0  0.47777998707E+01  0.35093647676E+02 -0.19969327253E+02  0.40659138084E+02  0.00000000000E+00 0. -1.
         11    1    3    3    0    0  0.56137533732E+01 -0.11215715504E+02  0.15871013075E+01  0.12642206771E+02  0.51100000000E-03 0. -1.
        -11    1    3    3    0    0 -0.66707479572E+01 -0.19200007737E+01  0.13361097118E+02  0.15056699430E+02  0.51100000000E-03 0.  1.
         12    1    3    3    0    0 -0.37208052867E+01 -0.21957931398E+02  0.50211288278E+01  0.22829955715E+02  0.00000000000E+00 0. -1.
</event>
<event>
 7    1  0.4836188E-013  0.5052886E+02  0.7816164E-02  0.1300439E+00
        -11   -1    0    0    0    0  0.00000000000E+00  0.00000000000E+00  0.45593999997E+02  0.45594000000E+02  0.51100000000E-03 0. -1.
         11   -1    0    0    0    0 -0.00000000000E+00 -0.00000000000E+00 -0.45593999997E+02  0.45594000000E+02  0.51100000000E-03 0.  1.
    9900012    2    1    2    0    0  0.22765896423E+02  0.29619755285E+02 -0.16048364280E+02  0.50528856635E+02  0.29999990228E+02 0.  0.
         12    1    1    2    0    0 -0.22765896423E+02 -0.29619755285E+02  0.16048364280E+02  0.40659143365E+02  0.00000000000E+00 0. -1.
         11    1    3    3    0    0  0.59398047323E+00  0.15953343089E+02 -0.14813550908E+02  0.21778504524E+02  0.51100000000E-03 0. -1.
        -11    1    3    3    0    0  0.79551914005E+01  0.98464381736E+01 -0.49102362111E+01  0.13577475275E+02  0.51100000000E-03 0.  1.
         12    1    3    3    0    0  0.14216724549E+02  0.38199740219E+01  0.36754228395E+01  0.15172876836E+02  0.00000000000E+00 0. -1.
</event>
<event>
 7    1  0.4836188E-013  0.5052885E+02  0.7816164E-02  0.1300439E+00
        -11   -1    0    0    0    0  0.00000000000E+00  0.00000000000E+00  0.45593999997E+02  0.45594000000E+02  0.51100000000E-03 0.  1.
         11   -1    0    0    0    0 -0.00000000000E+00 -0.00000000000E+00 -0.45593999997E+02  0.45594000000E+02  0.51100000000E-03 0. -1.
    9900012    2    1    2    0    0 -0.61767835998E+01 -0.21787782658E+02  0.33768416757E+02  0.50528854669E+02  0.29999984251E+02 0.  0.
         12    1    1    2    0    0  0.61767835998E+01  0.21787782658E+02 -0.33768416757E+02  0.40659145331E+02  0.00000000000E+00 0. -1.
         11    1    3    3    0    0  0.52104766800E+01 -0.15147551844E+01  0.98471636737E+01  0.11243228325E+02  0.51100000000E-03 0. -1.
        -11    1    3    3    0    0  0.89322502252E+00 -0.18182992320E+02  0.10683246504E+02  0.21108074682E+02  0.51100000000E-03 0.  1.
         12    1    3    3    0    0 -0.12280485302E+02 -0.20900351536E+01  0.13238006580E+02  0.18177551662E+02  0.00000000000E+00 0. -1.
</event>
<event>
 7    1  0.4836188E-013  0.5052886E+02  0.7816164E-02  0.1300439E+00
        -11   -1    0    0    0    0  0.00000000000E+00  0.00000000000E+00  0.45593999997E+02  0.45594000000E+02  0.51100000000E-03 0.  1.
         11   -1    0    0    0    0 -0.00000000000E+00 -0.00000000000E+00 -0.45593999997E+02  0.45594000000E+02  0.51100000000E-03 0. -1.
    9900012    2    1    2    0    0  0.10890666089E+02 -0.32148754527E+02  0.22383403365E+02  0.50528858695E+02  0.29999996489E+02 0.  0.
         12    1    1    2    0    0 -0.10890666089E+02  0.32148754527E+02 -0.22383403365E+02  0.40659141305E+02  0.00000000000E+00 0. -1.
         11    1    3    3    0    0  0.31731097358E+01 -0.18458194056E+02  0.26695192477E+01  0.18918242161E+02  0.51100000000E-03 0.  1.
        -11    1    3    3    0    0  0.88956477708E+01 -0.37871804223E+01  0.17070183786E+00  0.96697685698E+01  0.51100000000E-03 0. -1.
         12    1    3    3    0    0 -0.11780914176E+01 -0.99033800485E+01  0.19543182279E+02  0.21940847964E+02  0.00000000000E+00 0. -1.
</event>
<event>
 7    1  0.4836188E-013  0.5052885E+02  0.7816164E-02  0.1300439E+00
        -11   -1    0    0    0    0  0.00000000000E+00  0.00000000000E+00  0.45593999997E+02  0.45594000000E+02  0.51100000000E-03 0.  1.
         11   -1    0    0    0    0 -0.00000000000E+00 -0.00000000000E+00 -0.45593999997E+02  0.45594000000E+02  0.51100000000E-03 0. -1.
    9900012    2    1    2    0    0  0.10878824046E+02 -0.22415990234E+02 -0.32130067567E+02  0.50528847615E+02  0.29999962812E+02 0.  0.
         12    1    1    2    0    0 -0.10878824046E+02  0.22415990234E+02  0.32130067567E+02  0.40659152385E+02  0.00000000000E+00 0. -1.
         11    1    3    3    0    0  0.57494141966E+01 -0.11853481753E+01 -0.88056576703E+01  0.10583025143E+02  0.51100000000E-03 0. -1.
        -11    1    3    3    0    0  0.10926459713E+02 -0.54258880500E+01 -0.18975553291E+02  0.22558798859E+02  0.51100000000E-03 0.  1.
        -12    1    3    3    0    0 -0.57970498631E+01 -0.15804754008E+02 -0.43488566056E+01  0.17387023614E+02  0.00000000000E+00 0.  1.
</event>
<event>
 7    1  0.4836188E-013  0.5052886E+02  0.7816164E-02  0.1300439E+00
        -11   -1    0    0    0    0  0.00000000000E+00  0.00000000000E+00  0.45593999997E+02  0.45594000000E+02  0.51100000000E-03 0.  1.
         11   -1    0    0    0    0 -0.00000000000E+00 -0.00000000000E+00 -0.45593999997E+02  0.45594000000E+02  0.51100000000E-03 0. -1.
    9900012    2    1    2    0    0 -0.28335046647E+02 -0.29041133739E+02  0.26274460122E+01  0.50528858471E+02  0.29999995808E+02 0.  0.
         12    1    1    2    0    0  0.28335046647E+02  0.29041133739E+02 -0.26274460122E+01  0.40659141529E+02  0.00000000000E+00 0. -1.
         11    1    3    3    0    0 -0.20849819187E+01 -0.54511391212E+01 -0.24018994015E+01  0.63111954744E+01  0.51100000000E-03 0.  1.
        -11    1    3    3    0    0 -0.20821644274E+02 -0.26336317446E+02 -0.34848966848E+01  0.33753325644E+02  0.51100000000E-03 0. -1.
         12    1    3    3    0    0 -0.54284204550E+01  0.27463228285E+01  0.85142420985E+01  0.10464337352E+02  0.00000000000E+00 0. -1.
</event>
<event>
 7    1  0.4836188E-013  0.5052886E+02  0.7816164E-02  0.1300439E+00
        -11   -1    0    0    0    0  0.00000000000E+00  0.00000000000E+00  0.45593999997E+02  0.45594000000E+02  0.51100000000E-03 0.  1.
         11   -1    0    0    0    0 -0.00000000000E+00 -0.00000000000E+00 -0.45593999997E+02  0.45594000000E+02  0.51100000000E-03 0. -1.
    9900012    2    1    2    0    0  0.29776419348E+02 -0.24309881756E+02  0.13249913684E+02  0.50528859418E+02  0.29999998688E+02 0.  0.
         12    1    1    2    0    0 -0.29776419348E+02  0.24309881756E+02 -0.13249913684E+02  0.40659140582E+02  0.00000000000E+00 0. -1.
         11    1    3    3    0    0 -0.14416091348E+01 -0.71144552684E+01 -0.57917550971E+01  0.92864491615E+01  0.51100000000E-03 0. -1.
        -11    1    3    3    0    0  0.20087143344E+02 -0.10181490661E+02  0.74861983403E+01  0.23731819265E+02  0.51100000000E-03 0.  1.
        -12    1    3    3    0    0  0.11130885139E+02 -0.70139358270E+01  0.11555470441E+02  0.17510590992E+02  0.00000000000E+00 0.  1.
</event>
<event>
 7    1  0.4836188E-013  0.5052881E+02  0.7816164E-02  0.1300439E+00
        -11   -1    0    0    0    0  0.00000000000E+00  0.00000000000E+00  0.45593999997E+02  0.45594000000E+02  0.51100000000E-03 0.  1.
         11   -1    0    0    0    0 -0.00000000000E+00 -0.00000000000E+00 -0.45593999997E+02  0.45594000000E+02  0.51100000000E-03 0. -1.
    9900012    2    1    2    0    0 -0.23231985060E+02  0.24646138383E+02  0.22494729213E+02  0.50528805352E+02  0.29999834349E+02 0.  0.
         12    1    1    2    0    0  0.23231985060E+02 -0.24646138383E+02 -0.22494729213E+02  0.40659194648E+02  0.00000000000E+00 0. -1.
         11    1    3    3    0    0 -0.62034692161E+01  0.62492141148E+01  0.32169326233E+01  0.93746660277E+01  0.51100000000E-03 0. -1.
        -11    1    3    3    0    0 -0.19584207176E+02  0.23131920091E+02  0.13262681388E+02  0.33083615517E+02  0.51100000000E-03 0.  1.
        -12    1    3    3    0    0  0.25556913323E+01 -0.47349958232E+01  0.60151152023E+01  0.80705238076E+01  0.00000000000E+00 0.  1.
</event>
<event>
 7    1  0.4836188E-013  0.5052886E+02  0.7816164E-02  0.1300439E+00
        -11   -1    0    0    0    0  0.00000000000E+00  0.00000000000E+00  0.45593999997E+02  0.45594000000E+02  0.51100000000E-03 0. -1.
         11   -1    0    0    0    0 -0.00000000000E+00 -0.00000000000E+00 -0.45593999997E+02  0.45594000000E+02  0.51100000000E-03 0.  1.
    9900012    2    1    2    0    0  0.26744413815E+01  0.53354005984E+01 -0.40218734609E+02  0.50528858964E+02  0.29999997306E+02 0.  0.
         12    1    1    2    0    0 -0.26744413815E+01 -0.53354005984E+01  0.40218734609E+02  0.40659141036E+02  0.00000000000E+00 0. -1.
         11    1    3    3    0    0  0.56715388586E+01  0.11927446872E+01 -0.78021763056E+01  0.97192051258E+01  0.51100000000E-03 0. -1.
        -11    1    3    3    0    0 -0.32973253419E+01 -0.36164792016E+01 -0.32675917433E+02  0.33040382210E+02  0.51100000000E-03 0.  1.
        -12    1    3    3    0    0  0.30022786482E+00  0.77591351129E+01  0.25935912947E+00  0.77692716279E+01  0.00000000000E+00 0.  1.
</event>
<event>
 7    1  0.4836188E-013  0.5052885E+02  0.7816164E-02  0.1300439E+00
        -11   -1    0    0    0    0  0.00000000000E+00  0.00000000000E+00  0.45593999997E+02  0.45594000000E+02  0.51100000000E-03 0.  1.
         11   -1    0    0    0    0 -0.00000000000E+00 -0.00000000000E+00 -0.45593999997E+02  0.45594000000E+02  0.51100000000E-03 0. -1.
    9900012    2    1    2    0    0 -0.13950479811E+02  0.38190099509E+02  0.25797141545E+00  0.50528854205E+02  0.29999982843E+02 0.  0.
         12    1    1    2    0    0  0.13950479811E+02 -0.38190099509E+02 -0.25797141545E+00  0.40659145795E+02  0.00000000000E+00 0. -1.
         11    1    3    3    0    0 -0.17865298711E+00  0.15228700917E+02 -0.72706760743E+01  0.16876254897E+02  0.51100000000E-03 0. -1.
        -11    1    3    3    0    0 -0.98537533367E+01  0.11245896223E+02 -0.52804523400E+01  0.15857169162E+02  0.51100000000E-03 0.  1.
         12    1    3    3    0    0 -0.39180734877E+01  0.11715502369E+02  0.12809099830E+02  0.17795430146E+02  0.00000000000E+00 0. -1.
</event>
<event>
 7    1  0.4836188E-013  0.5052886E+02  0.7816164E-02  0.1300439E+00
        -11   -1    0    0    0    0  0.00000000000E+00  0.00000000000E+00  0.45593999997E+02  0.45594000000E+02  0.51100000000E-03 0.  1.
         11   -1    0    0    0    0 -0.00000000000E+00 -0.00000000000E+00 -0.45593999997E+02  0.45594000000E+02  0.51100000000E-03 0. -1.
    9900012    2    1    2    0    0  0.90831603852E+01  0.35978961109E+02 -0.16618545919E+02  0.50528861869E+02  0.30000006138E+02 0.  0.
         12    1    1    2    0    0 -0.90831603852E+01 -0.35978961109E+02  0.16618545919E+02  0.40659138131E+02  0.00000000000E+00 0. -1.
         11    1    3    3    0    0  0.41381356073E+01  0.66068347690E+01  0.13287585311E+01  0.79082255572E+01  0.51100000000E-03 0. -1.
        -11    1    3    3    0    0 -0.24275961946E+01  0.31002891306E+02 -0.14803532374E+02  0.34441502052E+02  0.51100000000E-03 0.  1.
         12    1    3    3    0    0  0.73726209725E+01 -0.16307649655E+01 -0.31437720762E+01  0.81791342600E+01  0.00000000000E+00 0. -1.
</event>
<event>
 7    1  0.4836188E-013  0.5052886E+02  0.7816164E-02  0.1300439E+00
        -11   -1    0    0    0    0  0.00000000000E+00  0.00000000000E+00  0.45593999997E+02  0.45594000000E+02  0.51100000000E-03 0.  1.
         11   -1    0    0    0    0 -0.00000000000E+00 -0.00000000000E+00 -0.45593999997E+02  0.45594000000E+02  0.51100000000E-03 0. -1.
    9900012    2    1    2    0    0 -0.18253329592E+02  0.28164977078E+02  0.22950288841E+02  0.50528859172E+02  0.29999997939E+02 0.  0.
         12    1    1    2    0    0  0.18253329592E+02 -0.28164977078E+02 -0.22950288841E+02  0.40659140828E+02  0.00000000000E+00 0. -1.
         11    1    3    3    0    0  0.31784806226E+01  0.65202913446E+01  0.42660873355E+01  0.84152504242E+01  0.51100000000E-03 0. -1.
        -11    1    3    3    0    0 -0.70019692557E+00 -0.32092811709E+01  0.69492309914E+01  0.76864538639E+01  0.51100000000E-03 0.  1.
        -12    1    3    3    0    0 -0.20731613289E+02  0.24853966904E+02  0.11734970514E+02  0.34427154884E+02  0.00000000000E+00 0.  1.
</event>
<event>
 7    1  0.4836188E-013  0.5052886E+02  0.7816164E-02  0.1300439E+00
        -11   -1    0    0    0    0  0.00000000000E+00  0.00000000000E+00  0.45593999997E+02  0.45594000000E+02  0.51100000000E-03 0.  1.
         11   -1    0    0    0    0 -0.00000000000E+00 -0.00000000000E+00 -0.45593999997E+02  0.45594000000E+02  0.51100000000E-03 0. -1.
    9900012    2    1    2    0    0  0.38687143355E+01 -0.35067384684E+02 -0.20210819933E+02  0.50528860049E+02  0.30000000606E+02 0.  0.
         12    1    1    2    0    0 -0.38687143355E+01  0.35067384684E+02  0.20210819933E+02  0.40659139951E+02  0.00000000000E+00 0. -1.
         11    1    3    3    0    0  0.41284946337E+01 -0.13525475180E+02 -0.14346689352E+02  0.20144737338E+02  0.51100000000E-03 0. -1.
        -11    1    3    3    0    0 -0.17585850220E+01  0.24546223045E+01 -0.55736956298E+01  0.63390752616E+01  0.51100000000E-03 0.  1.
        -12    1    3    3    0    0  0.14988047238E+01 -0.23996531808E+02 -0.29043495116E+00  0.24045047450E+02  0.00000000000E+00 0.  1.
</event>
<event>
 7    1  0.4836188E-013  0.5052886E+02  0.7816164E-02  0.1300439E+00
        -11   -1    0    0    0    0  0.00000000000E+00  0.00000000000E+00  0.45593999997E+02  0.45594000000E+02  0.51100000000E-03 0. -1.
         11   -1    0    0    0    0 -0.00000000000E+00 -0.00000000000E+00 -0.45593999997E+02  0.45594000000E+02  0.51100000000E-03 0.  1.
    9900012    2    1    2    0    0 -0.30921390522E+02 -0.20852490713E+02 -0.16192794882E+02  0.50528863673E+02  0.30000011620E+02 0.  0.
         12    1    1    2    0    0  0.30921390522E+02  0.20852490713E+02  0.16192794882E+02  0.40659136327E+02  0.00000000000E+00 0. -1.
         11    1    3    3    0    0  0.36714939037E+00  0.25598627659E+01  0.18842467365E+01  0.31997003110E+01  0.51100000000E-03 0. -1.
        -11    1    3    3    0    0 -0.21043785604E+02 -0.16002889298E+02 -0.21671672102E+02  0.34184715157E+02  0.51100000000E-03 0.  1.
         12    1    3    3    0    0 -0.10244754309E+02 -0.74094641814E+01  0.35946304834E+01  0.13144448205E+02  0.00000000000E+00 0. -1.
</event>
<event>
 7    1  0.4836188E-013  0.5052886E+02  0.7816164E-02  0.1300439E+00
        -11   -1    0    0    0    0  0.00000000000E+00  0.00000000000E+00  0.45593999997E+02  0.45594000000E+02  0.51100000000E-03 0.  1.
         11   -1    0    0    0    0 -0.00000000000E+00 -0.00000000000E+00 -0.45593999997E+02  0.45594000000E+02  0.51100000000E-03 0. -1.
    9900012    2    1    2    0    0 -0.32845516079E+02  0.10952420125E+02  0.21316235581E+02  0.50528864097E+02  0.30000012908E+02 0.  0.
         12    1    1    2    0    0  0.32845516079E+02 -0.10952420125E+02 -0.21316235581E+02  0.40659135903E+02  0.00000000000E+00 0. -1.
         11    1    3    3    0    0 -0.82424396112E+00  0.84408458423E+01  0.48332707366E+01  0.97615451090E+01  0.51100000000E-03 0. -1.
        -11    1    3    3    0    0 -0.16548310402E+01 -0.44847609712E+01  0.64534324399E+01  0.80310856836E+01  0.51100000000E-03 0.  1.
        -12    1    3    3    0    0 -0.30366441077E+02  0.69963352535E+01  0.10029532405E+02  0.32736233304E+02  0.00000000000E+00 0.  1.
</event>
<event>
 7    1  0.4836188E-013  0.5052885E+02  0.7816164E-02  0.1300439E+00
        -11   -1    0    0    0    0  0.00000000000E+00  0.00000000000E+00  0.45593999997E+02  0.45594000000E+02  0.51100000000E-03 0.  1.
         11   -1    0    0    0    0 -0.00000000000E+00 -0.00000000000E+00 -0.45593999997E+02  0.45594000000E+02  0.51100000000E-03 0. -1.
    9900012    2    1    2    0    0 -0.23720264391E+02  0.24866080331E+02  0.21730017401E+02  0.50528849122E+02  0.29999967392E+02 0.  0.
         12    1    1    2    0    0  0.23720264391E+02 -0.24866080331E+02 -0.21730017401E+02  0.40659150878E+02  0.00000000000E+00 0. -1.
         11    1    3    3    0    0 -0.35909616566E+01  0.99299515873E+01  0.18501697461E+02  0.21302857868E+02  0.51100000000E-03 0. -1.
        -11    1    3    3    0    0 -0.67751260549E+01 -0.22703049203E+01 -0.34730003030E+00  0.71538266028E+01  0.51100000000E-03 0.  1.
        -12    1    3    3    0    0 -0.13354176680E+02  0.17206433664E+02  0.35756199707E+01  0.22072164652E+02  0.00000000000E+00 0.  1.
</event>
<event>
 7    1  0.4836188E-013  0.5052885E+02  0.7816164E-02  0.1300439E+00
        -11   -1    0    0    0    0  0.00000000000E+00  0.00000000000E+00  0.45593999997E+02  0.45594000000E+02  0.51100000000E-03 0. -1.
         11   -1    0    0    0    0 -0.00000000000E+00 -0.00000000000E+00 -0.45593999997E+02  0.45594000000E+02  0.51100000000E-03 0.  1.
    9900012    2    1    2    0    0 -0.35783092654E+02 -0.53131758467E+01 -0.18560891420E+02  0.50528852840E+02  0.29999978693E+02 0.  0.
         12    1    1    2    0    0  0.35783092654E+02  0.53131758467E+01  0.18560891420E+02  0.40659147160E+02  0.00000000000E+00 0. -1.
         11    1    3    3    0    0  0.42318977935E+00  0.40111237337E+01 -0.24497368943E+01  0.47190480299E+01  0.51100000000E-03 0. -1.
        -11    1    3    3    0    0 -0.85398111881E+01 -0.11836528304E+02 -0.22655814898E+01  0.14770397326E+02  0.51100000000E-03 0.  1.
        -12    1    3    3    0    0 -0.27666471245E+02  0.25122287231E+01 -0.13845573036E+02  0.31039407485E+02  0.00000000000E+00 0.  1.
</event>
<event>
 7    1  0.4836188E-013  0.5052886E+02  0.7816164E-02  0.1300439E+00
        -11   -1    0    0    0    0  0.00000000000E+00  0.00000000000E+00  0.45593999997E+02  0.45594000000E+02  0.51100000000E-03 0.  1.
         11   -1    0    0    0    0 -0.00000000000E+00 -0.00000000000E+00 -0.45593999997E+02  0.45594000000E+02  0.51100000000E-03 0. -1.
    9900012    2    1    2    0    0  0.23448480700E+02  0.28372537023E+02  0.17272345540E+02  0.50528855583E+02  0.29999987030E+02 0.  0.
         12    1    1    2    0    0 -0.23448480700E+02 -0.28372537023E+02 -0.17272345540E+02  0.40659144417E+02  0.00000000000E+00 0. -1.
         11    1    3    3    0    0  0.45225058813E+01 -0.68470732212E+00 -0.33503428097E+01  0.56698042971E+01  0.51100000000E-03 0. -1.
        -11    1    3    3    0    0  0.23879008689E+01  0.16824063278E+02  0.19984326404E+01  0.17109789859E+02  0.51100000000E-03 0.  1.
        -12    1    3    3    0    0  0.16538073950E+02  0.12233181067E+02  0.18624255709E+02  0.27749261427E+02  0.00000000000E+00 0.  1.
</event>
<event>
 7    1  0.4836188E-013  0.5052886E+02  0.7816164E-02  0.1300439E+00
        -11   -1    0    0    0    0  0.00000000000E+00  0.00000000000E+00  0.45593999997E+02  0.45594000000E+02  0.51100000000E-03 0.  1.
         11   -1    0    0    0    0 -0.00000000000E+00 -0.00000000000E+00 -0.45593999997E+02  0.45594000000E+02  0.51100000000E-03 0. -1.
    9900012    2    1    2    0    0 -0.26193586905E+02 -0.25873624115E+02  0.17251593020E+02  0.50528857344E+02  0.29999992383E+02 0.  0.
         12    1    1    2    0    0  0.26193586905E+02  0.25873624115E+02 -0.17251593020E+02  0.40659142656E+02  0.00000000000E+00 0. -1.
         11    1    3    3    0    0 -0.15830589776E+02 -0.56029837699E+01 -0.30467438497E+01  0.17067033958E+02  0.51100000000E-03 0. -1.
        -11    1    3    3    0    0 -0.90953989335E+01 -0.37044976616E+01  0.93812771584E+01  0.13581529592E+02  0.51100000000E-03 0.  1.
         12    1    3    3    0    0 -0.12675981956E+01 -0.16566142683E+02  0.10917059711E+02  0.19880293794E+02  0.00000000000E+00 0. -1.
</event>
<event>
 7    1  0.4836188E-013  0.5052885E+02  0.7816164E-02  0.1300439E+00
        -11   -1    0    0    0    0  0.00000000000E+00  0.00000000000E+00  0.45593999997E+02  0.45594000000E+02  0.51100000000E-03 0. -1.
         11   -1    0    0    0    0 -0.00000000000E+00 -0.00000000000E+00 -0.45593999997E+02  0.45594000000E+02  0.51100000000E-03 0.  1.
    9900012    2    1    2    0    0  0.19346433210E+02  0.36799855135E+01 -0.35571609822E+02  0.50528853469E+02  0.29999980604E+02 0.  0.
         12    1    1    2    0    0 -0.19346433210E+02 -0.36799855135E+01  0.35571609822E+02  0.40659146531E+02  0.00000000000E+00 0. -1.
         11    1    3    3    0    0  0.12658581147E+01  0.56067940137E+01 -0.74727558039E+01  0.94276516400E+01  0.51100000000E-03 0. -1.
        -11    1    3    3    0    0  0.11248978012E+02  0.10696106035E+02 -0.16434586817E+02  0.22606234422E+02  0.51100000000E-03 0.  1.
         12    1    3    3    0    0  0.68315970836E+01 -0.12622914535E+02 -0.11664267200E+02  0.18494967407E+02  0.00000000000E+00 0. -1.
</event>
<event>
 7    1  0.4836188E-013  0.5052886E+02  0.7816164E-02  0.1300439E+00
        -11   -1    0    0    0    0  0.00000000000E+00  0.00000000000E+00  0.45593999997E+02  0.45594000000E+02  0.51100000000E-03 0.  1.
         11   -1    0    0    0    0 -0.00000000000E+00 -0.00000000000E+00 -0.45593999997E+02  0.45594000000E+02  0.51100000000E-03 0. -1.
    9900012    2    1    2    0    0 -0.40183144061E+02 -0.23917454168E+01 -0.57236361519E+01  0.50528861745E+02  0.30000005762E+02 0.  0.
         12    1    1    2    0    0  0.40183144061E+02  0.23917454168E+01  0.57236361519E+01  0.40659138255E+02  0.00000000000E+00 0. -1.
         11    1    3    3    0    0 -0.13820596936E+01  0.54337538079E+01 -0.40683968053E+01  0.69273098868E+01  0.51100000000E-03 0. -1.
        -11    1    3    3    0    0 -0.16382931675E+02 -0.59490162968E+01 -0.94079819054E+01  0.19806599127E+02  0.51100000000E-03 0.  1.
         12    1    3    3    0    0 -0.22418152693E+02 -0.18764829280E+01  0.77527425589E+01  0.23794952732E+02  0.00000000000E+00 0. -1.
</event>
<event>
 7    1  0.4836188E-013  0.5052888E+02  0.7816164E-02  0.1300439E+00
        -11   -1    0    0    0    0  0.00000000000E+00  0.00000000000E+00  0.45593999997E+02  0.45594000000E+02  0.51100000000E-03 0.  1.
         11   -1    0    0    0    0 -0.00000000000E+00 -0.00000000000E+00 -0.45593999997E+02  0.45594000000E+02  0.51100000000E-03 0. -1.
    9900012    2    1    2    0    0  0.34987427742E+02 -0.19531103869E+02  0.68978037923E+01  0.50528882751E+02  0.30000069609E+02 0.  0.
         12    1    1    2    0    0 -0.34987427742E+02  0.19531103869E+02 -0.68978037923E+01  0.40659117249E+02  0.00000000000E+00 0. -1.
         11    1    3    3    0    0  0.82886724875E+01 -0.12865654745E+02  0.29270557902E+00  0.15307280635E+02  0.51100000000E-03 0. -1.
        -11    1    3    3    0    0  0.21324890804E+02 -0.52897947609E+01  0.13943756713E+02  0.26022322109E+02  0.51100000000E-03 0.  1.
         12    1    3    3    0    0  0.53738644505E+01 -0.13756543628E+01 -0.73386584998E+01  0.91992800064E+01  0.00000000000E+00 0. -1.
</event>
<event>
 7    1  0.4836188E-013  0.5052886E+02  0.7816164E-02  0.1300439E+00
        -11   -1    0    0    0    0  0.00000000000E+00  0.00000000000E+00  0.45593999997E+02  0.45594000000E+02  0.51100000000E-03 0.  1.
         11   -1    0    0    0    0 -0.00000000000E+00 -0.00000000000E+00 -0.45593999997E+02  0.45594000000E+02  0.51100000000E-03 0. -1.
    9900012    2    1    2    0    0  0.29775641396E+02  0.61437155862E+01  0.26996875724E+02  0.50528863750E+02  0.30000011854E+02 0.  0.
         12    1    1    2    0    0 -0.29775641396E+02 -0.61437155862E+01 -0.26996875724E+02  0.40659136250E+02  0.00000000000E+00 0. -1.
         11    1    3    3    0    0  0.65204050471E+01  0.98332661158E+01  0.99479436819E+01  0.15432769947E+02  0.51100000000E-03 0. -1.
        -11    1    3    3    0    0  0.43071254299E+01  0.71609116543E+01  0.76317824118E+01  0.11316982294E+02  0.51100000000E-03 0.  1.
         12    1    3    3    0    0  0.18948110919E+02 -0.10850462184E+02  0.94171496307E+01  0.23779111509E+02  0.00000000000E+00 0. -1.
</event>
<event>
 7    1  0.4836188E-013  0.5052888E+02  0.7816164E-02  0.1300439E+00
        -11   -1    0    0    0    0  0.00000000000E+00  0.00000000000E+00  0.45593999997E+02  0.45594000000E+02  0.51100000000E-03 0.  1.
         11   -1    0    0    0    0 -0.00000000000E+00 -0.00000000000E+00 -0.45593999997E+02  0.45594000000E+02  0.51100000000E-03 0. -1.
    9900012    2    1    2    0    0 -0.10446279046E+02  0.50760027863E+01  0.38965032117E+02  0.50528877062E+02  0.30000052317E+02 0.  0.
         12    1    1    2    0    0  0.10446279046E+02 -0.50760027863E+01 -0.38965032117E+02  0.40659122938E+02  0.00000000000E+00 0. -1.
         11    1    3    3    0    0 -0.10476280069E+01 -0.21790085105E-01 -0.20136159732E+01  0.22699446683E+01  0.51100000000E-03 0. -1.
        -11    1    3    3    0    0 -0.11631626104E+02  0.10283034829E+02  0.14699347124E+02  0.21380045305E+02  0.51100000000E-03 0.  1.
        -12    1    3    3    0    0  0.22329750645E+01 -0.51852419577E+01  0.26279300967E+02  0.26878887088E+02  0.00000000000E+00 0.  1.
</event>
<event>
 7    1  0.4836188E-013  0.5052899E+02  0.7816164E-02  0.1300438E+00
        -11   -1    0    0    0    0  0.00000000000E+00  0.00000000000E+00  0.45593999997E+02  0.45594000000E+02  0.51100000000E-03 0.  1.
         11   -1    0    0    0    0 -0.00000000000E+00 -0.00000000000E+00 -0.45593999997E+02  0.45594000000E+02  0.51100000000E-03 0. -1.
    9900012    2    1    2    0    0  0.34571013369E+02  0.13225258717E+02  0.16825354202E+02  0.50528991435E+02  0.30000399963E+02 0.  0.
         12    1    1    2    0    0 -0.34571013369E+02 -0.13225258717E+02 -0.16825354202E+02  0.40659008565E+02  0.00000000000E+00 0. -1.
         11    1    3    3    0    0 -0.28289760447E+01  0.60504218145E+00  0.12392715158E+01  0.31472171285E+01  0.51100000000E-03 0. -1.
        -11    1    3    3    0    0  0.11681311151E+02  0.66405997299E+01  0.16102084367E+02  0.20972069908E+02  0.51100000000E-03 0.  1.
         12    1    3    3    0    0  0.25718678262E+02  0.59796168058E+01 -0.51600168081E+00  0.26409704399E+02  0.00000000000E+00 0. -1.
</event>
<event>
 7    1  0.4836188E-013  0.5052886E+02  0.7816164E-02  0.1300439E+00
        -11   -1    0    0    0    0  0.00000000000E+00  0.00000000000E+00  0.45593999997E+02  0.45594000000E+02  0.51100000000E-03 0. -1.
         11   -1    0    0    0    0 -0.00000000000E+00 -0.00000000000E+00 -0.45593999997E+02  0.45594000000E+02  0.51100000000E-03 0.  1.
    9900012    2    1    2    0    0 -0.37185527185E+02  0.12056163835E+02  0.11182625589E+02  0.50528860394E+02  0.30000001654E+02 0.  0.
         12    1    1    2    0    0  0.37185527185E+02 -0.12056163835E+02 -0.11182625589E+02  0.40659139606E+02  0.00000000000E+00 0. -1.
         11    1    3    3    0    0 -0.10437088619E+02  0.95259765839E+01  0.12658209952E+02  0.18971223686E+02  0.51100000000E-03 0. -1.
        -11    1    3    3    0    0 -0.22017659802E+02  0.51013084551E+01  0.49884413068E+01  0.23144874984E+02  0.51100000000E-03 0.  1.
        -12    1    3    3    0    0 -0.47307787643E+01 -0.25711212040E+01 -0.64640256695E+01  0.84127617236E+01  0.00000000000E+00 0.  1.
</event>
<event>
 7    1  0.4836188E-013  0.5052888E+02  0.7816164E-02  0.1300439E+00
        -11   -1    0    0    0    0  0.00000000000E+00  0.00000000000E+00  0.45593999997E+02  0.45594000000E+02  0.51100000000E-03 0.  1.
         11   -1    0    0    0    0 -0.00000000000E+00 -0.00000000000E+00 -0.45593999997E+02  0.45594000000E+02  0.51100000000E-03 0. -1.
    9900012    2    1    2    0    0  0.28984654855E+02  0.25105001594E+02  0.13520076986E+02  0.50528882895E+02  0.30000070048E+02 0.  0.
         12    1    1    2    0    0 -0.28984654855E+02 -0.25105001594E+02 -0.13520076986E+02  0.40659117105E+02  0.00000000000E+00 0. -1.
         11    1    3    3    0    0  0.11047558250E+02 -0.54010760142E+01  0.28390501353E+01  0.12620632763E+02  0.51100000000E-03 0. -1.
        -11    1    3    3    0    0  0.28572722799E+01  0.11119900111E+02  0.10582291010E+01  0.11529788916E+02  0.51100000000E-03 0.  1.
        -12    1    3    3    0    0  0.15079824324E+02  0.19386177497E+02  0.96227977498E+01  0.26378461216E+02  0.00000000000E+00 0.  1.
</event>
<event>
 7    1  0.4836188E-013  0.5052887E+02  0.7816164E-02  0.1300439E+00
        -11   -1    0    0    0    0  0.00000000000E+00  0.00000000000E+00  0.45593999997E+02  0.45594000000E+02  0.51100000000E-03 0. -1.
         11   -1    0    0    0    0 -0.00000000000E+00 -0.00000000000E+00 -0.45593999997E+02  0.45594000000E+02  0.51100000000E-03 0.  1.
    9900012    2    1    2    0    0  0.26593546884E+01  0.15053360442E+02 -0.37676111410E+02  0.50528865738E+02  0.30000017896E+02 0.  0.
         12    1    1    2    0    0 -0.26593546884E+01 -0.15053360442E+02  0.37676111410E+02  0.40659134262E+02  0.00000000000E+00 0. -1.
         11    1    3    3    0    0  0.24321656292E+01  0.15557903224E+02 -0.11209085907E+02  0.19328926237E+02  0.51100000000E-03 0. -1.
        -11    1    3    3    0    0  0.75741545171E+01 -0.83211303937E+00 -0.20015854725E+02  0.21417158294E+02  0.51100000000E-03 0.  1.
        -12    1    3    3    0    0 -0.73469654579E+01  0.32757025773E+00 -0.64511707789E+01  0.97827812063E+01  0.00000000000E+00 0.  1.
</event>
<event>
 7    1  0.4836188E-013  0.5052886E+02  0.7816164E-02  0.1300439E+00
        -11   -1    0    0    0    0  0.00000000000E+00  0.00000000000E+00  0.45593999997E+02  0.45594000000E+02  0.51100000000E-03 0.  1.
         11   -1    0    0    0    0 -0.00000000000E+00 -0.00000000000E+00 -0.45593999997E+02  0.45594000000E+02  0.51100000000E-03 0. -1.
    9900012    2    1    2    0    0  0.92643866812E+01 -0.18360880090E+02  0.35074424119E+02  0.50528855819E+02  0.29999987746E+02 0.  0.
         12    1    1    2    0    0 -0.92643866812E+01  0.18360880090E+02 -0.35074424119E+02  0.40659144181E+02  0.00000000000E+00 0. -1.
         11    1    3    3    0    0 -0.40931891148E+01 -0.45799695321E+01  0.10849721592E+02  0.12467829680E+02  0.51100000000E-03 0. -1.
        -11    1    3    3    0    0  0.45642641595E+01  0.59563180682E+01  0.84941671032E+01  0.11334068435E+02  0.51100000000E-03 0.  1.
        -12    1    3    3    0    0  0.87933116365E+01 -0.19737228626E+02  0.15730535424E+02  0.26726957704E+02  0.00000000000E+00 0.  1.
</event>
<event>
 7    1  0.4836188E-013  0.5052886E+02  0.7816164E-02  0.1300439E+00
        -11   -1    0    0    0    0  0.00000000000E+00  0.00000000000E+00  0.45593999997E+02  0.45594000000E+02  0.51100000000E-03 0.  1.
         11   -1    0    0    0    0 -0.00000000000E+00 -0.00000000000E+00 -0.45593999997E+02  0.45594000000E+02  0.51100000000E-03 0. -1.
    9900012    2    1    2    0    0  0.22810669283E+02  0.10673219554E+02  0.31920546711E+02  0.50528861407E+02  0.30000004732E+02 0.  0.
         12    1    1    2    0    0 -0.22810669283E+02 -0.10673219554E+02 -0.31920546711E+02  0.40659138593E+02  0.00000000000E+00 0. -1.
         11    1    3    3    0    0  0.61789756805E+01  0.12163528241E+01 -0.91152258647E-01  0.62982190854E+01  0.51100000000E-03 0. -1.
        -11    1    3    3    0    0  0.22596427954E+02  0.54446209384E+01  0.22953319069E+02  0.32666455424E+02  0.51100000000E-03 0.  1.
        -12    1    3    3    0    0 -0.59647343510E+01  0.40122457915E+01  0.90583799008E+01  0.11564186897E+02  0.00000000000E+00 0.  1.
</event>
<event>
 7    1  0.4836188E-013  0.5052887E+02  0.7816164E-02  0.1300439E+00
        -11   -1    0    0    0    0  0.00000000000E+00  0.00000000000E+00  0.45593999997E+02  0.45594000000E+02  0.51100000000E-03 0.  1.
         11   -1    0    0    0    0 -0.00000000000E+00 -0.00000000000E+00 -0.45593999997E+02  0.45594000000E+02  0.51100000000E-03 0. -1.
    9900012    2    1    2    0    0  0.91773832162E+01  0.37666390061E+02  0.12254935358E+02  0.50528871338E+02  0.30000034920E+02 0.  0.
         12    1    1    2    0    0 -0.91773832162E+01 -0.37666390061E+02 -0.12254935358E+02  0.40659128662E+02  0.00000000000E+00 0. -1.
         11    1    3    3    0    0 -0.13696087273E+01  0.12105487392E+01  0.90894315045E+01  0.92714088278E+01  0.51100000000E-03 0. -1.
        -11    1    3    3    0    0 -0.70556305556E+00  0.11052313081E+01 -0.33444317583E+01  0.35922944641E+01  0.51100000000E-03 0.  1.
        -12    1    3    3    0    0  0.11252554999E+02  0.35350610013E+02  0.65099356115E+01  0.37665168047E+02  0.00000000000E+00 0.  1.
</event>
<event>
 7    1  0.4836188E-013  0.5052886E+02  0.7816164E-02  0.1300439E+00
        -11   -1    0    0    0    0  0.00000000000E+00  0.00000000000E+00  0.45593999997E+02  0.45594000000E+02  0.51100000000E-03 0.  1.
         11   -1    0    0    0    0 -0.00000000000E+00 -0.00000000000E+00 -0.45593999997E+02  0.45594000000E+02  0.51100000000E-03 0. -1.
    9900012    2    1    2    0    0  0.79084335415E+01  0.89236839868E+01  0.38871457055E+02  0.50528860430E+02  0.30000001763E+02 0.  0.
         12    1    1    2    0    0 -0.79084335415E+01 -0.89236839868E+01 -0.38871457055E+02  0.40659139570E+02  0.00000000000E+00 0. -1.
         11    1    3    3    0    0  0.34507936687E+01  0.39808222113E+00 -0.35639684575E+01  0.49767778558E+01  0.51100000000E-03 0. -1.
        -11    1    3    3    0    0  0.30517386714E+01 -0.30141590870E+01  0.65398175858E+01  0.78209640222E+01  0.51100000000E-03 0.  1.
        -12    1    3    3    0    0  0.14059012014E+01  0.11539760853E+02  0.35895607927E+02  0.37731118552E+02  0.00000000000E+00 0.  1.
</event>
<event>
 7    1  0.4836188E-013  0.5052886E+02  0.7816164E-02  0.1300439E+00
        -11   -1    0    0    0    0  0.00000000000E+00  0.00000000000E+00  0.45593999997E+02  0.45594000000E+02  0.51100000000E-03 0. -1.
         11   -1    0    0    0    0 -0.00000000000E+00 -0.00000000000E+00 -0.45593999997E+02  0.45594000000E+02  0.51100000000E-03 0.  1.
    9900012    2    1    2    0    0  0.10848974047E+01 -0.87498802942E+01 -0.39691666151E+02  0.50528858723E+02  0.29999996576E+02 0.  0.
         12    1    1    2    0    0 -0.10848974047E+01  0.87498802942E+01  0.39691666151E+02  0.40659141277E+02  0.00000000000E+00 0. -1.
         11    1    3    3    0    0 -0.70813492079E+01  0.19402942052E+01 -0.10621253429E+01  0.74187841801E+01  0.51100000000E-03 0. -1.
        -11    1    3    3    0    0  0.46096826225E+01  0.98237749396E+00 -0.33570448730E+01  0.57865352295E+01  0.51100000000E-03 0.  1.
        -12    1    3    3    0    0  0.35565639900E+01 -0.11672551993E+02 -0.35272495935E+02  0.37323539314E+02  0.00000000000E+00 0.  1.
</event>
<event>
 7    1  0.4836188E-013  0.5052885E+02  0.7816164E-02  0.1300439E+00
        -11   -1    0    0    0    0  0.00000000000E+00  0.00000000000E+00  0.45593999997E+02  0.45594000000E+02  0.51100000000E-03 0.  1.
         11   -1    0    0    0    0 -0.00000000000E+00 -0.00000000000E+00 -0.45593999997E+02  0.45594000000E+02  0.51100000000E-03 0. -1.
    9900012    2    1    2    0    0  0.22640076582E+02 -0.31465467475E+02  0.12268561080E+02  0.50528852172E+02  0.29999976663E+02 0.  0.
         12    1    1    2    0    0 -0.22640076582E+02  0.31465467475E+02 -0.12268561080E+02  0.40659147828E+02  0.00000000000E+00 0. -1.
         11    1    3    3    0    0 -0.22227493799E+01 -0.27014917145E+01  0.50108856851E+01  0.61112721998E+01  0.51100000000E-03 0. -1.
        -11    1    3    3    0    0 -0.37334487828E+01 -0.12287889024E+01  0.18800716301E+01  0.43569750488E+01  0.51100000000E-03 0.  1.
        -12    1    3    3    0    0  0.28596274745E+02 -0.27535186858E+02  0.53776037651E+01  0.40060604924E+02  0.00000000000E+00 0.  1.
</event>
<event>
 7    1  0.4836188E-013  0.5052886E+02  0.7816164E-02  0.1300439E+00
        -11   -1    0    0    0    0  0.00000000000E+00  0.00000000000E+00  0.45593999997E+02  0.45594000000E+02  0.51100000000E-03 0.  1.
         11   -1    0    0    0    0 -0.00000000000E+00 -0.00000000000E+00 -0.45593999997E+02  0.45594000000E+02  0.51100000000E-03 0. -1.
    9900012    2    1    2    0    0  0.90983502607E+01 -0.39614073913E+02 -0.10537965351E+01  0.50528864291E+02  0.30000013500E+02 0.  0.
         12    1    1    2    0    0 -0.90983502607E+01  0.39614073913E+02  0.10537965351E+01  0.40659135709E+02  0.00000000000E+00 0. -1.
         11    1    3    3    0    0  0.75526506160E+01 -0.22488911261E+02 -0.74505671282E+01  0.24865731677E+02  0.51100000000E-03 0.  1.
        -11    1    3    3    0    0  0.13703972676E+01  0.30397663772E+01 -0.19223588025E+01  0.38488481297E+01  0.51100000000E-03 0. -1.
         12    1    3    3    0    0  0.17530237701E+00 -0.20164929029E+02  0.83191293956E+01  0.21814284485E+02  0.00000000000E+00 0. -1.
</event>
<event>
 7    1  0.4836188E-013  0.5052886E+02  0.7816164E-02  0.1300439E+00
        -11   -1    0    0    0    0  0.00000000000E+00  0.00000000000E+00  0.45593999997E+02  0.45594000000E+02  0.51100000000E-03 0. -1.
         11   -1    0    0    0    0 -0.00000000000E+00 -0.00000000000E+00 -0.45593999997E+02  0.45594000000E+02  0.51100000000E-03 0.  1.
    9900012    2    1    2    0    0  0.21636095594E+02  0.14764146122E+02 -0.31097664224E+02  0.50528863715E+02  0.30000011748E+02 0.  0.
         12    1    1    2    0    0 -0.21636095594E+02 -0.14764146122E+02  0.31097664224E+02  0.40659136285E+02  0.00000000000E+00 0. -1.
         11    1    3    3    0    0  0.85780491857E+01  0.11314194259E+01 -0.19062172091E+02  0.20933930420E+02  0.51100000000E-03 0. -1.
        -11    1    3    3    0    0  0.18088197680E+02  0.91274600180E+01 -0.84845750359E+01  0.21965460057E+02  0.51100000000E-03 0.  1.
         12    1    3    3    0    0 -0.50301512719E+01  0.45052666783E+01 -0.35509170969E+01  0.76294732380E+01  0.00000000000E+00 0. -1.
</event>
<event>
 7    1  0.4836188E-013  0.5052885E+02  0.7816164E-02  0.1300439E+00
        -11   -1    0    0    0    0  0.00000000000E+00  0.00000000000E+00  0.45593999997E+02  0.45594000000E+02  0.51100000000E-03 0.  1.
         11   -1    0    0    0    0 -0.00000000000E+00 -0.00000000000E+00 -0.45593999997E+02  0.45594000000E+02  0.51100000000E-03 0. -1.
    9900012    2    1    2    0    0  0.27551509192E+02 -0.40476606121E+00  0.29898437758E+02  0.50528854969E+02  0.29999985163E+02 0.  0.
         12    1    1    2    0    0 -0.27551509192E+02  0.40476606121E+00 -0.29898437758E+02  0.40659145031E+02  0.00000000000E+00 0. -1.
         11    1    3    3    0    0  0.11569509617E+02 -0.49934713573E+01  0.12036611487E+02  0.17426081755E+02  0.51100000000E-03 0.  1.
        -11    1    3    3    0    0  0.20796495137E+02  0.28530675268E+01  0.89366946125E+01  0.22814440934E+02  0.51100000000E-03 0. -1.
         12    1    3    3    0    0 -0.48144955619E+01  0.17356377693E+01  0.89251316576E+01  0.10288332279E+02  0.00000000000E+00 0. -1.
</event>
<event>
 7    1  0.4937830E-013  0.5052888E+02  0.7816164E-02  0.1300439E+00
        -11   -1    0    0    0    0  0.00000000000E+00  0.00000000000E+00  0.45593999997E+02  0.45594000000E+02  0.51100000000E-03 0. -1.
         11   -1    0    0    0    0 -0.00000000000E+00 -0.00000000000E+00 -0.45593999997E+02  0.45594000000E+02  0.51100000000E-03 0.  1.
    9900012    2    1    2    0    0 -0.36499371447E+02 -0.17404066433E+01  0.17830622509E+02  0.50528877649E+02  0.30000054103E+02 0.  0.
         12    1    1    2    0    0  0.36499371447E+02  0.17404066433E+01 -0.17830622509E+02  0.40659122351E+02  0.00000000000E+00 0. -1.
         11    1    3    3    0    0 -0.99643507788E+01  0.53765294586E+01  0.66657569770E+01  0.13138785020E+02  0.51100000000E-03 0. -1.
        -11    1    3    3    0    0 -0.30677141274E+02 -0.73155844082E+01  0.98702603036E+01  0.33045828945E+02  0.51100000000E-03 0.  1.
         12    1    3    3    0    0  0.41421206057E+01  0.19864830628E+00  0.12946052279E+01  0.43442636842E+01  0.00000000000E+00 0. -1.
</event>
<event>
 7    1  0.4836188E-013  0.5052885E+02  0.7816164E-02  0.1300439E+00
        -11   -1    0    0    0    0  0.00000000000E+00  0.00000000000E+00  0.45593999997E+02  0.45594000000E+02  0.51100000000E-03 0. -1.
         11   -1    0    0    0    0 -0.00000000000E+00 -0.00000000000E+00 -0.45593999997E+02  0.45594000000E+02  0.51100000000E-03 0.  1.
    9900012    2    1    2    0    0  0.27308640369E+01  0.31175662728E+02 -0.25957409420E+02  0.50528847663E+02  0.29999962957E+02 0.  0.
         12    1    1    2    0    0 -0.27308640369E+01 -0.31175662728E+02  0.25957409420E+02  0.40659152337E+02  0.00000000000E+00 0. -1.
         11    1    3    3    0    0 -0.54979934679E+01  0.17082163462E+02 -0.11055285948E+02  0.21077181699E+02  0.51100000000E-03 0. -1.
        -11    1    3    3    0    0  0.35017391664E+01  0.17352442568E+02 -0.56853971059E+01  0.18592826056E+02  0.51100000000E-03 0.  1.
         12    1    3    3    0    0  0.47271183384E+01 -0.32589433017E+01 -0.92167263660E+01  0.10858839907E+02  0.00000000000E+00 0. -1.
</event>
<event>
 7    1  0.4836188E-013  0.5052886E+02  0.7816164E-02  0.1300439E+00
        -11   -1    0    0    0    0  0.00000000000E+00  0.00000000000E+00  0.45593999997E+02  0.45594000000E+02  0.51100000000E-03 0.  1.
         11   -1    0    0    0    0 -0.00000000000E+00 -0.00000000000E+00 -0.45593999997E+02  0.45594000000E+02  0.51100000000E-03 0. -1.
    9900012    2    1    2    0    0  0.34540478179E+02 -0.18135026203E+02  0.11456072209E+02  0.50528863282E+02  0.30000010432E+02 0.  0.
         12    1    1    2    0    0 -0.34540478179E+02  0.18135026203E+02 -0.11456072209E+02  0.40659136718E+02  0.00000000000E+00 0. -1.
         11    1    3    3    0    0  0.37675491395E+02 -0.15104048867E+02  0.10019844386E+02  0.41808757765E+02  0.51100000000E-03 0. -1.
        -11    1    3    3    0    0  0.91492355282E+00  0.14373487332E+01  0.20416506882E+01  0.26592093340E+01  0.51100000000E-03 0.  1.
         12    1    3    3    0    0 -0.40499367694E+01 -0.44683260697E+01 -0.60542286480E+00  0.60608961834E+01  0.00000000000E+00 0. -1.
</event>
<event>
 7    1  0.4836188E-013  0.5052885E+02  0.7816164E-02  0.1300439E+00
        -11   -1    0    0    0    0  0.00000000000E+00  0.00000000000E+00  0.45593999997E+02  0.45594000000E+02  0.51100000000E-03 0.  1.
         11   -1    0    0    0    0 -0.00000000000E+00 -0.00000000000E+00 -0.45593999997E+02  0.45594000000E+02  0.51100000000E-03 0. -1.
    9900012    2    1    2    0    0  0.10255126111E+02  0.38744284009E+02  0.68468530938E+01  0.50528849096E+02  0.29999967312E+02 0.  0.
         12    1    1    2    0    0 -0.10255126111E+02 -0.38744284009E+02 -0.68468530938E+01  0.40659150904E+02  0.00000000000E+00 0. -1.
         11    1    3    3    0    0 -0.27441596910E+01  0.87349799712E+01 -0.28881424220E+01  0.96006069817E+01  0.51100000000E-03 0. -1.
        -11    1    3    3    0    0 -0.37249280574E+01  0.13820313772E+02  0.10317938922E+02  0.17644716650E+02  0.51100000000E-03 0.  1.
         12    1    3    3    0    0  0.16724213859E+02  0.16188990266E+02 -0.58294340590E+00  0.23283525465E+02  0.00000000000E+00 0. -1.
</event>
<event>
 7    1  0.4836188E-013  0.5052886E+02  0.7816164E-02  0.1300439E+00
        -11   -1    0    0    0    0  0.00000000000E+00  0.00000000000E+00  0.45593999997E+02  0.45594000000E+02  0.51100000000E-03 0.  1.
         11   -1    0    0    0    0 -0.00000000000E+00 -0.00000000000E+00 -0.45593999997E+02  0.45594000000E+02  0.51100000000E-03 0. -1.
    9900012    2    1    2    0    0 -0.10685130601E+02 -0.95711613682E+01  0.38044534605E+02  0.50528858848E+02  0.29999996954E+02 0.  0.
         12    1    1    2    0    0  0.10685130601E+02  0.95711613682E+01 -0.38044534605E+02  0.40659141152E+02  0.00000000000E+00 0. -1.
         11    1    3    3    0    0 -0.34017435879E+01  0.79836903438E+01  0.15626801162E+02  0.17874789111E+02  0.51100000000E-03 0. -1.
        -11    1    3    3    0    0 -0.11296630062E+02 -0.12062095203E+02  0.12948228074E+02  0.20994394537E+02  0.51100000000E-03 0.  1.
        -12    1    3    3    0    0  0.40132430488E+01 -0.54927565086E+01  0.94695053700E+01  0.11659675201E+02  0.00000000000E+00 0.  1.
</event>
<event>
 7    1  0.4836188E-013  0.5052887E+02  0.7816164E-02  0.1300439E+00
        -11   -1    0    0    0    0  0.00000000000E+00  0.00000000000E+00  0.45593999997E+02  0.45594000000E+02  0.51100000000E-03 0. -1.
         11   -1    0    0    0    0 -0.00000000000E+00 -0.00000000000E+00 -0.45593999997E+02  0.45594000000E+02  0.51100000000E-03 0.  1.
    9900012    2    1    2    0    0 -0.32394186859E+02  0.19746951872E+02  0.14623256695E+02  0.50528867116E+02  0.30000022086E+02 0.  0.
         12    1    1    2    0    0  0.32394186859E+02 -0.19746951872E+02 -0.14623256695E+02  0.40659132884E+02  0.00000000000E+00 0. -1.
         11    1    3    3    0    0 -0.90229079497E+01  0.36184746876E+01  0.10504392997E+02  0.14312529456E+02  0.51100000000E-03 0. -1.
        -11    1    3    3    0    0 -0.11614011177E+02  0.20256757128E+02  0.43574132626E+01  0.23753073813E+02  0.51100000000E-03 0.  1.
        -12    1    3    3    0    0 -0.11757267733E+02 -0.41282799436E+01 -0.23854956419E+00  0.12463263847E+02  0.00000000000E+00 0.  1.
</event>
<event>
 7    1  0.4836188E-013  0.5052885E+02  0.7816164E-02  0.1300439E+00
        -11   -1    0    0    0    0  0.00000000000E+00  0.00000000000E+00  0.45593999997E+02  0.45594000000E+02  0.51100000000E-03 0.  1.
         11   -1    0    0    0    0 -0.00000000000E+00 -0.00000000000E+00 -0.45593999997E+02  0.45594000000E+02  0.51100000000E-03 0. -1.
    9900012    2    1    2    0    0 -0.17863112347E+02  0.24925856899E+02  0.26697897201E+02  0.50528845559E+02  0.29999956562E+02 0.  0.
         12    1    1    2    0    0  0.17863112347E+02 -0.24925856899E+02 -0.26697897201E+02  0.40659154441E+02  0.00000000000E+00 0. -1.
         11    1    3    3    0    0 -0.38417779116E+01 -0.22277684683E+01  0.13443436781E+02  0.14157973111E+02  0.51100000000E-03 0. -1.
        -11    1    3    3    0    0  0.15088145682E+01  0.22034842895E+01  0.52840219774E+01  0.59205365411E+01  0.51100000000E-03 0.  1.
        -12    1    3    3    0    0 -0.15530149004E+02  0.24950141078E+02  0.79704384425E+01  0.30450335907E+02  0.00000000000E+00 0.  1.
</event>
<event>
 7    1  0.4836188E-013  0.5052885E+02  0.7816164E-02  0.1300439E+00
        -11   -1    0    0    0    0  0.00000000000E+00  0.00000000000E+00  0.45593999997E+02  0.45594000000E+02  0.51100000000E-03 0.  1.
         11   -1    0    0    0    0 -0.00000000000E+00 -0.00000000000E+00 -0.45593999997E+02  0.45594000000E+02  0.51100000000E-03 0. -1.
    9900012    2    1    2    0    0  0.40082765506E+02  0.35392347822E+01 -0.58319660667E+01  0.50528854637E+02  0.29999984155E+02 0.  0.
         12    1    1    2    0    0 -0.40082765506E+02 -0.35392347822E+01  0.58319660667E+01  0.40659145363E+02  0.00000000000E+00 0. -1.
         11    1    3    3    0    0  0.33942372880E+01  0.18567039523E+01 -0.51522517445E+01  0.64431277059E+01  0.51100000000E-03 0.  1.
        -11    1    3    3    0    0  0.43450407867E+01 -0.90139462711E+01  0.18889338663E+00  0.10008310936E+02  0.51100000000E-03 0. -1.
        -12    1    3    3    0    0  0.32343487431E+02  0.10696477101E+02 -0.86860770878E+00  0.34077415995E+02  0.00000000000E+00 0.  1.
</event>
<event>
 7    1  0.4836188E-013  0.5052886E+02  0.7816164E-02  0.1300439E+00
        -11   -1    0    0    0    0  0.00000000000E+00  0.00000000000E+00  0.45593999997E+02  0.45594000000E+02  0.51100000000E-03 0.  1.
         11   -1    0    0    0    0 -0.00000000000E+00 -0.00000000000E+00 -0.45593999997E+02  0.45594000000E+02  0.51100000000E-03 0. -1.
    9900012    2    1    2    0    0  0.17494611174E+02  0.76985412672E+01  0.35886438175E+02  0.50528863233E+02  0.30000010283E+02 0.  0.
         12    1    1    2    0    0 -0.17494611174E+02 -0.76985412672E+01 -0.35886438175E+02  0.40659136767E+02  0.00000000000E+00 0. -1.
         11    1    3    3    0    0  0.58144330637E+01 -0.50427925716E+01  0.17351157461E+01  0.78897411672E+01  0.51100000000E-03 0. -1.
        -11    1    3    3    0    0  0.57886143878E+01  0.66219671773E+01  0.32896999726E+02  0.34052475638E+02  0.51100000000E-03 0.  1.
         12    1    3    3    0    0  0.58915637226E+01  0.61193666615E+01  0.12543227028E+01  0.85866464279E+01  0.00000000000E+00 0. -1.
</event>
<event>
 7    1  0.4836188E-013  0.5052886E+02  0.7816164E-02  0.1300439E+00
        -11   -1    0    0    0    0  0.00000000000E+00  0.00000000000E+00  0.45593999997E+02  0.45594000000E+02  0.51100000000E-03 0. -1.
         11   -1    0    0    0    0 -0.00000000000E+00 -0.00000000000E+00 -0.45593999997E+02  0.45594000000E+02  0.51100000000E-03 0.  1.
    9900012    2    1    2    0    0 -0.23779440928E+02 -0.25324892113E+02 -0.21127087722E+02  0.50528858261E+02  0.29999995170E+02 0.  0.
         12    1    1    2    0    0  0.23779440928E+02  0.25324892113E+02  0.21127087722E+02  0.40659141739E+02  0.00000000000E+00 0. -1.
         11    1    3    3    0    0  0.17311594931E+01 -0.20753132053E+00  0.53568165898E-01  0.17443773242E+01  0.51100000000E-03 0. -1.
        -11    1    3    3    0    0 -0.21512367794E+02 -0.34010269666E+01 -0.89948499602E+01  0.23563876561E+02  0.51100000000E-03 0.  1.
         12    1    3    3    0    0 -0.39982326266E+01 -0.21716333826E+02 -0.12185805927E+02  0.25220604375E+02  0.00000000000E+00 0. -1.
</event>
<event>
 7    1  0.4836188E-013  0.5052886E+02  0.7816164E-02  0.1300439E+00
        -11   -1    0    0    0    0  0.00000000000E+00  0.00000000000E+00  0.45593999997E+02  0.45594000000E+02  0.51100000000E-03 0.  1.
         11   -1    0    0    0    0 -0.00000000000E+00 -0.00000000000E+00 -0.45593999997E+02  0.45594000000E+02  0.51100000000E-03 0. -1.
    9900012    2    1    2    0    0  0.33553212874E+02 -0.16809511212E+02  0.15645710816E+02  0.50528855539E+02  0.29999986897E+02 0.  0.
         12    1    1    2    0    0 -0.33553212874E+02  0.16809511212E+02 -0.15645710816E+02  0.40659144461E+02  0.00000000000E+00 0. -1.
         11    1    3    3    0    0  0.26618819630E+02 -0.14572672902E+02  0.11104140921E+02  0.32314490555E+02  0.51100000000E-03 0. -1.
        -11    1    3    3    0    0  0.37817753770E+01 -0.90944429411E+01  0.40539421608E+01  0.10651064018E+02  0.51100000000E-03 0.  1.
        -12    1    3    3    0    0  0.31526178679E+01  0.68576046312E+01  0.48762773371E+00  0.75633009662E+01  0.00000000000E+00 0.  1.
</event>
<event>
 7    1  0.4836188E-013  0.5052886E+02  0.7816164E-02  0.1300439E+00
        -11   -1    0    0    0    0  0.00000000000E+00  0.00000000000E+00  0.45593999997E+02  0.45594000000E+02  0.51100000000E-03 0.  1.
         11   -1    0    0    0    0 -0.00000000000E+00 -0.00000000000E+00 -0.45593999997E+02  0.45594000000E+02  0.51100000000E-03 0. -1.
    9900012    2    1    2    0    0 -0.16088754522E+02  0.34941750809E+02  0.13167843137E+02  0.50528855093E+02  0.29999985541E+02 0.  0.
         12    1    1    2    0    0  0.16088754522E+02 -0.34941750809E+02 -0.13167843137E+02  0.40659144907E+02  0.00000000000E+00 0. -1.
         11    1    3    3    0    0 -0.71144214895E+01  0.40664712909E+01  0.42567139935E+01  0.92342187635E+01  0.51100000000E-03 0. -1.
        -11    1    3    3    0    0 -0.13572648097E+02  0.22800141369E+02  0.14712225085E+02  0.30339953692E+02  0.51100000000E-03 0.  1.
         12    1    3    3    0    0  0.45983150641E+01  0.80751381488E+01 -0.58010959422E+01  0.10954682637E+02  0.00000000000E+00 0. -1.
</event>
<event>
 7    1  0.4836188E-013  0.5052885E+02  0.7816164E-02  0.1300439E+00
        -11   -1    0    0    0    0  0.00000000000E+00  0.00000000000E+00  0.45593999997E+02  0.45594000000E+02  0.51100000000E-03 0. -1.
         11   -1    0    0    0    0 -0.00000000000E+00 -0.00000000000E+00 -0.45593999997E+02  0.45594000000E+02  0.51100000000E-03 0.  1.
    9900012    2    1    2    0    0  0.70965213442E+01  0.14529879991E+01 -0.40008678462E+02  0.50528854146E+02  0.29999982663E+02 0.  0.
         12    1    1    2    0    0 -0.70965213442E+01 -0.14529879991E+01  0.40008678462E+02  0.40659145854E+02  0.00000000000E+00 0. -1.
         11    1    3    3    0    0 -0.57356741824E+01  0.13791541362E+01 -0.29040970664E+02  0.29634068264E+02  0.51100000000E-03 0. -1.
        -11    1    3    3    0    0  0.10916674837E+02  0.37925312704E+01 -0.11922330340E+02  0.16604187542E+02  0.51100000000E-03 0.  1.
        -12    1    3    3    0    0  0.19155206897E+01 -0.37186974076E+01  0.95462254267E+00  0.42905983407E+01  0.00000000000E+00 0.  1.
</event>
<event>
 7    1  0.4836188E-013  0.5052886E+02  0.7816164E-02  0.1300439E+00
        -11   -1    0    0    0    0  0.00000000000E+00  0.00000000000E+00  0.45593999997E+02  0.45594000000E+02  0.51100000000E-03 0. -1.
         11   -1    0    0    0    0 -0.00000000000E+00 -0.00000000000E+00 -0.45593999997E+02  0.45594000000E+02  0.51100000000E-03 0.  1.
    9900012    2    1    2    0    0  0.29052825913E+02 -0.27720968654E+02  0.63754698388E+01  0.50528863114E+02  0.30000009921E+02 0.  0.
         12    1    1    2    0    0 -0.29052825913E+02  0.27720968654E+02 -0.63754698388E+01  0.40659136886E+02  0.00000000000E+00 0. -1.
         11    1    3    3    0    0  0.17067416563E+00 -0.96702164000E+01  0.10212772237E+01  0.97254934231E+01  0.51100000000E-03 0. -1.
        -11    1    3    3    0    0  0.16530639731E+01  0.34235264520E+01 -0.33306274885E+01  0.50543282041E+01  0.51100000000E-03 0.  1.
        -12    1    3    3    0    0  0.27229087774E+02 -0.21474278706E+02  0.86848201035E+01  0.35749041487E+02  0.00000000000E+00 0.  1.
</event>
<event>
 7    1  0.4836188E-013  0.5052886E+02  0.7816164E-02  0.1300439E+00
        -11   -1    0    0    0    0  0.00000000000E+00  0.00000000000E+00  0.45593999997E+02  0.45594000000E+02  0.51100000000E-03 0.  1.
         11   -1    0    0    0    0 -0.00000000000E+00 -0.00000000000E+00 -0.45593999997E+02  0.45594000000E+02  0.51100000000E-03 0. -1.
    9900012    2    1    2    0    0  0.12905317366E+02 -0.28357600348E+02  0.26124025736E+02  0.50528862842E+02  0.30000009094E+02 0.  0.
         12    1    1    2    0    0 -0.12905317366E+02  0.28357600348E+02 -0.26124025736E+02  0.40659137158E+02  0.00000000000E+00 0. -1.
         11    1    3    3    0    0 -0.75918682014E+00 -0.39911719548E+01  0.10122236652E+01  0.41869338674E+01  0.51100000000E-03 0. -1.
        -11    1    3    3    0    0  0.21266647172E+02 -0.16612530613E+02  0.12622862292E+02  0.29792333041E+02  0.51100000000E-03 0.  1.
        -12    1    3    3    0    0 -0.76021429860E+01 -0.77538977800E+01  0.12488939779E+02  0.16549595934E+02  0.00000000000E+00 0.  1.
</event>
<event>
 7    1  0.4836188E-013  0.5052886E+02  0.7816164E-02  0.1300439E+00
        -11   -1    0    0    0    0  0.00000000000E+00  0.00000000000E+00  0.45593999997E+02  0.45594000000E+02  0.51100000000E-03 0. -1.
         11   -1    0    0    0    0 -0.00000000000E+00 -0.00000000000E+00 -0.45593999997E+02  0.45594000000E+02  0.51100000000E-03 0.  1.
    9900012    2    1    2    0    0  0.95424197862E+01  0.21968636181E+02 -0.32855545753E+02  0.50528860342E+02  0.30000001495E+02 0.  0.
         12    1    1    2    0    0 -0.95424197862E+01 -0.21968636181E+02  0.32855545753E+02  0.40659139658E+02  0.00000000000E+00 0. -1.
         11    1    3    3    0    0 -0.29047080205E+01 -0.38840611652E+01 -0.27828316239E+01  0.55917270970E+01  0.51100000000E-03 0. -1.
        -11    1    3    3    0    0  0.64211915991E+01  0.16812003862E+02 -0.67732436147E+01  0.19228936651E+02  0.51100000000E-03 0.  1.
        -12    1    3    3    0    0  0.60259362076E+01  0.90406934850E+01 -0.23299470514E+02  0.25708196594E+02  0.00000000000E+00 0.  1.
</event>
<event>
 7    1  0.4836188E-013  0.5052885E+02  0.7816164E-02  0.1300439E+00
        -11   -1    0    0    0    0  0.00000000000E+00  0.00000000000E+00  0.45593999997E+02  0.45594000000E+02  0.51100000000E-03 0.  1.
         11   -1    0    0    0    0 -0.00000000000E+00 -0.00000000000E+00 -0.45593999997E+02  0.45594000000E+02  0.51100000000E-03 0. -1.
    9900012    2    1    2    0    0  0.28323747353E+02  0.11352140534E+02  0.26871189928E+02  0.50528848423E+02  0.29999965266E+02 0.  0.
         12    1    1    2    0    0 -0.28323747353E+02 -0.11352140534E+02 -0.26871189928E+02  0.40659151577E+02  0.00000000000E+00 0. -1.
         11    1    3    3    0    0 -0.30420348418E+01  0.17072660472E+01  0.33067473015E+01  0.48065904040E+01  0.51100000000E-03 0. -1.
        -11    1    3    3    0    0  0.79732782259E+01  0.40255685459E+01  0.19330882530E+02  0.21294632832E+02  0.51100000000E-03 0.  1.
         12    1    3    3    0    0  0.23392503969E+02  0.56193059410E+01  0.42335600969E+01  0.24427625187E+02  0.00000000000E+00 0. -1.
</event>
<event>
 7    1  0.4836188E-013  0.5052886E+02  0.7816164E-02  0.1300439E+00
        -11   -1    0    0    0    0  0.00000000000E+00  0.00000000000E+00  0.45593999997E+02  0.45594000000E+02  0.51100000000E-03 0.  1.
         11   -1    0    0    0    0 -0.00000000000E+00 -0.00000000000E+00 -0.45593999997E+02  0.45594000000E+02  0.51100000000E-03 0. -1.
    9900012    2    1    2    0    0  0.25317779999E+01  0.19157916131E+02  0.35773315922E+02  0.50528858564E+02  0.29999996090E+02 0.  0.
         12    1    1    2    0    0 -0.25317779999E+01 -0.19157916131E+02 -0.35773315922E+02  0.40659141436E+02  0.00000000000E+00 0. -1.
         11    1    3    3    0    0  0.13251614549E+02  0.44734591097E+01  0.13121163610E+02  0.19177644780E+02  0.51100000000E-03 0. -1.
        -11    1    3    3    0    0 -0.99757819070E+00  0.10777323437E+02  0.86081809164E+01  0.13829195265E+02  0.51100000000E-03 0.  1.
         12    1    3    3    0    0 -0.97222583585E+01  0.39071335836E+01  0.14043971395E+02  0.17522018519E+02  0.00000000000E+00 0. -1.
</event>
<event>
 7    1  0.4836188E-013  0.5052886E+02  0.7816164E-02  0.1300439E+00
        -11   -1    0    0    0    0  0.00000000000E+00  0.00000000000E+00  0.45593999997E+02  0.45594000000E+02  0.51100000000E-03 0. -1.
         11   -1    0    0    0    0 -0.00000000000E+00 -0.00000000000E+00 -0.45593999997E+02  0.45594000000E+02  0.51100000000E-03 0.  1.
    9900012    2    1    2    0    0  0.31311095034E+02 -0.22549620917E+02  0.12817771321E+02  0.50528864036E+02  0.30000012723E+02 0.  0.
         12    1    1    2    0    0 -0.31311095034E+02  0.22549620917E+02 -0.12817771321E+02  0.40659135964E+02  0.00000000000E+00 0. -1.
         11    1    3    3    0    0 -0.14265559350E+01  0.23931548622E+01  0.32095161972E+01  0.42500878239E+01  0.51100000000E-03 0. -1.
        -11    1    3    3    0    0  0.82561392533E+01 -0.32216359983E+01 -0.52875690219E+01  0.10319939937E+02  0.51100000000E-03 0.  1.
         12    1    3    3    0    0  0.24481511716E+02 -0.21721139781E+02  0.14895824146E+02  0.35958836275E+02  0.00000000000E+00 0. -1.
</event>
<event>
 7    1  0.4836188E-013  0.5052886E+02  0.7816164E-02  0.1300439E+00
        -11   -1    0    0    0    0  0.00000000000E+00  0.00000000000E+00  0.45593999997E+02  0.45594000000E+02  0.51100000000E-03 0. -1.
         11   -1    0    0    0    0 -0.00000000000E+00 -0.00000000000E+00 -0.45593999997E+02  0.45594000000E+02  0.51100000000E-03 0.  1.
    9900012    2    1    2    0    0  0.21978759309E+02  0.29920248051E+02 -0.16579454205E+02  0.50528863192E+02  0.30000010159E+02 0.  0.
         12    1    1    2    0    0 -0.21978759309E+02 -0.29920248051E+02  0.16579454205E+02  0.40659136808E+02  0.00000000000E+00 0. -1.
         11    1    3    3    0    0  0.15632511240E+02  0.12695224964E+02 -0.46235715094E+01  0.20662080203E+02  0.51100000000E-03 0. -1.
        -11    1    3    3    0    0  0.67870788819E+01  0.11641401748E+02 -0.17432266289E+02  0.22033396983E+02  0.51100000000E-03 0.  1.
        -12    1    3    3    0    0 -0.44083081258E+00  0.55836213393E+01  0.54763835927E+01  0.78333860061E+01  0.00000000000E+00 0.  1.
</event>
<event>
 7    1  0.4836188E-013  0.5052886E+02  0.7816164E-02  0.1300439E+00
        -11   -1    0    0    0    0  0.00000000000E+00  0.00000000000E+00  0.45593999997E+02  0.45594000000E+02  0.51100000000E-03 0. -1.
         11   -1    0    0    0    0 -0.00000000000E+00 -0.00000000000E+00 -0.45593999997E+02  0.45594000000E+02  0.51100000000E-03 0.  1.
    9900012    2    1    2    0    0 -0.36689094080E+02  0.14367345921E+02 -0.10032718843E+02  0.50528859568E+02  0.29999999143E+02 0.  0.
         12    1    1    2    0    0  0.36689094080E+02 -0.14367345921E+02  0.10032718843E+02  0.40659140432E+02  0.00000000000E+00 0. -1.
         11    1    3    3    0    0 -0.88143610195E+01 -0.19853151824E+01  0.19194380002E+01  0.92368110868E+01  0.51100000000E-03 0. -1.
        -11    1    3    3    0    0  0.97461035529E+00 -0.31657041457E+01 -0.46401263903E+01  0.57010807100E+01  0.51100000000E-03 0.  1.
        -12    1    3    3    0    0 -0.28849343416E+02  0.19518365249E+02 -0.73120304534E+01  0.35590967771E+02  0.00000000000E+00 0.  1.
</event>
<event>
 7    1  0.6078788E-013  0.5052885E+02  0.7816164E-02  0.1300439E+00
        -11   -1    0    0    0    0  0.00000000000E+00  0.00000000000E+00  0.45593999997E+02  0.45594000000E+02  0.51100000000E-03 0.  1.
         11   -1    0    0    0    0 -0.00000000000E+00 -0.00000000000E+00 -0.45593999997E+02  0.45594000000E+02  0.51100000000E-03 0. -1.
    9900012    2    1    2    0    0  0.49909784468E+01  0.20225142415E+02  0.34917044284E+02  0.50528853021E+02  0.29999979241E+02 0.  0.
         12    1    1    2    0    0 -0.49909784468E+01 -0.20225142415E+02 -0.34917044284E+02  0.40659146979E+02  0.00000000000E+00 0. -1.
         11    1    3    3    0    0  0.47563663134E+00  0.11324886789E+01 -0.34663913837E+01  0.36775848460E+01  0.51100000000E-03 0. -1.
        -11    1    3    3    0    0 -0.43603682300E+01  0.15882719594E+02  0.18056327211E+02  0.24439814758E+02  0.51100000000E-03 0.  1.
        -12    1    3    3    0    0  0.88757100454E+01  0.32099341418E+01  0.20327108457E+02  0.22411453416E+02  0.00000000000E+00 0.  1.
</event>
<event>
 7    1  0.4836188E-013  0.5052886E+02  0.7816164E-02  0.1300439E+00
        -11   -1    0    0    0    0  0.00000000000E+00  0.00000000000E+00  0.45593999997E+02  0.45594000000E+02  0.51100000000E-03 0. -1.
         11   -1    0    0    0    0 -0.00000000000E+00 -0.00000000000E+00 -0.45593999997E+02  0.45594000000E+02  0.51100000000E-03 0.  1.
    9900012    2    1    2    0    0 -0.12878918410E+01  0.20565048589E+02 -0.35051184340E+02  0.50528863111E+02  0.30000009913E+02 0.  0.
         12    1    1    2    0    0  0.12878918410E+01 -0.20565048589E+02  0.35051184340E+02  0.40659136889E+02  0.00000000000E+00 0. -1.
         11    1    3    3    0    0 -0.73610033729E+01  0.15844675027E+02 -0.10092720751E+02  0.20176746759E+02  0.51100000000E-03 0. -1.
        -11    1    3    3    0    0 -0.50492219695E+01  0.96816012831E+00 -0.10795039336E+02  0.11956791002E+02  0.51100000000E-03 0.  1.
        -12    1    3    3    0    0  0.11122333501E+02  0.37522134338E+01 -0.14163424253E+02  0.18395325351E+02  0.00000000000E+00 0.  1.
</event>
<event>
 7    1  0.4836188E-013  0.5052886E+02  0.7816164E-02  0.1300439E+00
        -11   -1    0    0    0    0  0.00000000000E+00  0.00000000000E+00  0.45593999997E+02  0.45594000000E+02  0.51100000000E-03 0.  1.
         11   -1    0    0    0    0 -0.00000000000E+00 -0.00000000000E+00 -0.45593999997E+02  0.45594000000E+02  0.51100000000E-03 0. -1.
    9900012    2    1    2    0    0  0.47093621793E+00  0.24720595044E+02  0.32277482269E+02  0.50528862504E+02  0.30000008067E+02 0.  0.
         12    1    1    2    0    0 -0.47093621793E+00 -0.24720595044E+02 -0.32277482269E+02  0.40659137496E+02  0.00000000000E+00 0. -1.
         11    1    3    3    0    0 -0.46502768943E+01 -0.33463463501E+01  0.12747579374E+02  0.13975832327E+02  0.51100000000E-03 0. -1.
        -11    1    3    3    0    0  0.68286220374E+00  0.99055278456E+01  0.13796235018E+02  0.16997702304E+02  0.51100000000E-03 0.  1.
        -12    1    3    3    0    0  0.44383509085E+01  0.18161413549E+02  0.57336678779E+01  0.19555327873E+02  0.00000000000E+00 0.  1.
</event>
<event>
 7    1  0.4836188E-013  0.5052887E+02  0.7816164E-02  0.1300439E+00
        -11   -1    0    0    0    0  0.00000000000E+00  0.00000000000E+00  0.45593999997E+02  0.45594000000E+02  0.51100000000E-03 0. -1.
         11   -1    0    0    0    0 -0.00000000000E+00 -0.00000000000E+00 -0.45593999997E+02  0.45594000000E+02  0.51100000000E-03 0.  1.
    9900012    2    1    2    0    0  0.33666133638E+02 -0.17096165699E+02 -0.15082355957E+02  0.50528869451E+02  0.30000029185E+02 0.  0.
         12    1    1    2    0    0 -0.33666133638E+02  0.17096165699E+02  0.15082355957E+02  0.40659130549E+02  0.00000000000E+00 0. -1.
         11    1    3    3    0    0 -0.13383318429E+01 -0.75997885218E+01 -0.58885568364E+00  0.77391646173E+01  0.51100000000E-03 0. -1.
        -11    1    3    3    0    0  0.96011820374E+01 -0.21406769340E+00 -0.12370169294E+02  0.15660447315E+02  0.51100000000E-03 0.  1.
         12    1    3    3    0    0  0.25403283443E+02 -0.92823094841E+01 -0.21233309793E+01  0.27129257519E+02  0.00000000000E+00 0. -1.
</event>
<event>
 7    1  0.4836188E-013  0.5052886E+02  0.7816164E-02  0.1300439E+00
        -11   -1    0    0    0    0  0.00000000000E+00  0.00000000000E+00  0.45593999997E+02  0.45594000000E+02  0.51100000000E-03 0.  1.
         11   -1    0    0    0    0 -0.00000000000E+00 -0.00000000000E+00 -0.45593999997E+02  0.45594000000E+02  0.51100000000E-03 0. -1.
    9900012    2    1    2    0    0 -0.19026510600E+02  0.34059222095E+02  0.11451057878E+02  0.50528862750E+02  0.30000008816E+02 0.  0.
         12    1    1    2    0    0  0.19026510600E+02 -0.34059222095E+02 -0.11451057878E+02  0.40659137250E+02  0.00000000000E+00 0. -1.
         11    1    3    3    0    0 -0.13361000980E+02  0.28802920425E+02  0.72541616806E+01  0.32569117798E+02  0.51100000000E-03 0. -1.
        -11    1    3    3    0    0  0.13606574480E+00  0.29290868310E+01  0.93874310853E+01  0.98347306110E+01  0.51100000000E-03 0.  1.
         12    1    3    3    0    0 -0.58015753643E+01  0.23272148394E+01 -0.51905348882E+01  0.81250143410E+01  0.00000000000E+00 0. -1.
</event>
<event>
 7    1  0.4836188E-013  0.5052886E+02  0.7816164E-02  0.1300439E+00
        -11   -1    0    0    0    0  0.00000000000E+00  0.00000000000E+00  0.45593999997E+02  0.45594000000E+02  0.51100000000E-03 0.  1.
         11   -1    0    0    0    0 -0.00000000000E+00 -0.00000000000E+00 -0.45593999997E+02  0.45594000000E+02  0.51100000000E-03 0. -1.
    9900012    2    1    2    0    0  0.14267947312E+01 -0.14277834199E+02  0.38043046280E+02  0.50528860032E+02  0.30000000554E+02 0.  0.
         12    1    1    2    0    0 -0.14267947312E+01  0.14277834199E+02 -0.38043046280E+02  0.40659139968E+02  0.00000000000E+00 0. -1.
         11    1    3    3    0    0 -0.66999485886E+01 -0.78776019482E+00  0.81529484777E+00  0.67951882361E+01  0.51100000000E-03 0. -1.
        -11    1    3    3    0    0 -0.33928655297E+01 -0.48574993313E+01  0.21978510451E+02  0.22763166699E+02  0.51100000000E-03 0.  1.
        -12    1    3    3    0    0  0.11519608849E+02 -0.86325746728E+01  0.15249240982E+02  0.20970505097E+02  0.00000000000E+00 0.  1.
</event>
<event>
 7    1  0.4836188E-013  0.5052885E+02  0.7816164E-02  0.1300439E+00
        -11   -1    0    0    0    0  0.00000000000E+00  0.00000000000E+00  0.45593999997E+02  0.45594000000E+02  0.51100000000E-03 0.  1.
         11   -1    0    0    0    0 -0.00000000000E+00 -0.00000000000E+00 -0.45593999997E+02  0.45594000000E+02  0.51100000000E-03 0. -1.
    9900012    2    1    2    0    0 -0.15299957102E+02  0.57303164555E+01  0.37232264289E+02  0.50528847057E+02  0.29999961113E+02 0.  0.
         12    1    1    2    0    0  0.15299957102E+02 -0.57303164555E+01 -0.37232264289E+02  0.40659152943E+02  0.00000000000E+00 0. -1.
         11    1    3    3    0    0 -0.99945870104E+01  0.87719388077E+01  0.20427552891E+02  0.24374650712E+02  0.51100000000E-03 0. -1.
        -11    1    3    3    0    0 -0.17060773118E+01  0.68525967885E+01  0.95477685443E+00  0.71260354786E+01  0.51100000000E-03 0.  1.
        -12    1    3    3    0    0 -0.35992927800E+01 -0.98942191406E+01  0.15849934543E+02  0.19028160866E+02  0.00000000000E+00 0.  1.
</event>
<event>
 7    1  0.4836188E-013  0.5052887E+02  0.7816164E-02  0.1300439E+00
        -11   -1    0    0    0    0  0.00000000000E+00  0.00000000000E+00  0.45593999997E+02  0.45594000000E+02  0.51100000000E-03 0. -1.
         11   -1    0    0    0    0 -0.00000000000E+00 -0.00000000000E+00 -0.45593999997E+02  0.45594000000E+02  0.51100000000E-03 0.  1.
    9900012    2    1    2    0    0 -0.34652657733E+02 -0.21203774240E+02  0.16607441663E+01  0.50528870629E+02  0.30000032765E+02 0.  0.
         12    1    1    2    0    0  0.34652657733E+02  0.21203774240E+02 -0.16607441663E+01  0.40659129371E+02  0.00000000000E+00 0. -1.
         11    1    3    3    0    0  0.41236954337E+00  0.16104410319E+01  0.16949377832E+01  0.23741068441E+01  0.51100000000E-03 0. -1.
        -11    1    3    3    0    0 -0.50057875280E+01 -0.36511144046E+01 -0.94354634312E+01  0.11287892434E+02  0.51100000000E-03 0.  1.
        -12    1    3    3    0    0 -0.30059239748E+02 -0.19163100868E+02  0.94012698144E+01  0.36866871351E+02  0.00000000000E+00 0.  1.
</event>
<event>
 7    1  0.4836188E-013  0.5052885E+02  0.7816164E-02  0.1300439E+00
        -11   -1    0    0    0    0  0.00000000000E+00  0.00000000000E+00  0.45593999997E+02  0.45594000000E+02  0.51100000000E-03 0.  1.
         11   -1    0    0    0    0 -0.00000000000E+00 -0.00000000000E+00 -0.45593999997E+02  0.45594000000E+02  0.51100000000E-03 0. -1.
    9900012    2    1    2    0    0 -0.29300851788E+02 -0.20481248990E+02  0.19368662221E+02  0.50528849100E+02  0.29999967326E+02 0.  0.
         12    1    1    2    0    0  0.29300851788E+02  0.20481248990E+02 -0.19368662221E+02  0.40659150900E+02  0.00000000000E+00 0. -1.
         11    1    3    3    0    0 -0.49445914534E+01 -0.65161022827E+01 -0.35179744318E+00  0.81873277265E+01  0.51100000000E-03 0. -1.
        -11    1    3    3    0    0 -0.30885895977E+01 -0.13419203060E+02  0.15352390195E+02  0.20623052185E+02  0.51100000000E-03 0.  1.
        -12    1    3    3    0    0 -0.21267670737E+02 -0.54594364714E+00  0.43680694689E+01  0.21718469189E+02  0.00000000000E+00 0.  1.
</event>
<event>
 7    1  0.4836188E-013  0.5052886E+02  0.7816164E-02  0.1300439E+00
        -11   -1    0    0    0    0  0.00000000000E+00  0.00000000000E+00  0.45593999997E+02  0.45594000000E+02  0.51100000000E-03 0.  1.
         11   -1    0    0    0    0 -0.00000000000E+00 -0.00000000000E+00 -0.45593999997E+02  0.45594000000E+02  0.51100000000E-03 0. -1.
    9900012    2    1    2    0    0 -0.20744360722E+01 -0.20203329612E+02  0.35223395959E+02  0.50528862831E+02  0.30000009062E+02 0.  0.
         12    1    1    2    0    0  0.20744360722E+01  0.20203329612E+02 -0.35223395959E+02  0.40659137169E+02  0.00000000000E+00 0. -1.
         11    1    3    3    0    0 -0.54963577012E+00  0.11018410001E+01  0.10245519865E+02  0.10319245643E+02  0.51100000000E-03 0. -1.
        -11    1    3    3    0    0 -0.92507186603E+01 -0.18103415826E+02  0.24495015339E+02  0.31832612790E+02  0.51100000000E-03 0.  1.
         12    1    3    3    0    0  0.77259183582E+01 -0.32017547857E+01  0.48286075446E+00  0.83770043986E+01  0.00000000000E+00 0. -1.
</event>
<event>
 7    1  0.4836188E-013  0.5052884E+02  0.7816164E-02  0.1300439E+00
        -11   -1    0    0    0    0  0.00000000000E+00  0.00000000000E+00  0.45593999997E+02  0.45594000000E+02  0.51100000000E-03 0.  1.
         11   -1    0    0    0    0 -0.00000000000E+00 -0.00000000000E+00 -0.45593999997E+02  0.45594000000E+02  0.51100000000E-03 0. -1.
    9900012    2    1    2    0    0 -0.70196270769E+00 -0.40545154823E+02  0.29605025275E+01  0.50528844739E+02  0.29999954069E+02 0.  0.
         12    1    1    2    0    0  0.70196270769E+00  0.40545154823E+02 -0.29605025275E+01  0.40659155261E+02  0.00000000000E+00 0. -1.
         11    1    3    3    0    0 -0.57536448932E+01 -0.16530681003E+02 -0.93561847956E+01  0.19847066236E+02  0.51100000000E-03 0. -1.
        -11    1    3    3    0    0 -0.26912595563E+01 -0.36036664290E+01 -0.16219368361E+01  0.47812100030E+01  0.51100000000E-03 0.  1.
        -12    1    3    3    0    0  0.77429417418E+01 -0.20410807392E+02  0.13938624159E+02  0.25900568500E+02  0.00000000000E+00 0.  1.
</event>
<event>
 7    1  0.4836188E-013  0.5052886E+02  0.7816164E-02  0.1300439E+00
        -11   -1    0    0    0    0  0.00000000000E+00  0.00000000000E+00  0.45593999997E+02  0.45594000000E+02  0.51100000000E-03 0.  1.
         11   -1    0    0    0    0 -0.00000000000E+00 -0.00000000000E+00 -0.45593999997E+02  0.45594000000E+02  0.51100000000E-03 0. -1.
    9900012    2    1    2    0    0 -0.55763794114E+01 -0.81537279311E+01  0.39440921307E+02  0.50528861297E+02  0.30000004399E+02 0.  0.
         12    1    1    2    0    0  0.55763794114E+01  0.81537279311E+01 -0.39440921307E+02  0.40659138703E+02  0.00000000000E+00 0. -1.
         11    1    3    3    0    0  0.19108215118E+01  0.15808736436E+01 -0.18186428013E+01  0.30753637552E+01  0.51100000000E-03 0. -1.
        -11    1    3    3    0    0  0.56568944483E+01 -0.80839269272E+01  0.21604530213E+02  0.23750916937E+02  0.51100000000E-03 0.  1.
         12    1    3    3    0    0 -0.13144095371E+02 -0.16506746476E+01  0.19655033895E+02  0.23702580605E+02  0.00000000000E+00 0. -1.
</event>
<event>
 7    1  0.4836188E-013  0.5052887E+02  0.7816164E-02  0.1300439E+00
        -11   -1    0    0    0    0  0.00000000000E+00  0.00000000000E+00  0.45593999997E+02  0.45594000000E+02  0.51100000000E-03 0. -1.
         11   -1    0    0    0    0 -0.00000000000E+00 -0.00000000000E+00 -0.45593999997E+02  0.45594000000E+02  0.51100000000E-03 0.  1.
    9900012    2    1    2    0    0 -0.74045297220E+01  0.19567415192E+02 -0.34863368261E+02  0.50528865181E+02  0.30000016205E+02 0.  0.
         12    1    1    2    0    0  0.74045297220E+01 -0.19567415192E+02  0.34863368261E+02  0.40659134819E+02  0.00000000000E+00 0. -1.
         11    1    3    3    0    0 -0.79704048662E+01  0.16856063063E+02 -0.10218215266E+02  0.21261847031E+02  0.51100000000E-03 0. -1.
        -11    1    3    3    0    0 -0.17058626896E+01  0.86150168674E+01 -0.99690986896E+01  0.13285759748E+02  0.51100000000E-03 0.  1.
         12    1    3    3    0    0  0.22717378337E+01 -0.59036647380E+01 -0.14676054305E+02  0.15981258402E+02  0.00000000000E+00 0. -1.
</event>
<event>
 7    1  0.4836188E-013  0.5052886E+02  0.7816164E-02  0.1300439E+00
        -11   -1    0    0    0    0  0.00000000000E+00  0.00000000000E+00  0.45593999997E+02  0.45594000000E+02  0.51100000000E-03 0.  1.
         11   -1    0    0    0    0 -0.00000000000E+00 -0.00000000000E+00 -0.45593999997E+02  0.45594000000E+02  0.51100000000E-03 0. -1.
    9900012    2    1    2    0    0  0.36107990439E+01  0.53862884136E+01  0.40138702197E+02  0.50528863429E+02  0.30000010880E+02 0.  0.
         12    1    1    2    0    0 -0.36107990439E+01 -0.53862884136E+01 -0.40138702197E+02  0.40659136571E+02  0.00000000000E+00 0. -1.
         11    1    3    3    0    0  0.26335344846E+01 -0.10435594217E+02  0.63568250958E+01  0.12499854243E+02  0.51100000000E-03 0. -1.
        -11    1    3    3    0    0 -0.22318791077E+01  0.81994594472E+01  0.11788939037E+02  0.14532429372E+02  0.51100000000E-03 0.  1.
        -12    1    3    3    0    0  0.32091436669E+01  0.76224231832E+01  0.21992938065E+02  0.23496579814E+02  0.00000000000E+00 0.  1.
</event>
<event>
 7    1  0.4836188E-013  0.5052886E+02  0.7816164E-02  0.1300439E+00
        -11   -1    0    0    0    0  0.00000000000E+00  0.00000000000E+00  0.45593999997E+02  0.45594000000E+02  0.51100000000E-03 0.  1.
         11   -1    0    0    0    0 -0.00000000000E+00 -0.00000000000E+00 -0.45593999997E+02  0.45594000000E+02  0.51100000000E-03 0. -1.
    9900012    2    1    2    0    0 -0.18214012010E+02  0.18777520440E+02  0.31125873278E+02  0.50528862101E+02  0.30000006843E+02 0.  0.
         12    1    1    2    0    0  0.18214012010E+02 -0.18777520440E+02 -0.31125873278E+02  0.40659137899E+02  0.00000000000E+00 0. -1.
         11    1    3    3    0    0 -0.73677201171E+01  0.52611523218E+00  0.81708058571E+00  0.74315353667E+01  0.51100000000E-03 0. -1.
        -11    1    3    3    0    0 -0.26618366593E+01  0.13684885008E+02  0.30482975062E+01  0.14270724230E+02  0.51100000000E-03 0.  1.
        -12    1    3    3    0    0 -0.81844552340E+01  0.45665201992E+01  0.27260495186E+02  0.28826602505E+02  0.00000000000E+00 0.  1.
</event>
<event>
 7    1  0.4836188E-013  0.5052886E+02  0.7816164E-02  0.1300439E+00
        -11   -1    0    0    0    0  0.00000000000E+00  0.00000000000E+00  0.45593999997E+02  0.45594000000E+02  0.51100000000E-03 0.  1.
         11   -1    0    0    0    0 -0.00000000000E+00 -0.00000000000E+00 -0.45593999997E+02  0.45594000000E+02  0.51100000000E-03 0. -1.
    9900012    2    1    2    0    0 -0.50410167204E+01 -0.39998790036E+02 -0.52773862889E+01  0.50528857609E+02  0.29999993188E+02 0.  0.
         12    1    1    2    0    0  0.50410167204E+01  0.39998790036E+02  0.52773862889E+01  0.40659142391E+02  0.00000000000E+00 0. -1.
         11    1    3    3    0    0 -0.39932483151E+01 -0.52285824770E+01  0.16897243695E+01  0.67925897514E+01  0.51100000000E-03 0. -1.
        -11    1    3    3    0    0 -0.66998024500E+00 -0.21049482374E+01  0.76391513482E+01  0.79521263944E+01  0.51100000000E-03 0.  1.
         12    1    3    3    0    0 -0.37778816022E+00 -0.32665259322E+02 -0.14606262007E+02  0.35784141463E+02  0.00000000000E+00 0. -1.
</event>
<event>
 7    1  0.4836188E-013  0.5052883E+02  0.7816164E-02  0.1300439E+00
        -11   -1    0    0    0    0  0.00000000000E+00  0.00000000000E+00  0.45593999997E+02  0.45594000000E+02  0.51100000000E-03 0. -1.
         11   -1    0    0    0    0 -0.00000000000E+00 -0.00000000000E+00 -0.45593999997E+02  0.45594000000E+02  0.51100000000E-03 0.  1.
    9900012    2    1    2    0    0 -0.38423508354E+02  0.80288060185E+01 -0.10599085325E+02  0.50528827233E+02  0.29999900858E+02 0.  0.
         12    1    1    2    0    0  0.38423508354E+02 -0.80288060185E+01  0.10599085325E+02  0.40659172767E+02  0.00000000000E+00 0. -1.
         11    1    3    3    0    0 -0.62215252214E+00  0.45506996548E+01 -0.58743961264E+01  0.74568405656E+01  0.51100000000E-03 0. -1.
        -11    1    3    3    0    0 -0.14730143730E+02 -0.78391881327E+01 -0.48408000041E+01  0.17374215085E+02  0.51100000000E-03 0.  1.
         12    1    3    3    0    0 -0.23071212102E+02  0.11317294496E+02  0.11611080568E+00  0.25697771583E+02  0.00000000000E+00 0. -1.
</event>
<event>
 7    1  0.4836188E-013  0.5052886E+02  0.7816164E-02  0.1300439E+00
        -11   -1    0    0    0    0  0.00000000000E+00  0.00000000000E+00  0.45593999997E+02  0.45594000000E+02  0.51100000000E-03 0.  1.
         11   -1    0    0    0    0 -0.00000000000E+00 -0.00000000000E+00 -0.45593999997E+02  0.45594000000E+02  0.51100000000E-03 0. -1.
    9900012    2    1    2    0    0  0.38654175039E+02  0.47652309961E+01  0.11675329232E+02  0.50528856046E+02  0.29999988437E+02 0.  0.
         12    1    1    2    0    0 -0.38654175039E+02 -0.47652309961E+01 -0.11675329232E+02  0.40659143954E+02  0.00000000000E+00 0. -1.
         11    1    3    3    0    0  0.85044507595E+01  0.72820746678E+01  0.32101469979E+01  0.11647288878E+02  0.51100000000E-03 0.  1.
        -11    1    3    3    0    0  0.16429533902E+02  0.10111251795E+02  0.47549831292E+01  0.19868992474E+02  0.51100000000E-03 0. -1.
         12    1    3    3    0    0  0.13720190377E+02 -0.12628095467E+02  0.37101991049E+01  0.19012574694E+02  0.00000000000E+00 0. -1.
</event>
<event>
 7    1  0.4836188E-013  0.5052886E+02  0.7816164E-02  0.1300439E+00
        -11   -1    0    0    0    0  0.00000000000E+00  0.00000000000E+00  0.45593999997E+02  0.45594000000E+02  0.51100000000E-03 0.  1.
         11   -1    0    0    0    0 -0.00000000000E+00 -0.00000000000E+00 -0.45593999997E+02  0.45594000000E+02  0.51100000000E-03 0. -1.
    9900012    2    1    2    0    0 -0.35195591515E+01  0.38880310288E+02  0.11362215617E+02  0.50528858734E+02  0.29999996609E+02 0.  0.
         12    1    1    2    0    0  0.35195591515E+01 -0.38880310288E+02 -0.11362215617E+02  0.40659141266E+02  0.00000000000E+00 0. -1.
         11    1    3    3    0    0 -0.12635386745E+02  0.97669414899E+01  0.99741760373E+01  0.18828975865E+02  0.51100000000E-03 0. -1.
        -11    1    3    3    0    0  0.37430209576E+00  0.81452743743E+01 -0.27573469034E+01  0.86074711093E+01  0.51100000000E-03 0.  1.
        -12    1    3    3    0    0  0.87415254974E+01  0.20968094424E+02  0.41453864834E+01  0.23092411760E+02  0.00000000000E+00 0.  1.
</event>
<event>
 7    1  0.4836188E-013  0.5052885E+02  0.7816164E-02  0.1300439E+00
        -11   -1    0    0    0    0  0.00000000000E+00  0.00000000000E+00  0.45593999997E+02  0.45594000000E+02  0.51100000000E-03 0.  1.
         11   -1    0    0    0    0 -0.00000000000E+00 -0.00000000000E+00 -0.45593999997E+02  0.45594000000E+02  0.51100000000E-03 0. -1.
    9900012    2    1    2    0    0  0.13483257982E+02  0.30330942836E+02  0.23481946864E+02  0.50528853825E+02  0.29999981687E+02 0.  0.
         12    1    1    2    0    0 -0.13483257982E+02 -0.30330942836E+02 -0.23481946864E+02  0.40659146175E+02  0.00000000000E+00 0. -1.
         11    1    3    3    0    0  0.10570110050E+02  0.63883118166E+01  0.90743013957E+01  0.15325818099E+02  0.51100000000E-03 0. -1.
        -11    1    3    3    0    0 -0.56830177730E+01  0.39077567012E+01  0.11219744177E+02  0.13170038462E+02  0.51100000000E-03 0.  1.
         12    1    3    3    0    0  0.85961657055E+01  0.20034874318E+02  0.31879012918E+01  0.22032997264E+02  0.00000000000E+00 0. -1.
</event>
<event>
 7    1  0.4836188E-013  0.5052886E+02  0.7816164E-02  0.1300439E+00
        -11   -1    0    0    0    0  0.00000000000E+00  0.00000000000E+00  0.45593999997E+02  0.45594000000E+02  0.51100000000E-03 0.  1.
         11   -1    0    0    0    0 -0.00000000000E+00 -0.00000000000E+00 -0.45593999997E+02  0.45594000000E+02  0.51100000000E-03 0. -1.
    9900012    2    1    2    0    0  0.33842631073E+02 -0.22422414302E+02  0.22533232790E+01  0.50528858262E+02  0.29999995174E+02 0.  0.
         12    1    1    2    0    0 -0.33842631073E+02  0.22422414302E+02 -0.22533232790E+01  0.40659141738E+02  0.00000000000E+00 0. -1.
         11    1    3    3    0    0  0.13584999222E+01 -0.50395299721E+01  0.72035136750E+01  0.88956727629E+01  0.51100000000E-03 0. -1.
        -11    1    3    3    0    0  0.20081667006E+01 -0.63110231997E+01  0.43224136490E+01  0.79085401522E+01  0.51100000000E-03 0.  1.
        -12    1    3    3    0    0  0.30475964450E+02 -0.11071861130E+02 -0.92726040449E+01  0.33724645347E+02  0.00000000000E+00 0.  1.
</event>
<event>
 7    1  0.4836188E-013  0.5052886E+02  0.7816164E-02  0.1300439E+00
        -11   -1    0    0    0    0  0.00000000000E+00  0.00000000000E+00  0.45593999997E+02  0.45594000000E+02  0.51100000000E-03 0.  1.
         11   -1    0    0    0    0 -0.00000000000E+00 -0.00000000000E+00 -0.45593999997E+02  0.45594000000E+02  0.51100000000E-03 0. -1.
    9900012    2    1    2    0    0  0.10613778461E+02 -0.21494291442E+02  0.32840658350E+02  0.50528859593E+02  0.29999999218E+02 0.  0.
         12    1    1    2    0    0 -0.10613778461E+02  0.21494291442E+02 -0.32840658350E+02  0.40659140407E+02  0.00000000000E+00 0. -1.
         11    1    3    3    0    0 -0.26207348203E+01 -0.78320835260E+01  0.67671719688E+00  0.82865994100E+01  0.51100000000E-03 0. -1.
        -11    1    3    3    0    0  0.93443699429E+01 -0.85102071729E+01  0.38654728371E+01  0.13216760430E+02  0.51100000000E-03 0.  1.
         12    1    3    3    0    0  0.38901433385E+01 -0.51520007431E+01  0.28298468316E+02  0.29025499752E+02  0.00000000000E+00 0. -1.
</event>
<event>
 7    1  0.4836188E-013  0.5052883E+02  0.7816164E-02  0.1300439E+00
        -11   -1    0    0    0    0  0.00000000000E+00  0.00000000000E+00  0.45593999997E+02  0.45594000000E+02  0.51100000000E-03 0.  1.
         11   -1    0    0    0    0 -0.00000000000E+00 -0.00000000000E+00 -0.45593999997E+02  0.45594000000E+02  0.51100000000E-03 0. -1.
    9900012    2    1    2    0    0 -0.12920433667E+02 -0.37971489795E+02 -0.66630483988E+01  0.50528833047E+02  0.29999918529E+02 0.  0.
         12    1    1    2    0    0  0.12920433667E+02  0.37971489795E+02  0.66630483988E+01  0.40659166953E+02  0.00000000000E+00 0. -1.
         11    1    3    3    0    0 -0.21340127762E+01  0.28323804133E+01  0.19941248341E+01  0.40685284133E+01  0.51100000000E-03 0. -1.
        -11    1    3    3    0    0 -0.68611908510E+01 -0.78353083860E+01 -0.82004294871E+01  0.13255755031E+02  0.51100000000E-03 0.  1.
         12    1    3    3    0    0 -0.39252300394E+01 -0.32968561822E+02 -0.45674374579E+00  0.33204549603E+02  0.00000000000E+00 0. -1.
</event>
<event>
 7    1  0.4836188E-013  0.5052888E+02  0.7816164E-02  0.1300439E+00
        -11   -1    0    0    0    0  0.00000000000E+00  0.00000000000E+00  0.45593999997E+02  0.45594000000E+02  0.51100000000E-03 0. -1.
         11   -1    0    0    0    0 -0.00000000000E+00 -0.00000000000E+00 -0.45593999997E+02  0.45594000000E+02  0.51100000000E-03 0.  1.
    9900012    2    1    2    0    0  0.24514449534E+01 -0.33357568291E+02 -0.23117676123E+02  0.50528881785E+02  0.30000066674E+02 0.  0.
         12    1    1    2    0    0 -0.24514449534E+01  0.33357568291E+02  0.23117676123E+02  0.40659118215E+02  0.00000000000E+00 0. -1.
         11    1    3    3    0    0  0.83314053622E+01 -0.41667291993E+01 -0.21319386447E+01  0.95561032945E+01  0.51100000000E-03 0. -1.
        -11    1    3    3    0    0  0.26520995232E+00 -0.17688680458E+01 -0.11007333594E+02  0.11151709447E+02  0.51100000000E-03 0.  1.
        -12    1    3    3    0    0 -0.61451703611E+01 -0.27421971046E+02 -0.99784038847E+01  0.29821069044E+02  0.00000000000E+00 0.  1.
</event>
<event>
 7    1  0.4836188E-013  0.5052887E+02  0.7816164E-02  0.1300439E+00
        -11   -1    0    0    0    0  0.00000000000E+00  0.00000000000E+00  0.45593999997E+02  0.45594000000E+02  0.51100000000E-03 0.  1.
         11   -1    0    0    0    0 -0.00000000000E+00 -0.00000000000E+00 -0.45593999997E+02  0.45594000000E+02  0.51100000000E-03 0. -1.
    9900012    2    1    2    0    0 -0.30493000789E+02 -0.16476378578E+02  0.21257258091E+02  0.50528866097E+02  0.30000018988E+02 0.  0.
         12    1    1    2    0    0  0.30493000789E+02  0.16476378578E+02 -0.21257258091E+02  0.40659133903E+02  0.00000000000E+00 0. -1.
         11    1    3    3    0    0 -0.17723354393E+02 -0.73406821628E+01  0.17383666325E+02  0.25888120069E+02  0.51100000000E-03 0. -1.
        -11    1    3    3    0    0 -0.88145997421E+00 -0.12714333980E-01  0.88171589973E+01  0.88611187998E+01  0.51100000000E-03 0.  1.
         12    1    3    3    0    0 -0.11888186423E+02 -0.91229820815E+01 -0.49435672316E+01  0.15779627228E+02  0.00000000000E+00 0. -1.
</event>
<event>
 7    1  0.4836188E-013  0.5052886E+02  0.7816164E-02  0.1300439E+00
        -11   -1    0    0    0    0  0.00000000000E+00  0.00000000000E+00  0.45593999997E+02  0.45594000000E+02  0.51100000000E-03 0.  1.
         11   -1    0    0    0    0 -0.00000000000E+00 -0.00000000000E+00 -0.45593999997E+02  0.45594000000E+02  0.51100000000E-03 0. -1.
    9900012    2    1    2    0    0  0.28874166072E+02 -0.12265216982E+02  0.25865272629E+02  0.50528863978E+02  0.30000012546E+02 0.  0.
         12    1    1    2    0    0 -0.28874166072E+02  0.12265216982E+02 -0.25865272629E+02  0.40659136022E+02  0.00000000000E+00 0. -1.
         11    1    3    3    0    0  0.13061624922E+02 -0.13534307958E+02  0.96506058501E+01  0.21140428828E+02  0.51100000000E-03 0. -1.
        -11    1    3    3    0    0  0.10977482075E+02 -0.45912252369E+01  0.18006242285E+02  0.21582613914E+02  0.51100000000E-03 0.  1.
        -12    1    3    3    0    0  0.48350590741E+01  0.58603162128E+01 -0.17915755062E+01  0.78058212353E+01  0.00000000000E+00 0.  1.
</event>
<event>
 7    1  0.4836188E-013  0.5052886E+02  0.7816164E-02  0.1300439E+00
        -11   -1    0    0    0    0  0.00000000000E+00  0.00000000000E+00  0.45593999997E+02  0.45594000000E+02  0.51100000000E-03 0.  1.
         11   -1    0    0    0    0 -0.00000000000E+00 -0.00000000000E+00 -0.45593999997E+02  0.45594000000E+02  0.51100000000E-03 0. -1.
    9900012    2    1    2    0    0  0.17837778111E+02  0.36086483064E+02 -0.57222960225E+01  0.50528864991E+02  0.30000015628E+02 0.  0.
         12    1    1    2    0    0 -0.17837778111E+02 -0.36086483064E+02  0.57222960225E+01  0.40659135009E+02  0.00000000000E+00 0. -1.
         11    1    3    3    0    0 -0.14408299790E+01  0.25920260786E+02 -0.57123789083E+01  0.26581331480E+02  0.51100000000E-03 0. -1.
        -11    1    3    3    0    0  0.82363549574E+01  0.74396686330E+01 -0.41415563118E+01  0.11846463662E+02  0.51100000000E-03 0.  1.
        -12    1    3    3    0    0  0.11042253133E+02  0.27265536457E+01  0.41316391976E+01  0.12101069849E+02  0.00000000000E+00 0.  1.
</event>
<event>
 7    1  0.4836188E-013  0.5052886E+02  0.7816164E-02  0.1300439E+00
        -11   -1    0    0    0    0  0.00000000000E+00  0.00000000000E+00  0.45593999997E+02  0.45594000000E+02  0.51100000000E-03 0.  1.
         11   -1    0    0    0    0 -0.00000000000E+00 -0.00000000000E+00 -0.45593999997E+02  0.45594000000E+02  0.51100000000E-03 0. -1.
    9900012    2    1    2    0    0  0.23494288565E+02  0.33136222913E+02  0.17818557165E+01  0.50528857437E+02  0.29999992666E+02 0.  0.
         12    1    1    2    0    0 -0.23494288565E+02 -0.33136222913E+02 -0.17818557165E+01  0.40659142563E+02  0.00000000000E+00 0. -1.
         11    1    3    3    0    0  0.38935722686E+01 -0.20663744249E+01  0.74783925163E+01  0.86807927728E+01  0.51100000000E-03 0. -1.
        -11    1    3    3    0    0  0.30242049259E+01  0.13796192377E+02  0.26068616574E+00  0.14126170645E+02  0.51100000000E-03 0.  1.
        -12    1    3    3    0    0  0.16576511371E+02  0.21406404961E+02 -0.59572229656E+01  0.27721894020E+02  0.00000000000E+00 0.  1.
</event>
<event>
 7    1  0.4836188E-013  0.5052886E+02  0.7816164E-02  0.1300439E+00
        -11   -1    0    0    0    0  0.00000000000E+00  0.00000000000E+00  0.45593999997E+02  0.45594000000E+02  0.51100000000E-03 0. -1.
         11   -1    0    0    0    0 -0.00000000000E+00 -0.00000000000E+00 -0.45593999997E+02  0.45594000000E+02  0.51100000000E-03 0.  1.
    9900012    2    1    2    0    0  0.39388656912E+02  0.10018243536E+02  0.11551891251E+01  0.50528856393E+02  0.29999989493E+02 0.  0.
         12    1    1    2    0    0 -0.39388656912E+02 -0.10018243536E+02 -0.11551891251E+01  0.40659143607E+02  0.00000000000E+00 0. -1.
         11    1    3    3    0    0  0.65106548989E+01  0.87416174945E+01  0.59375830140E+01  0.12412066546E+02  0.51100000000E-03 0. -1.
        -11    1    3    3    0    0  0.13905561732E+02 -0.47950206126E+01  0.54944727953E+01  0.15701786565E+02  0.51100000000E-03 0.  1.
        -12    1    3    3    0    0  0.18972440281E+02  0.60716466545E+01 -0.10276866684E+02  0.22415003283E+02  0.00000000000E+00 0.  1.
</event>
<event>
 7    1  0.4836188E-013  0.5052886E+02  0.7816164E-02  0.1300439E+00
        -11   -1    0    0    0    0  0.00000000000E+00  0.00000000000E+00  0.45593999997E+02  0.45594000000E+02  0.51100000000E-03 0. -1.
         11   -1    0    0    0    0 -0.00000000000E+00 -0.00000000000E+00 -0.45593999997E+02  0.45594000000E+02  0.51100000000E-03 0.  1.
    9900012    2    1    2    0    0  0.34050089100E+02 -0.21345241976E+02  0.61755773290E+01  0.50528859846E+02  0.29999999987E+02 0.  0.
         12    1    1    2    0    0 -0.34050089100E+02  0.21345241976E+02 -0.61755773290E+01  0.40659140154E+02  0.00000000000E+00 0. -1.
         11    1    3    3    0    0  0.12637566919E+02 -0.17549243349E+02  0.27088664229E+01  0.21794999365E+02  0.51100000000E-03 0. -1.
        -11    1    3    3    0    0 -0.15217189346E+01  0.21274678811E+01 -0.31939717051E+01  0.41283415090E+01  0.51100000000E-03 0.  1.
         12    1    3    3    0    0  0.22934241116E+02 -0.59234665080E+01  0.66606826112E+01  0.24605518972E+02  0.00000000000E+00 0. -1.
</event>
<event>
 7    1  0.4836188E-013  0.5052882E+02  0.7816164E-02  0.1300439E+00
        -11   -1    0    0    0    0  0.00000000000E+00  0.00000000000E+00  0.45593999997E+02  0.45594000000E+02  0.51100000000E-03 0. -1.
         11   -1    0    0    0    0 -0.00000000000E+00 -0.00000000000E+00 -0.45593999997E+02  0.45594000000E+02  0.51100000000E-03 0.  1.
    9900012    2    1    2    0    0 -0.91222829992E+01  0.14100733093E+02 -0.37028669834E+02  0.50528817636E+02  0.29999871685E+02 0.  0.
         12    1    1    2    0    0  0.91222829992E+01 -0.14100733093E+02  0.37028669834E+02  0.40659182364E+02  0.00000000000E+00 0. -1.
         11    1    3    3    0    0  0.10649563052E+02  0.51194129313E+01 -0.13001104794E+02  0.17568446376E+02  0.51100000000E-03 0. -1.
        -11    1    3    3    0    0 -0.22902452225E+01  0.32141977106E+01 -0.26729259222E+01  0.47666364817E+01  0.51100000000E-03 0.  1.
        -12    1    3    3    0    0 -0.17481600828E+02  0.57671224513E+01 -0.21354639118E+02  0.28193734778E+02  0.00000000000E+00 0.  1.
</event>
<event>
 7    1  0.4836188E-013  0.5052887E+02  0.7816164E-02  0.1300439E+00
        -11   -1    0    0    0    0  0.00000000000E+00  0.00000000000E+00  0.45593999997E+02  0.45594000000E+02  0.51100000000E-03 0. -1.
         11   -1    0    0    0    0 -0.00000000000E+00 -0.00000000000E+00 -0.45593999997E+02  0.45594000000E+02  0.51100000000E-03 0.  1.
    9900012    2    1    2    0    0 -0.18874360640E+02 -0.65586324160E+01 -0.35410560138E+02  0.50528869192E+02  0.30000028397E+02 0.  0.
         12    1    1    2    0    0  0.18874360640E+02  0.65586324160E+01  0.35410560138E+02  0.40659130808E+02  0.00000000000E+00 0. -1.
         11    1    3    3    0    0  0.37379126169E+00 -0.22582652983E+01 -0.91287514017E+01  0.94113540195E+01  0.51100000000E-03 0.  1.
        -11    1    3    3    0    0  0.28657357921E+01  0.28191600096E+01 -0.14543187091E+02  0.15088551813E+02  0.51100000000E-03 0. -1.
         12    1    3    3    0    0 -0.22113887693E+02 -0.71195271274E+01 -0.11738621645E+02  0.26028963359E+02  0.00000000000E+00 0. -1.
</event>
<event>
 7    1  0.4836188E-013  0.5052880E+02  0.7816164E-02  0.1300439E+00
        -11   -1    0    0    0    0  0.00000000000E+00  0.00000000000E+00  0.45593999997E+02  0.45594000000E+02  0.51100000000E-03 0.  1.
         11   -1    0    0    0    0 -0.00000000000E+00 -0.00000000000E+00 -0.45593999997E+02  0.45594000000E+02  0.51100000000E-03 0. -1.
    9900012    2    1    2    0    0 -0.13135033943E+02 -0.16913483484E+01  0.38441909739E+02  0.50528804234E+02  0.29999830950E+02 0.  0.
         12    1    1    2    0    0  0.13135033943E+02  0.16913483484E+01 -0.38441909739E+02  0.40659195766E+02  0.00000000000E+00 0. -1.
         11    1    3    3    0    0 -0.49369194474E+01 -0.93263261256E+01  0.16219047483E+02  0.19349703722E+02  0.51100000000E-03 0. -1.
        -11    1    3    3    0    0  0.70880127336E+00 -0.70887339937E+00 -0.29976171333E+01  0.31607925399E+01  0.51100000000E-03 0.  1.
        -12    1    3    3    0    0 -0.89069157691E+01  0.83438511765E+01  0.25220479390E+02  0.28018307972E+02  0.00000000000E+00 0.  1.
</event>
<event>
 7    1  0.4836188E-013  0.5052885E+02  0.7816164E-02  0.1300439E+00
        -11   -1    0    0    0    0  0.00000000000E+00  0.00000000000E+00  0.45593999997E+02  0.45594000000E+02  0.51100000000E-03 0. -1.
         11   -1    0    0    0    0 -0.00000000000E+00 -0.00000000000E+00 -0.45593999997E+02  0.45594000000E+02  0.51100000000E-03 0.  1.
    9900012    2    1    2    0    0 -0.92653108663E+01 -0.32715664640E+02  0.22293622717E+02  0.50528852048E+02  0.29999976286E+02 0.  0.
         12    1    1    2    0    0  0.92653108663E+01  0.32715664640E+02 -0.22293622717E+02  0.40659147952E+02  0.00000000000E+00 0. -1.
         11    1    3    3    0    0  0.10700649063E+00  0.32527462018E+01  0.57432434351E+01  0.66012615202E+01  0.51100000000E-03 0. -1.
        -11    1    3    3    0    0 -0.48370374186E+01 -0.20166957902E+02  0.17950680090E+02  0.27428635364E+02  0.51100000000E-03 0.  1.
        -12    1    3    3    0    0 -0.45352799383E+01 -0.15801452941E+02 -0.14003008076E+01  0.16498955164E+02  0.00000000000E+00 0.  1.
</event>
<event>
 7    1  0.7986931E-013  0.5052886E+02  0.7816164E-02  0.1300439E+00
        -11   -1    0    0    0    0  0.00000000000E+00  0.00000000000E+00  0.45593999997E+02  0.45594000000E+02  0.51100000000E-03 0.  1.
         11   -1    0    0    0    0 -0.00000000000E+00 -0.00000000000E+00 -0.45593999997E+02  0.45594000000E+02  0.51100000000E-03 0. -1.
    9900012    2    1    2    0    0  0.27450757969E+02  0.57962727117E+01  0.29428295010E+02  0.50528862803E+02  0.30000008976E+02 0.  0.
         12    1    1    2    0    0 -0.27450757969E+02 -0.57962727117E+01 -0.29428295010E+02  0.40659137197E+02  0.00000000000E+00 0. -1.
         11    1    3    3    0    0  0.56198947307E+01  0.11697661241E+02  0.14837181800E+02  0.19711936976E+02  0.51100000000E-03 0. -1.
        -11    1    3    3    0    0  0.13437152434E+02  0.22264561336E+01  0.13342078131E+02  0.19066337392E+02  0.51100000000E-03 0.  1.
         12    1    3    3    0    0  0.83937108043E+01 -0.81278446632E+01  0.12490350787E+01  0.11750588435E+02  0.00000000000E+00 0. -1.
</event>
<event>
 7    1  0.4836188E-013  0.5052886E+02  0.7816164E-02  0.1300439E+00
        -11   -1    0    0    0    0  0.00000000000E+00  0.00000000000E+00  0.45593999997E+02  0.45594000000E+02  0.51100000000E-03 0. -1.
         11   -1    0    0    0    0 -0.00000000000E+00 -0.00000000000E+00 -0.45593999997E+02  0.45594000000E+02  0.51100000000E-03 0.  1.
    9900012    2    1    2    0    0  0.26234624287E+02  0.27875793470E+02 -0.13705847115E+02  0.50528860582E+02  0.30000002225E+02 0.  0.
         12    1    1    2    0    0 -0.26234624287E+02 -0.27875793470E+02  0.13705847115E+02  0.40659139418E+02  0.00000000000E+00 0. -1.
         11    1    3    3    0    0 -0.31722476330E+01  0.45613614466E+01 -0.21099494288E+01  0.59431523743E+01  0.51100000000E-03 0.  1.
        -11    1    3    3    0    0 -0.80896726777E+00  0.22575226743E+01  0.39410981826E+01  0.46133601433E+01  0.51100000000E-03 0. -1.
        -12    1    3    3    0    0  0.30215839188E+02  0.21056909349E+02 -0.15536995869E+02  0.39972348064E+02  0.00000000000E+00 0.  1.
</event>
<event>
 7    1  0.4836188E-013  0.5052886E+02  0.7816164E-02  0.1300439E+00
        -11   -1    0    0    0    0  0.00000000000E+00  0.00000000000E+00  0.45593999997E+02  0.45594000000E+02  0.51100000000E-03 0. -1.
         11   -1    0    0    0    0 -0.00000000000E+00 -0.00000000000E+00 -0.45593999997E+02  0.45594000000E+02  0.51100000000E-03 0.  1.
    9900012    2    1    2    0    0 -0.16114312929E+02  0.27870355877E+02 -0.24834208303E+02  0.50528859331E+02  0.29999998423E+02 0.  0.
         12    1    1    2    0    0  0.16114312929E+02 -0.27870355877E+02  0.24834208303E+02  0.40659140669E+02  0.00000000000E+00 0. -1.
         11    1    3    3    0    0  0.29812450005E+01  0.47105494833E-01 -0.20474113533E+01  0.36168956567E+01  0.51100000000E-03 0. -1.
        -11    1    3    3    0    0 -0.67443351213E+01  0.20762002601E+02 -0.24227911346E+02  0.32611937948E+02  0.51100000000E-03 0.  1.
         12    1    3    3    0    0 -0.12351222808E+02  0.70612477815E+01  0.14411143967E+01  0.14300025727E+02  0.00000000000E+00 0. -1.
</event>
<event>
 7    1  0.4836188E-013  0.5052886E+02  0.7816164E-02  0.1300439E+00
        -11   -1    0    0    0    0  0.00000000000E+00  0.00000000000E+00  0.45593999997E+02  0.45594000000E+02  0.51100000000E-03 0.  1.
         11   -1    0    0    0    0 -0.00000000000E+00 -0.00000000000E+00 -0.45593999997E+02  0.45594000000E+02  0.51100000000E-03 0. -1.
    9900012    2    1    2    0    0  0.16232776451E+02 -0.91061265422E+01  0.36148875948E+02  0.50528858295E+02  0.29999995272E+02 0.  0.
         12    1    1    2    0    0 -0.16232776451E+02  0.91061265422E+01 -0.36148875948E+02  0.40659141705E+02  0.00000000000E+00 0. -1.
         11    1    3    3    0    0 -0.14997580431E+01 -0.94860720793E+00 -0.29047370567E+01  0.34039135495E+01  0.51100000000E-03 0. -1.
        -11    1    3    3    0    0  0.23993747630E+01  0.38761823797E+01  0.17416032771E+02  0.18002777198E+02  0.51100000000E-03 0.  1.
        -12    1    3    3    0    0  0.15333159731E+02 -0.12033701714E+02  0.21637580234E+02  0.29122167547E+02  0.00000000000E+00 0.  1.
</event>
<event>
 7    1  0.4836188E-013  0.5052886E+02  0.7816164E-02  0.1300439E+00
        -11   -1    0    0    0    0  0.00000000000E+00  0.00000000000E+00  0.45593999997E+02  0.45594000000E+02  0.51100000000E-03 0.  1.
         11   -1    0    0    0    0 -0.00000000000E+00 -0.00000000000E+00 -0.45593999997E+02  0.45594000000E+02  0.51100000000E-03 0. -1.
    9900012    2    1    2    0    0 -0.10864189673E+02  0.26967354972E+02  0.28423525540E+02  0.50528860123E+02  0.30000000830E+02 0.  0.
         12    1    1    2    0    0  0.10864189673E+02 -0.26967354972E+02 -0.28423525540E+02  0.40659139877E+02  0.00000000000E+00 0. -1.
         11    1    3    3    0    0 -0.55762695409E+01  0.52407516172E+01  0.12382824528E+02  0.14556599983E+02  0.51100000000E-03 0.  1.
        -11    1    3    3    0    0  0.31977975508E+01  0.16988926466E+02  0.19120941787E+02  0.25777120606E+02  0.51100000000E-03 0. -1.
         12    1    3    3    0    0 -0.84857176825E+01  0.47376768889E+01 -0.30802407754E+01  0.10195139534E+02  0.00000000000E+00 0. -1.
</event>
<event>
 7    1  0.4836188E-013  0.5052887E+02  0.7816164E-02  0.1300439E+00
        -11   -1    0    0    0    0  0.00000000000E+00  0.00000000000E+00  0.45593999997E+02  0.45594000000E+02  0.51100000000E-03 0.  1.
         11   -1    0    0    0    0 -0.00000000000E+00 -0.00000000000E+00 -0.45593999997E+02  0.45594000000E+02  0.51100000000E-03 0. -1.
    9900012    2    1    2    0    0  0.30469922868E+02 -0.22549521661E+01  0.26826553056E+02  0.50528868704E+02  0.30000026913E+02 0.  0.
         12    1    1    2    0    0 -0.30469922868E+02  0.22549521661E+01 -0.26826553056E+02  0.40659131296E+02  0.00000000000E+00 0. -1.
         11    1    3    3    0    0  0.18070386859E+02  0.95909838419E+01  0.69124656391E+01  0.21594166660E+02  0.51100000000E-03 0. -1.
        -11    1    3    3    0    0  0.92791325416E+01 -0.17311488136E+01  0.13772869678E+02  0.16697039150E+02  0.51100000000E-03 0.  1.
        -12    1    3    3    0    0  0.31204034672E+01 -0.10114787194E+02  0.61412177392E+01  0.12237662894E+02  0.00000000000E+00 0.  1.
</event>
<event>
 7    1  0.4836188E-013  0.5052886E+02  0.7816164E-02  0.1300439E+00
        -11   -1    0    0    0    0  0.00000000000E+00  0.00000000000E+00  0.45593999997E+02  0.45594000000E+02  0.51100000000E-03 0.  1.
         11   -1    0    0    0    0 -0.00000000000E+00 -0.00000000000E+00 -0.45593999997E+02  0.45594000000E+02  0.51100000000E-03 0. -1.
    9900012    2    1    2    0    0  0.38504609216E+01 -0.36046739744E+02  0.18411204978E+02  0.50528856327E+02  0.29999989293E+02 0.  0.
         12    1    1    2    0    0 -0.38504609216E+01  0.36046739744E+02 -0.18411204978E+02  0.40659143673E+02  0.00000000000E+00 0. -1.
         11    1    3    3    0    0  0.47066804701E+01 -0.43023080939E+01  0.57357728898E+01  0.85768168272E+01  0.51100000000E-03 0. -1.
        -11    1    3    3    0    0  0.54382276082E+01 -0.32631560117E+02  0.13100655966E+02  0.35581177920E+02  0.51100000000E-03 0.  1.
        -12    1    3    3    0    0 -0.62944471568E+01  0.88712846714E+00 -0.42522387815E+00  0.63708615801E+01  0.00000000000E+00 0.  1.
</event>
<event>
 7    1  0.4836188E-013  0.5052886E+02  0.7816164E-02  0.1300439E+00
        -11   -1    0    0    0    0  0.00000000000E+00  0.00000000000E+00  0.45593999997E+02  0.45594000000E+02  0.51100000000E-03 0.  1.
         11   -1    0    0    0    0 -0.00000000000E+00 -0.00000000000E+00 -0.45593999997E+02  0.45594000000E+02  0.51100000000E-03 0. -1.
    9900012    2    1    2    0    0  0.25814908724E+02  0.12456719889E+02  0.28837238953E+02  0.50528859167E+02  0.29999997925E+02 0.  0.
         12    1    1    2    0    0 -0.25814908724E+02 -0.12456719889E+02 -0.28837238953E+02  0.40659140833E+02  0.00000000000E+00 0. -1.
         11    1    3    3    0    0  0.63152613066E+01 -0.49608682780E+01 -0.31519817229E+00  0.80369204047E+01  0.51100000000E-03 0. -1.
        -11    1    3    3    0    0  0.47644992764E+01  0.83986808947E+01  0.13371333614E+01  0.97481393103E+01  0.51100000000E-03 0.  1.
        -12    1    3    3    0    0  0.14735148141E+02  0.90189072722E+01  0.27815303764E+02  0.32743799453E+02  0.00000000000E+00 0.  1.
</event>
<event>
 7    1  0.4836188E-013  0.5052890E+02  0.7816164E-02  0.1300439E+00
        -11   -1    0    0    0    0  0.00000000000E+00  0.00000000000E+00  0.45593999997E+02  0.45594000000E+02  0.51100000000E-03 0. -1.
         11   -1    0    0    0    0 -0.00000000000E+00 -0.00000000000E+00 -0.45593999997E+02  0.45594000000E+02  0.51100000000E-03 0.  1.
    9900012    2    1    2    0    0  0.21441989059E+02  0.31966684810E+02 -0.13097135928E+02  0.50528895213E+02  0.30000107491E+02 0.  0.
         12    1    1    2    0    0 -0.21441989059E+02 -0.31966684810E+02  0.13097135928E+02  0.40659104787E+02  0.00000000000E+00 0. -1.
         11    1    3    3    0    0  0.13123170409E+02  0.18267679815E+02 -0.86423671470E+01  0.24095979697E+02  0.51100000000E-03 0. -1.
        -11    1    3    3    0    0  0.57032611466E+01  0.17183912292E+02  0.24475668153E+01  0.18270320549E+02  0.51100000000E-03 0.  1.
        -12    1    3    3    0    0  0.26155575032E+01 -0.34849072973E+01 -0.69023355961E+01  0.81625949675E+01  0.00000000000E+00 0.  1.
</event>
<event>
 7    1  0.4836188E-013  0.5052884E+02  0.7816164E-02  0.1300439E+00
        -11   -1    0    0    0    0  0.00000000000E+00  0.00000000000E+00  0.45593999997E+02  0.45594000000E+02  0.51100000000E-03 0.  1.
         11   -1    0    0    0    0 -0.00000000000E+00 -0.00000000000E+00 -0.45593999997E+02  0.45594000000E+02  0.51100000000E-03 0. -1.
    9900012    2    1    2    0    0  0.24574640633E+01  0.34490681800E+02 -0.21389734502E+02  0.50528843556E+02  0.29999950474E+02 0.  0.
         12    1    1    2    0    0 -0.24574640633E+01 -0.34490681800E+02  0.21389734502E+02  0.40659156444E+02  0.00000000000E+00 0. -1.
         11    1    3    3    0    0 -0.86258753341E+00  0.14336419640E+02 -0.47036813801E+01  0.15112961461E+02  0.51100000000E-03 0. -1.
        -11    1    3    3    0    0  0.36877345799E+01  0.15099084337E+02  0.23473652391E+01  0.15719155765E+02  0.51100000000E-03 0.  1.
         12    1    3    3    0    0 -0.36768298322E+00  0.50551778229E+01 -0.19033418361E+02  0.19696726330E+02  0.00000000000E+00 0. -1.
</event>
<event>
 7    1  0.4836188E-013  0.5052878E+02  0.7816164E-02  0.1300439E+00
        -11   -1    0    0    0    0  0.00000000000E+00  0.00000000000E+00  0.45593999997E+02  0.45594000000E+02  0.51100000000E-03 0.  1.
         11   -1    0    0    0    0 -0.00000000000E+00 -0.00000000000E+00 -0.45593999997E+02  0.45594000000E+02  0.51100000000E-03 0. -1.
    9900012    2    1    2    0    0 -0.20597968848E+02 -0.11662256134E+02  0.33058845548E+02  0.50528784467E+02  0.29999770866E+02 0.  0.
         12    1    1    2    0    0  0.20597968848E+02  0.11662256134E+02 -0.33058845548E+02  0.40659215533E+02  0.00000000000E+00 0. -1.
         11    1    3    3    0    0  0.14714842555E+01 -0.79109670812E+00 -0.10511733248E+01  0.19738453678E+01  0.51100000000E-03 0. -1.
        -11    1    3    3    0    0 -0.14705721893E+02  0.42945918251E+01  0.25186858411E+02  0.29480156245E+02  0.51100000000E-03 0.  1.
         12    1    3    3    0    0 -0.73637312101E+01 -0.15165751251E+02  0.89231604612E+01  0.19074782854E+02  0.00000000000E+00 0. -1.
</event>
<event>
 7    1  0.4836188E-013  0.5052886E+02  0.7816164E-02  0.1300439E+00
        -11   -1    0    0    0    0  0.00000000000E+00  0.00000000000E+00  0.45593999997E+02  0.45594000000E+02  0.51100000000E-03 0.  1.
         11   -1    0    0    0    0 -0.00000000000E+00 -0.00000000000E+00 -0.45593999997E+02  0.45594000000E+02  0.51100000000E-03 0. -1.
    9900012    2    1    2    0    0  0.26294356355E+02  0.30967822310E+02  0.16631670105E+01  0.50528864258E+02  0.30000013400E+02 0.  0.
         12    1    1    2    0    0 -0.26294356355E+02 -0.30967822310E+02 -0.16631670105E+01  0.40659135742E+02  0.00000000000E+00 0. -1.
         11    1    3    3    0    0  0.81306890238E+01  0.43417729269E+01  0.83811889984E+01  0.12458066681E+02  0.51100000000E-03 0.  1.
        -11    1    3    3    0    0  0.75679204114E+01  0.19594763739E+02  0.40683987487E+01  0.21395795241E+02  0.51100000000E-03 0. -1.
         12    1    3    3    0    0  0.10595746920E+02  0.70312856435E+01 -0.10786420737E+02  0.16675002336E+02  0.00000000000E+00 0. -1.
</event>
<event>
 7    1  0.4836188E-013  0.5052886E+02  0.7816164E-02  0.1300439E+00
        -11   -1    0    0    0    0  0.00000000000E+00  0.00000000000E+00  0.45593999997E+02  0.45594000000E+02  0.51100000000E-03 0.  1.
         11   -1    0    0    0    0 -0.00000000000E+00 -0.00000000000E+00 -0.45593999997E+02  0.45594000000E+02  0.51100000000E-03 0. -1.
    9900012    2    1    2    0    0  0.69289385891E+00 -0.38507147862E+02  0.13033984997E+02  0.50528864455E+02  0.30000013998E+02 0.  0.
         12    1    1    2    0    0 -0.69289385891E+00  0.38507147862E+02 -0.13033984997E+02  0.40659135545E+02  0.00000000000E+00 0. -1.
         11    1    3    3    0    0  0.20207564034E+01 -0.36742509812E+01  0.43118070650E+01  0.60145870301E+01  0.51100000000E-03 0.  1.
        -11    1    3    3    0    0 -0.13810618897E+02 -0.18834658107E+02  0.49675547727E+01  0.23877900682E+02  0.51100000000E-03 0. -1.
         12    1    3    3    0    0  0.12482756352E+02 -0.15998238774E+02  0.37546231591E+01  0.20636376743E+02  0.00000000000E+00 0. -1.
</event>
<event>
 7    1  0.4836188E-013  0.5052887E+02  0.7816164E-02  0.1300439E+00
        -11   -1    0    0    0    0  0.00000000000E+00  0.00000000000E+00  0.45593999997E+02  0.45594000000E+02  0.51100000000E-03 0.  1.
         11   -1    0    0    0    0 -0.00000000000E+00 -0.00000000000E+00 -0.45593999997E+02  0.45594000000E+02  0.51100000000E-03 0. -1.
    9900012    2    1    2    0    0  0.17529394329E+02 -0.36629541882E+02 -0.20401240745E+01  0.50528866828E+02  0.30000021211E+02 0.  0.
         12    1    1    2    0    0 -0.17529394329E+02  0.36629541882E+02  0.20401240745E+01  0.40659133172E+02  0.00000000000E+00 0. -1.
         11    1    3    3    0    0  0.53422379558E+01 -0.68950653452E+01 -0.12259540648E+02  0.15045855564E+02  0.51100000000E-03 0. -1.
        -11    1    3    3    0    0  0.12924081881E+01 -0.15068513916E+02  0.13785465284E+01  0.15186534212E+02  0.51100000000E-03 0.  1.
        -12    1    3    3    0    0  0.10894748186E+02 -0.14665962620E+02  0.88408700447E+01  0.20296477053E+02  0.00000000000E+00 0.  1.
</event>
<event>
 7    1  0.4836188E-013  0.5052887E+02  0.7816164E-02  0.1300439E+00
        -11   -1    0    0    0    0  0.00000000000E+00  0.00000000000E+00  0.45593999997E+02  0.45594000000E+02  0.51100000000E-03 0.  1.
         11   -1    0    0    0    0 -0.00000000000E+00 -0.00000000000E+00 -0.45593999997E+02  0.45594000000E+02  0.51100000000E-03 0. -1.
    9900012    2    1    2    0    0 -0.39233576426E+02 -0.99924192185E+01  0.37473728934E+01  0.50528871079E+02  0.30000034133E+02 0.  0.
         12    1    1    2    0    0  0.39233576426E+02  0.99924192185E+01 -0.37473728934E+01  0.40659128921E+02  0.00000000000E+00 0. -1.
         11    1    3    3    0    0 -0.45879788920E+01 -0.82816456504E+01 -0.34136656399E+01  0.10064209773E+02  0.51100000000E-03 0. -1.
        -11    1    3    3    0    0 -0.24930997176E+02 -0.10157856190E+02  0.55959320576E+01  0.27496383734E+02  0.51100000000E-03 0.  1.
         12    1    3    3    0    0 -0.97146003572E+01  0.84470826217E+01  0.15651064757E+01  0.12968277573E+02  0.00000000000E+00 0. -1.
</event>
<event>
 7    1  0.4836188E-013  0.5052886E+02  0.7816164E-02  0.1300439E+00
        -11   -1    0    0    0    0  0.00000000000E+00  0.00000000000E+00  0.45593999997E+02  0.45594000000E+02  0.51100000000E-03 0.  1.
         11   -1    0    0    0    0 -0.00000000000E+00 -0.00000000000E+00 -0.45593999997E+02  0.45594000000E+02  0.51100000000E-03 0. -1.
    9900012    2    1    2    0    0 -0.38552525238E+01 -0.22206458195E+02  0.33840448672E+02  0.50528859282E+02  0.29999998274E+02 0.  0.
         12    1    1    2    0    0  0.38552525238E+01  0.22206458195E+02 -0.33840448672E+02  0.40659140718E+02  0.00000000000E+00 0. -1.
         11    1    3    3    0    0 -0.28377458381E+01 -0.65198175589E+01  0.26629163773E+02  0.27562169471E+02  0.51100000000E-03 0. -1.
        -11    1    3    3    0    0  0.70023882865E+01 -0.75761685621E+01  0.24292094745E+01  0.10598718353E+02  0.51100000000E-03 0.  1.
        -12    1    3    3    0    0 -0.80198949721E+01 -0.81104720740E+01  0.47820754245E+01  0.12367971458E+02  0.00000000000E+00 0.  1.
</event>
<event>
 7    1  0.4836188E-013  0.5052886E+02  0.7816164E-02  0.1300439E+00
        -11   -1    0    0    0    0  0.00000000000E+00  0.00000000000E+00  0.45593999997E+02  0.45594000000E+02  0.51100000000E-03 0.  1.
         11   -1    0    0    0    0 -0.00000000000E+00 -0.00000000000E+00 -0.45593999997E+02  0.45594000000E+02  0.51100000000E-03 0. -1.
    9900012    2    1    2    0    0 -0.42842791715E+01 -0.86743171822E+01  0.39491348941E+02  0.50528862432E+02  0.30000007848E+02 0.  0.
         12    1    1    2    0    0  0.42842791715E+01  0.86743171822E+01 -0.39491348941E+02  0.40659137568E+02  0.00000000000E+00 0. -1.
         11    1    3    3    0    0  0.13020897745E+01 -0.12940006903E+01 -0.93909299209E+00  0.20619824142E+01  0.51100000000E-03 0. -1.
        -11    1    3    3    0    0  0.78962612911E+01 -0.71980076823E+01  0.28593306658E+02  0.30524407330E+02  0.51100000000E-03 0.  1.
        -12    1    3    3    0    0 -0.13482630237E+02 -0.18230880952E+00  0.11837135275E+02  0.17942472687E+02  0.00000000000E+00 0.  1.
</event>
<event>
 7    1  0.4836188E-013  0.5052886E+02  0.7816164E-02  0.1300439E+00
        -11   -1    0    0    0    0  0.00000000000E+00  0.00000000000E+00  0.45593999997E+02  0.45594000000E+02  0.51100000000E-03 0. -1.
         11   -1    0    0    0    0 -0.00000000000E+00 -0.00000000000E+00 -0.45593999997E+02  0.45594000000E+02  0.51100000000E-03 0.  1.
    9900012    2    1    2    0    0  0.14282745244E+02  0.32212414516E+02 -0.20286177985E+02  0.50528862307E+02  0.30000007468E+02 0.  0.
         12    1    1    2    0    0 -0.14282745244E+02 -0.32212414516E+02  0.20286177985E+02  0.40659137693E+02  0.00000000000E+00 0. -1.
         11    1    3    3    0    0 -0.24927232700E+01 -0.19972542550E+01 -0.66412406235E+01  0.73694484964E+01  0.51100000000E-03 0. -1.
        -11    1    3    3    0    0  0.42743900775E+00  0.81191029615E+01  0.23503214582E+01  0.84632469079E+01  0.51100000000E-03 0.  1.
        -12    1    3    3    0    0  0.16348029507E+02  0.26090565810E+02 -0.15995258820E+02  0.34696166903E+02  0.00000000000E+00 0.  1.
</event>
<event>
 7    1  0.4836188E-013  0.5052886E+02  0.7816164E-02  0.1300439E+00
        -11   -1    0    0    0    0  0.00000000000E+00  0.00000000000E+00  0.45593999997E+02  0.45594000000E+02  0.51100000000E-03 0. -1.
         11   -1    0    0    0    0 -0.00000000000E+00 -0.00000000000E+00 -0.45593999997E+02  0.45594000000E+02  0.51100000000E-03 0.  1.
    9900012    2    1    2    0    0  0.40177175835E+02 -0.38376610428E+01 -0.49226472614E+01  0.50528861342E+02  0.30000004535E+02 0.  0.
         12    1    1    2    0    0 -0.40177175835E+02  0.38376610428E+01  0.49226472614E+01  0.40659138658E+02  0.00000000000E+00 0. -1.
         11    1    3    3    0    0  0.34787445608E+01  0.48255561763E+01  0.19457376217E+01  0.62588777975E+01  0.51100000000E-03 0. -1.
        -11    1    3    3    0    0  0.27796522650E+02  0.38098182459E+01 -0.71135988194E+01  0.28944164782E+02  0.51100000000E-03 0.  1.
         12    1    3    3    0    0  0.89019086239E+01 -0.12473035465E+02  0.24521393631E+00  0.15325818762E+02  0.00000000000E+00 0. -1.
</event>
<event>
 7    1  0.4836188E-013  0.5052890E+02  0.7816164E-02  0.1300439E+00
        -11   -1    0    0    0    0  0.00000000000E+00  0.00000000000E+00  0.45593999997E+02  0.45594000000E+02  0.51100000000E-03 0. -1.
         11   -1    0    0    0    0 -0.00000000000E+00 -0.00000000000E+00 -0.45593999997E+02  0.45594000000E+02  0.51100000000E-03 0.  1.
    9900012    2    1    2    0    0 -0.26409666572E+02  0.28389749431E+02  0.12235761039E+02  0.50528902501E+02  0.30000129642E+02 0.  0.
         12    1    1    2    0    0  0.26409666572E+02 -0.28389749431E+02 -0.12235761039E+02  0.40659097499E+02  0.00000000000E+00 0. -1.
         11    1    3    3    0    0 -0.12743718276E+02  0.10891059332E+02  0.18008384074E+02  0.24603240154E+02  0.51100000000E-03 0. -1.
        -11    1    3    3    0    0  0.42173658537E+00  0.64884817139E+01  0.14164921551E+01  0.66546755733E+01  0.51100000000E-03 0.  1.
        -12    1    3    3    0    0 -0.14087684881E+02  0.11010208385E+02 -0.71891151903E+01  0.19270986773E+02  0.00000000000E+00 0.  1.
</event>
<event>
 7    1  0.4836188E-013  0.5052886E+02  0.7816164E-02  0.1300439E+00
        -11   -1    0    0    0    0  0.00000000000E+00  0.00000000000E+00  0.45593999997E+02  0.45594000000E+02  0.51100000000E-03 0.  1.
         11   -1    0    0    0    0 -0.00000000000E+00 -0.00000000000E+00 -0.45593999997E+02  0.45594000000E+02  0.51100000000E-03 0. -1.
    9900012    2    1    2    0    0 -0.42673428593E+01  0.16302646705E+01  0.40401703109E+02  0.50528860903E+02  0.30000003201E+02 0.  0.
         12    1    1    2    0    0  0.42673428593E+01 -0.16302646705E+01 -0.40401703109E+02  0.40659139097E+02  0.00000000000E+00 0. -1.
         11    1    3    3    0    0 -0.69427197360E+01  0.50304033615E+01  0.34115735163E+01  0.92274129327E+01  0.51100000000E-03 0. -1.
        -11    1    3    3    0    0 -0.75796946453E+01 -0.25877410446E+01  0.18070882175E+02  0.19766258054E+02  0.51100000000E-03 0.  1.
        -12    1    3    3    0    0  0.10255071522E+02 -0.81239764643E+00  0.18919247418E+02  0.21535189916E+02  0.00000000000E+00 0.  1.
</event>
<event>
 7    1  0.4836188E-013  0.5052885E+02  0.7816164E-02  0.1300439E+00
        -11   -1    0    0    0    0  0.00000000000E+00  0.00000000000E+00  0.45593999997E+02  0.45594000000E+02  0.51100000000E-03 0.  1.
         11   -1    0    0    0    0 -0.00000000000E+00 -0.00000000000E+00 -0.45593999997E+02  0.45594000000E+02  0.51100000000E-03 0. -1.
    9900012    2    1    2    0    0 -0.35315277100E+01 -0.18118776241E+02  0.36227121558E+02  0.50528854942E+02  0.29999985083E+02 0.  0.
         12    1    1    2    0    0  0.35315277100E+01  0.18118776241E+02 -0.36227121558E+02  0.40659145058E+02  0.00000000000E+00 0. -1.
         11    1    3    3    0    0  0.36522453135E+01  0.31531884372E+01  0.28800816448E+01  0.56192849805E+01  0.51100000000E-03 0. -1.
        -11    1    3    3    0    0  0.29319388205E+01 -0.19554850493E+02  0.23126015977E+02  0.30426979118E+02  0.51100000000E-03 0.  1.
         12    1    3    3    0    0 -0.10115711844E+02 -0.17171141856E+01  0.10221023936E+02  0.14482590843E+02  0.00000000000E+00 0. -1.
</event>
<event>
 7    1  0.4836188E-013  0.5052887E+02  0.7816164E-02  0.1300439E+00
        -11   -1    0    0    0    0  0.00000000000E+00  0.00000000000E+00  0.45593999997E+02  0.45594000000E+02  0.51100000000E-03 0.  1.
         11   -1    0    0    0    0 -0.00000000000E+00 -0.00000000000E+00 -0.45593999997E+02  0.45594000000E+02  0.51100000000E-03 0. -1.
    9900012    2    1    2    0    0 -0.31860210520E+02 -0.89909365329E+01  0.23606246104E+02  0.50528870530E+02  0.30000032464E+02 0.  0.
         12    1    1    2    0    0  0.31860210520E+02  0.89909365329E+01 -0.23606246104E+02  0.40659129470E+02  0.00000000000E+00 0. -1.
         11    1    3    3    0    0 -0.26237072266E+02 -0.17825160294E+02  0.10670364095E+02  0.33466056995E+02  0.51100000000E-03 0. -1.
        -11    1    3    3    0    0 -0.91857495048E+00  0.19037218979E+01  0.68489073119E+00  0.22219389233E+01  0.51100000000E-03 0.  1.
         12    1    3    3    0    0 -0.47045633030E+01  0.69305018635E+01  0.12250991278E+02  0.14840874612E+02  0.00000000000E+00 0. -1.
</event>
<event>
 7    1  0.4836188E-013  0.5052886E+02  0.7816164E-02  0.1300439E+00
        -11   -1    0    0    0    0  0.00000000000E+00  0.00000000000E+00  0.45593999997E+02  0.45594000000E+02  0.51100000000E-03 0.  1.
         11   -1    0    0    0    0 -0.00000000000E+00 -0.00000000000E+00 -0.45593999997E+02  0.45594000000E+02  0.51100000000E-03 0. -1.
    9900012    2    1    2    0    0  0.55875483307E+01  0.25088957753E+02  0.31503792366E+02  0.50528862885E+02  0.30000009226E+02 0.  0.
         12    1    1    2    0    0 -0.55875483307E+01 -0.25088957753E+02 -0.31503792366E+02  0.40659137115E+02  0.00000000000E+00 0. -1.
         11    1    3    3    0    0  0.92286183711E+01  0.59888007103E+01  0.75478508565E+01  0.13341783382E+02  0.51100000000E-03 0. -1.
        -11    1    3    3    0    0 -0.32425088574E+00  0.17919480288E+02  0.27084336472E+02  0.32477287369E+02  0.51100000000E-03 0.  1.
         12    1    3    3    0    0 -0.33168191547E+01  0.11806767547E+01 -0.31283949634E+01  0.47097921346E+01  0.00000000000E+00 0. -1.
</event>
<event>
 7    1  0.4836188E-013  0.5052885E+02  0.7816164E-02  0.1300439E+00
        -11   -1    0    0    0    0  0.00000000000E+00  0.00000000000E+00  0.45593999997E+02  0.45594000000E+02  0.51100000000E-03 0.  1.
         11   -1    0    0    0    0 -0.00000000000E+00 -0.00000000000E+00 -0.45593999997E+02  0.45594000000E+02  0.51100000000E-03 0. -1.
    9900012    2    1    2    0    0  0.13200995596E+02 -0.27546064593E+02  0.26834946779E+02  0.50528851855E+02  0.29999975699E+02 0.  0.
         12    1    1    2    0    0 -0.13200995596E+02  0.27546064593E+02 -0.26834946779E+02  0.40659148145E+02  0.00000000000E+00 0. -1.
         11    1    3    3    0    0  0.63448509031E+01 -0.59067046990E-01 -0.17854464796E+01  0.65915431647E+01  0.51100000000E-03 0. -1.
        -11    1    3    3    0    0  0.19184081682E+01 -0.22370902381E+02  0.11136862905E+02  0.25063265527E+02  0.51100000000E-03 0.  1.
         12    1    3    3    0    0  0.49377365247E+01 -0.51160951643E+01  0.17483530353E+02  0.18874043163E+02  0.00000000000E+00 0. -1.
</event>
<event>
 7    1  0.4836188E-013  0.5052886E+02  0.7816164E-02  0.1300439E+00
        -11   -1    0    0    0    0  0.00000000000E+00  0.00000000000E+00  0.45593999997E+02  0.45594000000E+02  0.51100000000E-03 0.  1.
         11   -1    0    0    0    0 -0.00000000000E+00 -0.00000000000E+00 -0.45593999997E+02  0.45594000000E+02  0.51100000000E-03 0. -1.
    9900012    2    1    2    0    0  0.39762478791E+02  0.80721735457E+01 -0.26364405884E+01  0.50528861736E+02  0.30000005734E+02 0.  0.
         12    1    1    2    0    0 -0.39762478791E+02 -0.80721735457E+01  0.26364405884E+01  0.40659138264E+02  0.00000000000E+00 0. -1.
         11    1    3    3    0    0  0.14037396735E+02 -0.24398303873E+01 -0.97239967202E+01  0.17249851938E+02  0.51100000000E-03 0. -1.
        -11    1    3    3    0    0  0.21965318516E+02  0.43583476447E+01 -0.10346789524E+01  0.22417425644E+02  0.51100000000E-03 0.  1.
         12    1    3    3    0    0  0.37597635407E+01  0.61536562882E+01  0.81222350841E+01  0.10861584155E+02  0.00000000000E+00 0. -1.
</event>
<event>
 7    1  0.4836188E-013  0.5052886E+02  0.7816164E-02  0.1300439E+00
        -11   -1    0    0    0    0  0.00000000000E+00  0.00000000000E+00  0.45593999997E+02  0.45594000000E+02  0.51100000000E-03 0.  1.
         11   -1    0    0    0    0 -0.00000000000E+00 -0.00000000000E+00 -0.45593999997E+02  0.45594000000E+02  0.51100000000E-03 0. -1.
    9900012    2    1    2    0    0 -0.19819720549E+02 -0.12805596287E+02  0.33111341867E+02  0.50528861063E+02  0.30000003686E+02 0.  0.
         12    1    1    2    0    0  0.19819720549E+02  0.12805596287E+02 -0.33111341867E+02  0.40659138937E+02  0.00000000000E+00 0. -1.
         11    1    3    3    0    0 -0.64650247449E+01 -0.11333794924E+02  0.24913143322E+02  0.28123231727E+02  0.51100000000E-03 0. -1.
        -11    1    3    3    0    0 -0.89948304602E+01 -0.47664814942E+00  0.13018196215E+02  0.15830590684E+02  0.51100000000E-03 0.  1.
         12    1    3    3    0    0 -0.43598653439E+01 -0.99515321431E+00 -0.48199976695E+01  0.65750386517E+01  0.00000000000E+00 0. -1.
</event>
<event>
 7    1  0.4836188E-013  0.5052886E+02  0.7816164E-02  0.1300439E+00
        -11   -1    0    0    0    0  0.00000000000E+00  0.00000000000E+00  0.45593999997E+02  0.45594000000E+02  0.51100000000E-03 0. -1.
         11   -1    0    0    0    0 -0.00000000000E+00 -0.00000000000E+00 -0.45593999997E+02  0.45594000000E+02  0.51100000000E-03 0.  1.
    9900012    2    1    2    0    0 -0.10870448199E+02 -0.23439101356E+02 -0.31394383353E+02  0.50528862988E+02  0.30000009538E+02 0.  0.
         12    1    1    2    0    0  0.10870448199E+02  0.23439101356E+02  0.31394383353E+02  0.40659137012E+02  0.00000000000E+00 0. -1.
         11    1    3    3    0    0 -0.11930827338E+00 -0.18595898842E+02 -0.87525630323E+01  0.20553078799E+02  0.51100000000E-03 0. -1.
        -11    1    3    3    0    0 -0.66757306529E+01 -0.71982673080E+01 -0.23242357751E+02  0.25230688181E+02  0.51100000000E-03 0.  1.
        -12    1    3    3    0    0 -0.40754092722E+01  0.23550647943E+01  0.60053743016E+00  0.47450960081E+01  0.00000000000E+00 0.  1.
</event>
<event>
 7    1  0.4836188E-013  0.5052886E+02  0.7816164E-02  0.1300439E+00
        -11   -1    0    0    0    0  0.00000000000E+00  0.00000000000E+00  0.45593999997E+02  0.45594000000E+02  0.51100000000E-03 0.  1.
         11   -1    0    0    0    0 -0.00000000000E+00 -0.00000000000E+00 -0.45593999997E+02  0.45594000000E+02  0.51100000000E-03 0. -1.
    9900012    2    1    2    0    0 -0.14353266631E+02  0.26635956759E+02  0.27160171421E+02  0.50528863670E+02  0.30000011613E+02 0.  0.
         12    1    1    2    0    0  0.14353266631E+02 -0.26635956759E+02 -0.27160171421E+02  0.40659136330E+02  0.00000000000E+00 0. -1.
         11    1    3    3    0    0 -0.22244716645E+02  0.21144253049E+02  0.14526867993E+02  0.33954922317E+02  0.51100000000E-03 0.  1.
        -11    1    3    3    0    0  0.27097805006E+01  0.46557293932E+01  0.74840982780E+01  0.92211959007E+01  0.51100000000E-03 0. -1.
        -12    1    3    3    0    0  0.51816695135E+01  0.83597431594E+00  0.51492051505E+01  0.73527454522E+01  0.00000000000E+00 0.  1.
</event>
<event>
 7    1  0.1249964E-012  0.5052886E+02  0.7816164E-02  0.1300439E+00
        -11   -1    0    0    0    0  0.00000000000E+00  0.00000000000E+00  0.45593999997E+02  0.45594000000E+02  0.51100000000E-03 0. -1.
         11   -1    0    0    0    0 -0.00000000000E+00 -0.00000000000E+00 -0.45593999997E+02  0.45594000000E+02  0.51100000000E-03 0.  1.
    9900012    2    1    2    0    0  0.18506666568E+01  0.22314098761E+02 -0.33938501029E+02  0.50528858068E+02  0.29999994582E+02 0.  0.
         12    1    1    2    0    0 -0.18506666568E+01 -0.22314098761E+02  0.33938501029E+02  0.40659141932E+02  0.00000000000E+00 0. -1.
         11    1    3    3    0    0 -0.51236547518E+01  0.24763031979E+01  0.15332122671E+00  0.56927518130E+01  0.51100000000E-03 0. -1.
        -11    1    3    3    0    0  0.71773124190E+01 -0.18419518176E+01 -0.78105935520E+01  0.10766242239E+02  0.51100000000E-03 0.  1.
        -12    1    3    3    0    0 -0.20299101031E+00  0.21679747381E+02 -0.26281228704E+02  0.34069864015E+02  0.00000000000E+00 0.  1.
</event>
<event>
 7    1  0.4836188E-013  0.5052885E+02  0.7816164E-02  0.1300439E+00
        -11   -1    0    0    0    0  0.00000000000E+00  0.00000000000E+00  0.45593999997E+02  0.45594000000E+02  0.51100000000E-03 0.  1.
         11   -1    0    0    0    0 -0.00000000000E+00 -0.00000000000E+00 -0.45593999997E+02  0.45594000000E+02  0.51100000000E-03 0. -1.
    9900012    2    1    2    0    0 -0.37101438328E+02 -0.18763609649E+01  0.16526608769E+02  0.50528852765E+02  0.29999978466E+02 0.  0.
         12    1    1    2    0    0  0.37101438328E+02  0.18763609649E+01 -0.16526608769E+02  0.40659147235E+02  0.00000000000E+00 0. -1.
         11    1    3    3    0    0 -0.22320658601E+02 -0.27318173884E+01  0.11309307138E+02  0.25170916845E+02  0.51100000000E-03 0. -1.
        -11    1    3    3    0    0  0.33333978437E+01  0.16390159150E+01  0.61699392896E+01  0.72018098734E+01  0.51100000000E-03 0.  1.
         12    1    3    3    0    0 -0.18114177570E+02 -0.78355949155E+00 -0.95263765865E+00  0.18156126047E+02  0.00000000000E+00 0. -1.
</event>
<event>
 7    1  0.4836188E-013  0.5052886E+02  0.7816164E-02  0.1300439E+00
        -11   -1    0    0    0    0  0.00000000000E+00  0.00000000000E+00  0.45593999997E+02  0.45594000000E+02  0.51100000000E-03 0.  1.
         11   -1    0    0    0    0 -0.00000000000E+00 -0.00000000000E+00 -0.45593999997E+02  0.45594000000E+02  0.51100000000E-03 0. -1.
    9900012    2    1    2    0    0 -0.34099526145E+00  0.35965796876E+02  0.18960761367E+02  0.50528864565E+02  0.30000014331E+02 0.  0.
         12    1    1    2    0    0  0.34099526145E+00 -0.35965796876E+02 -0.18960761367E+02  0.40659135435E+02  0.00000000000E+00 0. -1.
         11    1    3    3    0    0 -0.25343037528E+01  0.52025823147E+00 -0.14390900011E+01  0.29604635501E+01  0.51100000000E-03 0. -1.
        -11    1    3    3    0    0 -0.90167525274E+01  0.96689883234E+01  0.69157591225E+00  0.13238936469E+02  0.51100000000E-03 0.  1.
        -12    1    3    3    0    0  0.11210061019E+02  0.25776550322E+02  0.19708275456E+02  0.34329464545E+02  0.00000000000E+00 0.  1.
</event>
<event>
 7    1  0.4836188E-013  0.5052886E+02  0.7816164E-02  0.1300439E+00
        -11   -1    0    0    0    0  0.00000000000E+00  0.00000000000E+00  0.45593999997E+02  0.45594000000E+02  0.51100000000E-03 0.  1.
         11   -1    0    0    0    0 -0.00000000000E+00 -0.00000000000E+00 -0.45593999997E+02  0.45594000000E+02  0.51100000000E-03 0. -1.
    9900012    2    1    2    0    0 -0.19415516579E+02 -0.75530606622E+01  0.34916391567E+02  0.50528863149E+02  0.30000010028E+02 0.  0.
         12    1    1    2    0    0  0.19415516579E+02  0.75530606622E+01 -0.34916391567E+02  0.40659136851E+02  0.00000000000E+00 0. -1.
         11    1    3    3    0    0 -0.69680009267E+01 -0.12111855607E+02  0.10895358987E+02  0.17718886277E+02  0.51100000000E-03 0. -1.
        -11    1    3    3    0    0 -0.16897514625E+02  0.15317575765E+01  0.18152570047E+02  0.24847295252E+02  0.51100000000E-03 0.  1.
         12    1    3    3    0    0  0.44499989726E+01  0.30270373685E+01  0.58684625327E+01  0.79626816202E+01  0.00000000000E+00 0. -1.
</event>
<event>
 7    1  0.4836188E-013  0.5052885E+02  0.7816164E-02  0.1300439E+00
        -11   -1    0    0    0    0  0.00000000000E+00  0.00000000000E+00  0.45593999997E+02  0.45594000000E+02  0.51100000000E-03 0. -1.
         11   -1    0    0    0    0 -0.00000000000E+00 -0.00000000000E+00 -0.45593999997E+02  0.45594000000E+02  0.51100000000E-03 0.  1.
    9900012    2    1    2    0    0  0.37819338309E+02  0.56916444263E+01 -0.13801068725E+02  0.50528847717E+02  0.29999963121E+02 0.  0.
         12    1    1    2    0    0 -0.37819338309E+02 -0.56916444263E+01  0.13801068725E+02  0.40659152283E+02  0.00000000000E+00 0. -1.
         11    1    3    3    0    0  0.29518219656E+01 -0.12975323252E+00 -0.11419280977E+01  0.31676629965E+01  0.51100000000E-03 0.  1.
        -11    1    3    3    0    0  0.35583652273E+02 -0.36129913037E+01 -0.12532750891E+02  0.37898810804E+02  0.51100000000E-03 0. -1.
         12    1    3    3    0    0 -0.71613592907E+00  0.94343889626E+01 -0.12638973606E+00  0.94623739163E+01  0.00000000000E+00 0. -1.
</event>
<event>
 7    1  0.4836188E-013  0.5052885E+02  0.7816164E-02  0.1300439E+00
        -11   -1    0    0    0    0  0.00000000000E+00  0.00000000000E+00  0.45593999997E+02  0.45594000000E+02  0.51100000000E-03 0. -1.
         11   -1    0    0    0    0 -0.00000000000E+00 -0.00000000000E+00 -0.45593999997E+02  0.45594000000E+02  0.51100000000E-03 0.  1.
    9900012    2    1    2    0    0 -0.10347135652E+02  0.29671707261E+02 -0.25801033111E+02  0.50528846817E+02  0.29999960384E+02 0.  0.
         12    1    1    2    0    0  0.10347135652E+02 -0.29671707261E+02  0.25801033111E+02  0.40659153183E+02  0.00000000000E+00 0. -1.
         11    1    3    3    0    0 -0.43326300348E+01 -0.12489059792E+01 -0.80265823812E+01  0.92063822508E+01  0.51100000000E-03 0. -1.
        -11    1    3    3    0    0  0.37962949210E+00  0.21358118721E+02 -0.20384284922E+02  0.29526808597E+02  0.51100000000E-03 0.  1.
         12    1    3    3    0    0 -0.63941351096E+01  0.95624945194E+01  0.26098341926E+01  0.11795655969E+02  0.00000000000E+00 0. -1.
</event>
<event>
 7    1  0.4836188E-013  0.5052888E+02  0.7816164E-02  0.1300439E+00
        -11   -1    0    0    0    0  0.00000000000E+00  0.00000000000E+00  0.45593999997E+02  0.45594000000E+02  0.51100000000E-03 0. -1.
         11   -1    0    0    0    0 -0.00000000000E+00 -0.00000000000E+00 -0.45593999997E+02  0.45594000000E+02  0.51100000000E-03 0.  1.
    9900012    2    1    2    0    0 -0.13818892371E+01 -0.23998611391E+02 -0.32792093312E+02  0.50528876174E+02  0.30000049618E+02 0.  0.
         12    1    1    2    0    0  0.13818892371E+01  0.23998611391E+02  0.32792093312E+02  0.40659123826E+02  0.00000000000E+00 0. -1.
         11    1    3    3    0    0 -0.12457508542E+02 -0.13997154121E+01 -0.80926204182E+01  0.14921100087E+02  0.51100000000E-03 0. -1.
        -11    1    3    3    0    0  0.15162310825E+01 -0.43167423581E+01 -0.73212969036E+01  0.86333429153E+01  0.51100000000E-03 0.  1.
        -12    1    3    3    0    0  0.95593882223E+01 -0.18282153621E+02 -0.17378175990E+02  0.26974433172E+02  0.00000000000E+00 0.  1.
</event>
<event>
 7    1  0.4836188E-013  0.5052887E+02  0.7816164E-02  0.1300439E+00
        -11   -1    0    0    0    0  0.00000000000E+00  0.00000000000E+00  0.45593999997E+02  0.45594000000E+02  0.51100000000E-03 0.  1.
         11   -1    0    0    0    0 -0.00000000000E+00 -0.00000000000E+00 -0.45593999997E+02  0.45594000000E+02  0.51100000000E-03 0. -1.
    9900012    2    1    2    0    0 -0.28549094071E+02 -0.95531165849E+01  0.27328600374E+02  0.50528865636E+02  0.30000017588E+02 0.  0.
         12    1    1    2    0    0  0.28549094071E+02  0.95531165849E+01 -0.27328600374E+02  0.40659134364E+02  0.00000000000E+00 0. -1.
         11    1    3    3    0    0 -0.48075362482E+01 -0.70467765430E+01  0.32875667760E+01  0.91420763502E+01  0.51100000000E-03 0.  1.
        -11    1    3    3    0    0 -0.80723067108E+01 -0.20448645050E+00 -0.41295127052E+01  0.90695548836E+01  0.51100000000E-03 0. -1.
         12    1    3    3    0    0 -0.15669251112E+02 -0.23018535914E+01  0.28170546304E+02  0.32317234402E+02  0.00000000000E+00 0. -1.
</event>
<event>
 7    1  0.4836188E-013  0.5052885E+02  0.7816164E-02  0.1300439E+00
        -11   -1    0    0    0    0  0.00000000000E+00  0.00000000000E+00  0.45593999997E+02  0.45594000000E+02  0.51100000000E-03 0.  1.
         11   -1    0    0    0    0 -0.00000000000E+00 -0.00000000000E+00 -0.45593999997E+02  0.45594000000E+02  0.51100000000E-03 0. -1.
    9900012    2    1    2    0    0 -0.36411918170E+02  0.15703469814E+02 -0.89855315283E+01  0.50528849420E+02  0.29999968297E+02 0.  0.
         12    1    1    2    0    0  0.36411918170E+02 -0.15703469814E+02  0.89855315283E+01  0.40659150580E+02  0.00000000000E+00 0. -1.
         11    1    3    3    0    0 -0.18135224170E+02  0.39050274911E+01 -0.97738381708E+01  0.20968154622E+02  0.51100000000E-03 0.  1.
        -11    1    3    3    0    0 -0.86449652313E+00 -0.13077958552E+01  0.67797019812E+01  0.69585949338E+01  0.51100000000E-03 0. -1.
         12    1    3    3    0    0 -0.17412197477E+02  0.13106238178E+02 -0.59913953387E+01  0.22602099864E+02  0.00000000000E+00 0. -1.
</event>
<event>
 7    1  0.4836188E-013  0.5052884E+02  0.7816164E-02  0.1300439E+00
        -11   -1    0    0    0    0  0.00000000000E+00  0.00000000000E+00  0.45593999997E+02  0.45594000000E+02  0.51100000000E-03 0.  1.
         11   -1    0    0    0    0 -0.00000000000E+00 -0.00000000000E+00 -0.45593999997E+02  0.45594000000E+02  0.51100000000E-03 0. -1.
    9900012    2    1    2    0    0  0.27299976140E+02  0.73476848691E+00  0.30122066185E+02  0.50528838016E+02  0.29999933633E+02 0.  0.
         12    1    1    2    0    0 -0.27299976140E+02 -0.73476848691E+00 -0.30122066185E+02  0.40659161984E+02  0.00000000000E+00 0. -1.
         11    1    3    3    0    0  0.52187895602E+00  0.20734887136E+01  0.11302729814E+02  0.11503191496E+02  0.51100000000E-03 0. -1.
        -11    1    3    3    0    0 -0.23177237034E+01  0.37316636567E+01  0.41736933348E+01  0.60594449520E+01  0.51100000000E-03 0.  1.
         12    1    3    3    0    0  0.29095820887E+02 -0.50703838834E+01  0.14645643037E+02  0.32966201568E+02  0.00000000000E+00 0. -1.
</event>
<event>
 7    1  0.4836188E-013  0.5052888E+02  0.7816164E-02  0.1300439E+00
        -11   -1    0    0    0    0  0.00000000000E+00  0.00000000000E+00  0.45593999997E+02  0.45594000000E+02  0.51100000000E-03 0. -1.
         11   -1    0    0    0    0 -0.00000000000E+00 -0.00000000000E+00 -0.45593999997E+02  0.45594000000E+02  0.51100000000E-03 0.  1.
    9900012    2    1    2    0    0 -0.29848664239E+02 -0.27597102770E+02  0.78832596216E+00  0.50528876842E+02  0.30000051649E+02 0.  0.
         12    1    1    2    0    0  0.29848664239E+02  0.27597102770E+02 -0.78832596216E+00  0.40659123158E+02  0.00000000000E+00 0. -1.
         11    1    3    3    0    0  0.25424616242E+01  0.44474084951E-01  0.10768170424E+01  0.27614532874E+01  0.51100000000E-03 0. -1.
        -11    1    3    3    0    0 -0.20974426158E+02 -0.46263737461E+01 -0.38803666120E+01  0.21826294510E+02  0.51100000000E-03 0.  1.
         12    1    3    3    0    0 -0.11416699704E+02 -0.23015203109E+02  0.35918755317E+01  0.25941129045E+02  0.00000000000E+00 0. -1.
</event>
<event>
 7    1  0.4836188E-013  0.5052886E+02  0.7816164E-02  0.1300439E+00
        -11   -1    0    0    0    0  0.00000000000E+00  0.00000000000E+00  0.45593999997E+02  0.45594000000E+02  0.51100000000E-03 0. -1.
         11   -1    0    0    0    0 -0.00000000000E+00 -0.00000000000E+00 -0.45593999997E+02  0.45594000000E+02  0.51100000000E-03 0.  1.
    9900012    2    1    2    0    0  0.23228605699E+01 -0.21004926133E+02 -0.34735617602E+02  0.50528859167E+02  0.29999997924E+02 0.  0.
         12    1    1    2    0    0 -0.23228605699E+01  0.21004926133E+02  0.34735617602E+02  0.40659140833E+02  0.00000000000E+00 0. -1.
         11    1    3    3    0    0 -0.21611394748E+01  0.11675512483E+01 -0.25101150962E+01  0.35120332863E+01  0.51100000000E-03 0. -1.
        -11    1    3    3    0    0 -0.75134082287E+01  0.36553983839E+00 -0.13135518227E+02  0.15136933703E+02  0.51100000000E-03 0.  1.
         12    1    3    3    0    0  0.11997408273E+02 -0.22538017220E+02 -0.19089984279E+02  0.31879892177E+02  0.00000000000E+00 0. -1.
</event>
<event>
 7    1  0.4836188E-013  0.5052884E+02  0.7816164E-02  0.1300439E+00
        -11   -1    0    0    0    0  0.00000000000E+00  0.00000000000E+00  0.45593999997E+02  0.45594000000E+02  0.51100000000E-03 0.  1.
         11   -1    0    0    0    0 -0.00000000000E+00 -0.00000000000E+00 -0.45593999997E+02  0.45594000000E+02  0.51100000000E-03 0. -1.
    9900012    2    1    2    0    0  0.39166554015E+02  0.39859461038E+01  0.10161701830E+02  0.50528844773E+02  0.29999954171E+02 0.  0.
         12    1    1    2    0    0 -0.39166554015E+02 -0.39859461038E+01 -0.10161701830E+02  0.40659155227E+02  0.00000000000E+00 0. -1.
         11    1    3    3    0    0  0.12023876636E+01  0.27578198218E+01  0.33281795500E+01  0.44864335103E+01  0.51100000000E-03 0. -1.
        -11    1    3    3    0    0  0.63522494464E+01  0.46032935377E+01 -0.77839784013E+01  0.11051321389E+02  0.51100000000E-03 0.  1.
         12    1    3    3    0    0  0.31611916905E+02 -0.33751672557E+01  0.14617500681E+02  0.34991089874E+02  0.00000000000E+00 0. -1.
</event>
<event>
 7    1  0.4836188E-013  0.5052885E+02  0.7816164E-02  0.1300439E+00
        -11   -1    0    0    0    0  0.00000000000E+00  0.00000000000E+00  0.45593999997E+02  0.45594000000E+02  0.51100000000E-03 0.  1.
         11   -1    0    0    0    0 -0.00000000000E+00 -0.00000000000E+00 -0.45593999997E+02  0.45594000000E+02  0.51100000000E-03 0. -1.
    9900012    2    1    2    0    0  0.70512665083E+01  0.24634440147E+02  0.31568815497E+02  0.50528854503E+02  0.29999983747E+02 0.  0.
         12    1    1    2    0    0 -0.70512665083E+01 -0.24634440147E+02 -0.31568815497E+02  0.40659145497E+02  0.00000000000E+00 0. -1.
         11    1    3    3    0    0  0.63323687570E+01  0.27055263288E+01  0.12203702563E+02  0.14012463142E+02  0.51100000000E-03 0. -1.
        -11    1    3    3    0    0 -0.59492471001E+01  0.62885642692E+00  0.11297443711E+02  0.12783631570E+02  0.51100000000E-03 0.  1.
         12    1    3    3    0    0  0.66681448514E+01  0.21300057391E+02  0.80676692231E+01  0.23732759791E+02  0.00000000000E+00 0. -1.
</event>
<event>
 7    1  0.4836188E-013  0.5052885E+02  0.7816164E-02  0.1300439E+00
        -11   -1    0    0    0    0  0.00000000000E+00  0.00000000000E+00  0.45593999997E+02  0.45594000000E+02  0.51100000000E-03 0. -1.
         11   -1    0    0    0    0 -0.00000000000E+00 -0.00000000000E+00 -0.45593999997E+02  0.45594000000E+02  0.51100000000E-03 0.  1.
    9900012    2    1    2    0    0 -0.31752077951E+02 -0.86914503332E+01 -0.23862743700E+02  0.50528852198E+02  0.29999976742E+02 0.  0.
         12    1    1    2    0    0  0.31752077951E+02  0.86914503332E+01  0.23862743700E+02  0.40659147802E+02  0.00000000000E+00 0. -1.
         11    1    3    3    0    0 -0.82262248942E+01 -0.63641766214E+01  0.23397742256E+01  0.10660584588E+02  0.51100000000E-03 0. -1.
        -11    1    3    3    0    0 -0.66745671949E+01  0.45542275067E+01 -0.14345694519E+00  0.80815478454E+01  0.51100000000E-03 0.  1.
        -12    1    3    3    0    0 -0.16851285862E+02 -0.68815012186E+01 -0.26059060980E+02  0.31786719764E+02  0.00000000000E+00 0.  1.
</event>
<event>
 7    1  0.4836188E-013  0.5052886E+02  0.7816164E-02  0.1300439E+00
        -11   -1    0    0    0    0  0.00000000000E+00  0.00000000000E+00  0.45593999997E+02  0.45594000000E+02  0.51100000000E-03 0.  1.
         11   -1    0    0    0    0 -0.00000000000E+00 -0.00000000000E+00 -0.45593999997E+02  0.45594000000E+02  0.51100000000E-03 0. -1.
    9900012    2    1    2    0    0 -0.31366986221E+02 -0.16669326639E+02  0.19784119111E+02  0.50528860262E+02  0.30000001253E+02 0.  0.
         12    1    1    2    0    0  0.31366986221E+02  0.16669326639E+02 -0.19784119111E+02  0.40659139738E+02  0.00000000000E+00 0. -1.
         11    1    3    3    0    0 -0.10649582394E+02 -0.18015192451E+01 -0.34761942983E+01  0.11346497425E+02  0.51100000000E-03 0. -1.
        -11    1    3    3    0    0 -0.10873543465E+01  0.40911123454E+01  0.28382730367E+01  0.50966002187E+01  0.51100000000E-03 0.  1.
         12    1    3    3    0    0 -0.19630049481E+02 -0.18958919739E+02  0.20422040373E+02  0.34085762619E+02  0.00000000000E+00 0. -1.
</event>
<event>
 7    1  0.4836188E-013  0.5052886E+02  0.7816164E-02  0.1300439E+00
        -11   -1    0    0    0    0  0.00000000000E+00  0.00000000000E+00  0.45593999997E+02  0.45594000000E+02  0.51100000000E-03 0. -1.
         11   -1    0    0    0    0 -0.00000000000E+00 -0.00000000000E+00 -0.45593999997E+02  0.45594000000E+02  0.51100000000E-03 0.  1.
    9900012    2    1    2    0    0 -0.36398545637E+02  0.10427704886E+02  0.14818038655E+02  0.50528862980E+02  0.30000009513E+02 0.  0.
         12    1    1    2    0    0  0.36398545637E+02 -0.10427704886E+02 -0.14818038655E+02  0.40659137020E+02  0.00000000000E+00 0. -1.
         11    1    3    3    0    0 -0.31309341712E+01 -0.18544085589E+01 -0.31270253380E+01  0.47979024181E+01  0.51100000000E-03 0.  1.
        -11    1    3    3    0    0 -0.15186592835E+02 -0.20780342689E+01  0.16611180919E+02  0.22602702497E+02  0.51100000000E-03 0. -1.
         12    1    3    3    0    0 -0.18081018630E+02  0.14360147713E+02  0.13338830742E+01  0.23128258065E+02  0.00000000000E+00 0. -1.
</event>
<event>
 7    1  0.4836188E-013  0.5052885E+02  0.7816164E-02  0.1300439E+00
        -11   -1    0    0    0    0  0.00000000000E+00  0.00000000000E+00  0.45593999997E+02  0.45594000000E+02  0.51100000000E-03 0.  1.
         11   -1    0    0    0    0 -0.00000000000E+00 -0.00000000000E+00 -0.45593999997E+02  0.45594000000E+02  0.51100000000E-03 0. -1.
    9900012    2    1    2    0    0 -0.25579725339E+02  0.24983529151E+02  0.19356319039E+02  0.50528853870E+02  0.29999981824E+02 0.  0.
         12    1    1    2    0    0  0.25579725339E+02 -0.24983529151E+02 -0.19356319039E+02  0.40659146130E+02  0.00000000000E+00 0. -1.
         11    1    3    3    0    0 -0.13631497667E+02 -0.32389577158E+01  0.96284295491E+01  0.17000447981E+02  0.51100000000E-03 0.  1.
        -11    1    3    3    0    0 -0.84854314962E+01  0.89522128187E+01  0.20802957488E+01  0.12508888547E+02  0.51100000000E-03 0. -1.
        -12    1    3    3    0    0 -0.34627961759E+01  0.19270274048E+02  0.76475937414E+01  0.21019517342E+02  0.00000000000E+00 0.  1.
</event>
<event>
 7    1  0.4836188E-013  0.5052886E+02  0.7816164E-02  0.1300439E+00
        -11   -1    0    0    0    0  0.00000000000E+00  0.00000000000E+00  0.45593999997E+02  0.45594000000E+02  0.51100000000E-03 0. -1.
         11   -1    0    0    0    0 -0.00000000000E+00 -0.00000000000E+00 -0.45593999997E+02  0.45594000000E+02  0.51100000000E-03 0.  1.
    9900012    2    1    2    0    0  0.35904638145E+01 -0.37598712706E+02 -0.15053615686E+02  0.50528856222E+02  0.29999988973E+02 0.  0.
         12    1    1    2    0    0 -0.35904638145E+01  0.37598712706E+02  0.15053615686E+02  0.40659143778E+02  0.00000000000E+00 0. -1.
         11    1    3    3    0    0 -0.28227711052E+01 -0.97747741282E-01 -0.36929198216E+00  0.28485027932E+01  0.51100000000E-03 0. -1.
        -11    1    3    3    0    0 -0.46375081568E+00 -0.32908971925E+02 -0.25694592744E+01  0.33012385846E+02  0.51100000000E-03 0.  1.
         12    1    3    3    0    0  0.68769857355E+01 -0.45919930390E+01 -0.12114864429E+02  0.14667967583E+02  0.00000000000E+00 0. -1.
</event>
<event>
 7    1  0.4836188E-013  0.5052885E+02  0.7816164E-02  0.1300439E+00
        -11   -1    0    0    0    0  0.00000000000E+00  0.00000000000E+00  0.45593999997E+02  0.45594000000E+02  0.51100000000E-03 0. -1.
         11   -1    0    0    0    0 -0.00000000000E+00 -0.00000000000E+00 -0.45593999997E+02  0.45594000000E+02  0.51100000000E-03 0.  1.
    9900012    2    1    2    0    0  0.15481415345E+02 -0.44434144364E+01 -0.37332940550E+02  0.50528848471E+02  0.29999965414E+02 0.  0.
         12    1    1    2    0    0 -0.15481415345E+02  0.44434144364E+01  0.37332940550E+02  0.40659151529E+02  0.00000000000E+00 0. -1.
         11    1    3    3    0    0  0.45278574512E+01  0.81717918879E+01 -0.14571984280E+02  0.17309604325E+02  0.51100000000E-03 0. -1.
        -11    1    3    3    0    0  0.33414245747E+01  0.33583258239E+01 -0.10988608641E+02  0.11966327367E+02  0.51100000000E-03 0.  1.
         12    1    3    3    0    0  0.76121333194E+01 -0.15973532148E+02 -0.11772347629E+02  0.21252916780E+02  0.00000000000E+00 0. -1.
</event>
<event>
 7    1  0.4836188E-013  0.5052885E+02  0.7816164E-02  0.1300439E+00
        -11   -1    0    0    0    0  0.00000000000E+00  0.00000000000E+00  0.45593999997E+02  0.45594000000E+02  0.51100000000E-03 0.  1.
         11   -1    0    0    0    0 -0.00000000000E+00 -0.00000000000E+00 -0.45593999997E+02  0.45594000000E+02  0.51100000000E-03 0. -1.
    9900012    2    1    2    0    0  0.19095286767E+02 -0.25365442769E+02  0.25399421408E+02  0.50528852549E+02  0.29999977809E+02 0.  0.
         12    1    1    2    0    0 -0.19095286767E+02  0.25365442769E+02 -0.25399421408E+02  0.40659147451E+02  0.00000000000E+00 0. -1.
         11    1    3    3    0    0  0.38350404444E+01  0.20378429037E+01  0.88743600894E+01  0.98800104336E+01  0.51100000000E-03 0. -1.
        -11    1    3    3    0    0 -0.34326047031E+00 -0.20579532897E+01 -0.39883846681E+01  0.45011345253E+01  0.51100000000E-03 0.  1.
        -12    1    3    3    0    0  0.15603506792E+02 -0.25345332383E+02  0.20513445986E+02  0.36147707591E+02  0.00000000000E+00 0.  1.
</event>
<event>
 7    1  0.4836188E-013  0.5052887E+02  0.7816164E-02  0.1300439E+00
        -11   -1    0    0    0    0  0.00000000000E+00  0.00000000000E+00  0.45593999997E+02  0.45594000000E+02  0.51100000000E-03 0. -1.
         11   -1    0    0    0    0 -0.00000000000E+00 -0.00000000000E+00 -0.45593999997E+02  0.45594000000E+02  0.51100000000E-03 0.  1.
    9900012    2    1    2    0    0 -0.30556948589E+02  0.22296149164E+02  0.14910372972E+02  0.50528873143E+02  0.30000040407E+02 0.  0.
         12    1    1    2    0    0  0.30556948589E+02 -0.22296149164E+02 -0.14910372972E+02  0.40659126857E+02  0.00000000000E+00 0. -1.
         11    1    3    3    0    0  0.53832136879E+00 -0.27616922205E+01 -0.32902891011E+01  0.43292882148E+01  0.51100000000E-03 0. -1.
        -11    1    3    3    0    0 -0.12919411893E+02  0.71936397303E+01 -0.16218069413E+00  0.14788034321E+02  0.51100000000E-03 0.  1.
         12    1    3    3    0    0 -0.18175858065E+02  0.17864201654E+02  0.18362842767E+02  0.31411550608E+02  0.00000000000E+00 0. -1.
</event>
<event>
 7    1  0.4836188E-013  0.5052887E+02  0.7816164E-02  0.1300439E+00
        -11   -1    0    0    0    0  0.00000000000E+00  0.00000000000E+00  0.45593999997E+02  0.45594000000E+02  0.51100000000E-03 0.  1.
         11   -1    0    0    0    0 -0.00000000000E+00 -0.00000000000E+00 -0.45593999997E+02  0.45594000000E+02  0.51100000000E-03 0. -1.
    9900012    2    1    2    0    0  0.15844809261E+02 -0.59603579775E+01  0.36967301711E+02  0.50528865190E+02  0.30000016230E+02 0.  0.
         12    1    1    2    0    0 -0.15844809261E+02  0.59603579775E+01 -0.36967301711E+02  0.40659134810E+02  0.00000000000E+00 0. -1.
         11    1    3    3    0    0  0.42224021219E+01 -0.14045396044E+02  0.10313190655E+02  0.17929409680E+02  0.51100000000E-03 0.  1.
        -11    1    3    3    0    0  0.90759303957E+01 -0.48585964489E+00  0.88989685384E+01  0.12720071283E+02  0.51100000000E-03 0. -1.
        -12    1    3    3    0    0  0.25464767432E+01  0.85708977118E+01  0.17755142518E+02  0.19879384227E+02  0.00000000000E+00 0.  1.
</event>
<event>
 7    1  0.4836188E-013  0.5052886E+02  0.7816164E-02  0.1300439E+00
        -11   -1    0    0    0    0  0.00000000000E+00  0.00000000000E+00  0.45593999997E+02  0.45594000000E+02  0.51100000000E-03 0. -1.
         11   -1    0    0    0    0 -0.00000000000E+00 -0.00000000000E+00 -0.45593999997E+02  0.45594000000E+02  0.51100000000E-03 0.  1.
    9900012    2    1    2    0    0  0.29574513688E+02  0.22596540444E+02  0.16367949455E+02  0.50528864873E+02  0.30000015269E+02 0.  0.
         12    1    1    2    0    0 -0.29574513688E+02 -0.22596540444E+02 -0.16367949455E+02  0.40659135127E+02  0.00000000000E+00 0. -1.
         11    1    3    3    0    0  0.92499450779E+01  0.18010144515E+02  0.13081507293E+02  0.24105033141E+02  0.51100000000E-03 0. -1.
        -11    1    3    3    0    0  0.15630026490E+02  0.91057336747E+01  0.64182913551E+01  0.19193920340E+02  0.51100000000E-03 0.  1.
         12    1    3    3    0    0  0.46945421195E+01 -0.45193377464E+01 -0.31318491929E+01  0.72299113926E+01  0.00000000000E+00 0. -1.
</event>
<event>
 7    1  0.4836188E-013  0.5052885E+02  0.7816164E-02  0.1300439E+00
        -11   -1    0    0    0    0  0.00000000000E+00  0.00000000000E+00  0.45593999997E+02  0.45594000000E+02  0.51100000000E-03 0.  1.
         11   -1    0    0    0    0 -0.00000000000E+00 -0.00000000000E+00 -0.45593999997E+02  0.45594000000E+02  0.51100000000E-03 0. -1.
    9900012    2    1    2    0    0  0.57456279308E+01  0.10357898932E+02  0.38895607717E+02  0.50528848382E+02  0.29999965142E+02 0.  0.
         12    1    1    2    0    0 -0.57456279308E+01 -0.10357898932E+02 -0.38895607717E+02  0.40659151618E+02  0.00000000000E+00 0. -1.
         11    1    3    3    0    0 -0.33780175083E+01  0.18083920680E+01 -0.32698755305E+00  0.38455435609E+01  0.51100000000E-03 0. -1.
        -11    1    3    3    0    0 -0.64353548378E+01  0.13601117970E+01  0.19365970451E+02  0.20452493925E+02  0.51100000000E-03 0.  1.
         12    1    3    3    0    0  0.15559000277E+02  0.71893950671E+01  0.19856624819E+02  0.26230810896E+02  0.00000000000E+00 0. -1.
</event>
<event>
 7    1  0.4836188E-013  0.5052887E+02  0.7816164E-02  0.1300439E+00
        -11   -1    0    0    0    0  0.00000000000E+00  0.00000000000E+00  0.45593999997E+02  0.45594000000E+02  0.51100000000E-03 0.  1.
         11   -1    0    0    0    0 -0.00000000000E+00 -0.00000000000E+00 -0.45593999997E+02  0.45594000000E+02  0.51100000000E-03 0. -1.
    9900012    2    1    2    0    0  0.10311603189E+02 -0.22223086282E+02  0.32449506942E+02  0.50528865418E+02  0.30000016923E+02 0.  0.
         12    1    1    2    0    0 -0.10311603189E+02  0.22223086282E+02 -0.32449506942E+02  0.40659134582E+02  0.00000000000E+00 0. -1.
         11    1    3    3    0    0  0.32619484336E+01 -0.75207374379E+01 -0.29896319722E+01  0.87258064833E+01  0.51100000000E-03 0. -1.
        -11    1    3    3    0    0  0.67247986985E+01 -0.16637357990E+01  0.45902900640E+01  0.83103367848E+01  0.51100000000E-03 0.  1.
         12    1    3    3    0    0  0.32485605651E+00 -0.13038613045E+02  0.30848848850E+02  0.33492722149E+02  0.00000000000E+00 0. -1.
</event>
<event>
 7    1  0.4836188E-013  0.5052884E+02  0.7816164E-02  0.1300439E+00
        -11   -1    0    0    0    0  0.00000000000E+00  0.00000000000E+00  0.45593999997E+02  0.45594000000E+02  0.51100000000E-03 0.  1.
         11   -1    0    0    0    0 -0.00000000000E+00 -0.00000000000E+00 -0.45593999997E+02  0.45594000000E+02  0.51100000000E-03 0. -1.
    9900012    2    1    2    0    0  0.77794420720E+01 -0.35742399246E+02  0.17751859125E+02  0.50528839590E+02  0.29999938419E+02 0.  0.
         12    1    1    2    0    0 -0.77794420720E+01  0.35742399246E+02 -0.17751859125E+02  0.40659160410E+02  0.00000000000E+00 0. -1.
         11    1    3    3    0    0  0.36248592147E+01 -0.64087575303E+01 -0.64800816100E+01  0.98083247980E+01  0.51100000000E-03 0. -1.
        -11    1    3    3    0    0  0.64371387239E+01 -0.52619751836E+01  0.41674177144E+01  0.93001348619E+01  0.51100000000E-03 0.  1.
         12    1    3    3    0    0 -0.22825558666E+01 -0.24071666532E+02  0.20064523021E+02  0.31420379930E+02  0.00000000000E+00 0. -1.
</event>
<event>
 7    1  0.4836188E-013  0.5052886E+02  0.7816164E-02  0.1300439E+00
        -11   -1    0    0    0    0  0.00000000000E+00  0.00000000000E+00  0.45593999997E+02  0.45594000000E+02  0.51100000000E-03 0.  1.
         11   -1    0    0    0    0 -0.00000000000E+00 -0.00000000000E+00 -0.45593999997E+02  0.45594000000E+02  0.51100000000E-03 0. -1.
    9900012    2    1    2    0    0 -0.26009459329E+01 -0.35498854332E+02  0.19652789226E+02  0.50528859539E+02  0.29999999056E+02 0.  0.
         12    1    1    2    0    0  0.26009459329E+01  0.35498854332E+02 -0.19652789226E+02  0.40659140461E+02  0.00000000000E+00 0. -1.
         11    1    3    3    0    0 -0.17740352910E+01 -0.18175178711E+02  0.11762943337E+02  0.21722135222E+02  0.51100000000E-03 0.  1.
        -11    1    3    3    0    0  0.95687379054E+01 -0.10280926769E+02  0.12936160551E+00  0.14045459588E+02  0.51100000000E-03 0. -1.
         12    1    3    3    0    0 -0.10395648547E+02 -0.70427488510E+01  0.77604842839E+01  0.14761264730E+02  0.00000000000E+00 0. -1.
</event>
<event>
 7    1  0.4836188E-013  0.5052886E+02  0.7816164E-02  0.1300439E+00
        -11   -1    0    0    0    0  0.00000000000E+00  0.00000000000E+00  0.45593999997E+02  0.45594000000E+02  0.51100000000E-03 0. -1.
         11   -1    0    0    0    0 -0.00000000000E+00 -0.00000000000E+00 -0.45593999997E+02  0.45594000000E+02  0.51100000000E-03 0.  1.
    9900012    2    1    2    0    0  0.29897704058E+02 -0.57240361479E+01 -0.26954185528E+02  0.50528863079E+02  0.30000009814E+02 0.  0.
         12    1    1    2    0    0 -0.29897704058E+02  0.57240361479E+01  0.26954185528E+02  0.40659136921E+02  0.00000000000E+00 0. -1.
         11    1    3    3    0    0 -0.16298991879E+01 -0.71106019438E+01  0.21067919274E+01  0.75931418959E+01  0.51100000000E-03 0. -1.
        -11    1    3    3    0    0  0.87698639957E+01 -0.39333474329E+00 -0.80972595373E+01  0.11942815372E+02  0.51100000000E-03 0.  1.
         12    1    3    3    0    0  0.22757739250E+02  0.17799005391E+01 -0.20963717918E+02  0.30992905811E+02  0.00000000000E+00 0. -1.
</event>
<event>
 7    1  0.4836188E-013  0.5052886E+02  0.7816164E-02  0.1300439E+00
        -11   -1    0    0    0    0  0.00000000000E+00  0.00000000000E+00  0.45593999997E+02  0.45594000000E+02  0.51100000000E-03 0. -1.
         11   -1    0    0    0    0 -0.00000000000E+00 -0.00000000000E+00 -0.45593999997E+02  0.45594000000E+02  0.51100000000E-03 0.  1.
    9900012    2    1    2    0    0  0.26276192625E+02 -0.20128468920E+02 -0.23612967296E+02  0.50528858538E+02  0.29999996011E+02 0.  0.
         12    1    1    2    0    0 -0.26276192625E+02  0.20128468920E+02  0.23612967296E+02  0.40659141462E+02  0.00000000000E+00 0. -1.
         11    1    3    3    0    0  0.12220021346E+02  0.31337144092E+01 -0.59391263766E+00  0.12629403002E+02  0.51100000000E-03 0. -1.
        -11    1    3    3    0    0  0.10437854739E+01 -0.54087104831E+00 -0.72274205784E+01  0.73224065774E+01  0.51100000000E-03 0.  1.
         12    1    3    3    0    0  0.13012385804E+02 -0.22721312281E+02 -0.15791634080E+02  0.30577048958E+02  0.00000000000E+00 0. -1.
</event>
<event>
 7    1  0.4836188E-013  0.5052886E+02  0.7816164E-02  0.1300439E+00
        -11   -1    0    0    0    0  0.00000000000E+00  0.00000000000E+00  0.45593999997E+02  0.45594000000E+02  0.51100000000E-03 0.  1.
         11   -1    0    0    0    0 -0.00000000000E+00 -0.00000000000E+00 -0.45593999997E+02  0.45594000000E+02  0.51100000000E-03 0. -1.
    9900012    2    1    2    0    0  0.83293667335E+01  0.28291804538E+02 -0.27988589337E+02  0.50528859733E+02  0.29999999644E+02 0.  0.
         12    1    1    2    0    0 -0.83293667335E+01 -0.28291804538E+02  0.27988589337E+02  0.40659140267E+02  0.00000000000E+00 0. -1.
         11    1    3    3    0    0 -0.28791041608E+01 -0.62803091495E+00 -0.12736655052E+02  0.13073103907E+02  0.51100000000E-03 0. -1.
        -11    1    3    3    0    0  0.13944648121E+01 -0.14457086304E+01 -0.21964033887E+01  0.29763725680E+01  0.51100000000E-03 0.  1.
        -12    1    3    3    0    0  0.98140060822E+01  0.30365544083E+02 -0.13055530896E+02  0.34479383258E+02  0.00000000000E+00 0.  1.
</event>
<event>
 7    1  0.4836188E-013  0.5052888E+02  0.7816164E-02  0.1300439E+00
        -11   -1    0    0    0    0  0.00000000000E+00  0.00000000000E+00  0.45593999997E+02  0.45594000000E+02  0.51100000000E-03 0. -1.
         11   -1    0    0    0    0 -0.00000000000E+00 -0.00000000000E+00 -0.45593999997E+02  0.45594000000E+02  0.51100000000E-03 0.  1.
    9900012    2    1    2    0    0  0.19430668636E+00  0.31092304197E+02 -0.26199138115E+02  0.50528880810E+02  0.30000063709E+02 0.  0.
         12    1    1    2    0    0 -0.19430668636E+00 -0.31092304197E+02  0.26199138115E+02  0.40659119190E+02  0.00000000000E+00 0. -1.
         11    1    3    3    0    0 -0.16927570091E+01 -0.19189865950E+01 -0.45820518198E+01  0.52481553887E+01  0.51100000000E-03 0. -1.
        -11    1    3    3    0    0  0.47736387221E+01  0.55565416022E+01  0.33536240743E+01  0.80566479332E+01  0.51100000000E-03 0.  1.
        -12    1    3    3    0    0 -0.28865750266E+01  0.27454749190E+02 -0.24970710370E+02  0.37224077488E+02  0.00000000000E+00 0.  1.
</event>
<event>
 7    1  0.4836188E-013  0.5052886E+02  0.7816164E-02  0.1300439E+00
        -11   -1    0    0    0    0  0.00000000000E+00  0.00000000000E+00  0.45593999997E+02  0.45594000000E+02  0.51100000000E-03 0.  1.
         11   -1    0    0    0    0 -0.00000000000E+00 -0.00000000000E+00 -0.45593999997E+02  0.45594000000E+02  0.51100000000E-03 0. -1.
    9900012    2    1    2    0    0  0.39283726077E+02  0.74387427279E+01  0.73904939497E+01  0.50528862913E+02  0.30000009310E+02 0.  0.
         12    1    1    2    0    0 -0.39283726077E+02 -0.74387427279E+01 -0.73904939497E+01  0.40659137087E+02  0.00000000000E+00 0. -1.
         11    1    3    3    0    0  0.74687608295E+00 -0.26518775034E+01  0.40821987020E+01  0.49248984436E+01  0.51100000000E-03 0. -1.
        -11    1    3    3    0    0  0.33461881389E+02 -0.11666825234E+00  0.57329909835E+01  0.33949643642E+02  0.51100000000E-03 0.  1.
         12    1    3    3    0    0  0.50749686052E+01  0.10207288484E+02 -0.24246957358E+01  0.11654320827E+02  0.00000000000E+00 0. -1.
</event>
<event>
 7    1  0.4836188E-013  0.5052885E+02  0.7816164E-02  0.1300439E+00
        -11   -1    0    0    0    0  0.00000000000E+00  0.00000000000E+00  0.45593999997E+02  0.45594000000E+02  0.51100000000E-03 0.  1.
         11   -1    0    0    0    0 -0.00000000000E+00 -0.00000000000E+00 -0.45593999997E+02  0.45594000000E+02  0.51100000000E-03 0. -1.
    9900012    2    1    2    0    0 -0.14872715806E+02  0.18035834000E+02  0.33266762792E+02  0.50528849859E+02  0.29999969632E+02 0.  0.
         12    1    1    2    0    0  0.14872715806E+02 -0.18035834000E+02 -0.33266762792E+02  0.40659150141E+02  0.00000000000E+00 0. -1.
         11    1    3    3    0    0 -0.15248950538E+02  0.32128460766E+01  0.70144306011E+01  0.17089619929E+02  0.51100000000E-03 0. -1.
        -11    1    3    3    0    0  0.19159148828E+01 -0.25763517508E+01  0.34088008963E+01  0.46827600829E+01  0.51100000000E-03 0.  1.
         12    1    3    3    0    0 -0.15396801513E+01  0.17399339674E+02  0.22843531295E+02  0.28756469847E+02  0.00000000000E+00 0. -1.
</event>
<event>
 7    1  0.4836188E-013  0.5052885E+02  0.7816164E-02  0.1300439E+00
        -11   -1    0    0    0    0  0.00000000000E+00  0.00000000000E+00  0.45593999997E+02  0.45594000000E+02  0.51100000000E-03 0.  1.
         11   -1    0    0    0    0 -0.00000000000E+00 -0.00000000000E+00 -0.45593999997E+02  0.45594000000E+02  0.51100000000E-03 0. -1.
    9900012    2    1    2    0    0 -0.35905829985E+01 -0.15964219401E+02  0.37221206388E+02  0.50528846144E+02  0.29999958339E+02 0.  0.
         12    1    1    2    0    0  0.35905829985E+01  0.15964219401E+02 -0.37221206388E+02  0.40659153856E+02  0.00000000000E+00 0. -1.
         11    1    3    3    0    0 -0.18694923226E+01  0.33892042455E+01  0.12176292341E+02  0.12776689806E+02  0.51100000000E-03 0. -1.
        -11    1    3    3    0    0 -0.83159812093E+01 -0.18554814726E+02  0.13418472311E+02  0.24361693135E+02  0.51100000000E-03 0.  1.
         12    1    3    3    0    0  0.65948905334E+01 -0.79860892033E+00  0.11626441736E+02  0.13390463203E+02  0.00000000000E+00 0. -1.
</event>
<event>
 7    1  0.4836188E-013  0.5052886E+02  0.7816164E-02  0.1300439E+00
        -11   -1    0    0    0    0  0.00000000000E+00  0.00000000000E+00  0.45593999997E+02  0.45594000000E+02  0.51100000000E-03 0.  1.
         11   -1    0    0    0    0 -0.00000000000E+00 -0.00000000000E+00 -0.45593999997E+02  0.45594000000E+02  0.51100000000E-03 0. -1.
    9900012    2    1    2    0    0  0.24327347907E+02  0.79088090250E+01  0.31603742612E+02  0.50528860026E+02  0.30000000534E+02 0.  0.
         12    1    1    2    0    0 -0.24327347907E+02 -0.79088090250E+01 -0.31603742612E+02  0.40659139974E+02  0.00000000000E+00 0. -1.
         11    1    3    3    0    0  0.54234601964E+01  0.77037156608E+00 -0.10245786816E+01  0.55728946328E+01  0.51100000000E-03 0. -1.
        -11    1    3    3    0    0 -0.40060173425E+01  0.64583372741E+01  0.51838281094E+01  0.91994765842E+01  0.51100000000E-03 0.  1.
        -12    1    3    3    0    0  0.22909905053E+02  0.68010018489E+00  0.27444493184E+02  0.35756488809E+02  0.00000000000E+00 0.  1.
</event>
<event>
 7    1  0.4836188E-013  0.5052886E+02  0.7816164E-02  0.1300439E+00
        -11   -1    0    0    0    0  0.00000000000E+00  0.00000000000E+00  0.45593999997E+02  0.45594000000E+02  0.51100000000E-03 0.  1.
         11   -1    0    0    0    0 -0.00000000000E+00 -0.00000000000E+00 -0.45593999997E+02  0.45594000000E+02  0.51100000000E-03 0. -1.
    9900012    2    1    2    0    0  0.13193774439E+01 -0.24381936660E+01  0.40564519859E+02  0.50528858143E+02  0.29999994810E+02 0.  0.
         12    1    1    2    0    0 -0.13193774439E+01  0.24381936660E+01 -0.40564519859E+02  0.40659141857E+02  0.00000000000E+00 0. -1.
         11    1    3    3    0    0  0.77712551393E+01  0.12363155347E+01  0.16365039809E+01  0.80373520566E+01  0.51100000000E-03 0. -1.
        -11    1    3    3    0    0 -0.29739819678E+01  0.59551622768E+01  0.12760892088E+02  0.14392668051E+02  0.51100000000E-03 0.  1.
         12    1    3    3    0    0 -0.34778957276E+01 -0.96296714775E+01  0.26167123790E+02  0.28098838035E+02  0.00000000000E+00 0. -1.
</event>
<event>
 7    1  0.4836188E-013  0.5052886E+02  0.7816164E-02  0.1300439E+00
        -11   -1    0    0    0    0  0.00000000000E+00  0.00000000000E+00  0.45593999997E+02  0.45594000000E+02  0.51100000000E-03 0.  1.
         11   -1    0    0    0    0 -0.00000000000E+00 -0.00000000000E+00 -0.45593999997E+02  0.45594000000E+02  0.51100000000E-03 0. -1.
    9900012    2    1    2    0    0  0.16487325531E+02  0.12030526234E+02  0.35165328824E+02  0.50528858151E+02  0.29999994834E+02 0.  0.
         12    1    1    2    0    0 -0.16487325531E+02 -0.12030526234E+02 -0.35165328824E+02  0.40659141849E+02  0.00000000000E+00 0. -1.
         11    1    3    3    0    0  0.60550757353E+01  0.65284025878E+00 -0.18696302186E+01  0.63706875593E+01  0.51100000000E-03 0. -1.
        -11    1    3    3    0    0 -0.46675783488E+01  0.68424254768E+01  0.12748618861E+02  0.15203037762E+02  0.51100000000E-03 0.  1.
        -12    1    3    3    0    0  0.15099828144E+02  0.45352604985E+01  0.24286340181E+02  0.28955132830E+02  0.00000000000E+00 0.  1.
</event>
<event>
 7    1  0.4836188E-013  0.5052886E+02  0.7816164E-02  0.1300439E+00
        -11   -1    0    0    0    0  0.00000000000E+00  0.00000000000E+00  0.45593999997E+02  0.45594000000E+02  0.51100000000E-03 0.  1.
         11   -1    0    0    0    0 -0.00000000000E+00 -0.00000000000E+00 -0.45593999997E+02  0.45594000000E+02  0.51100000000E-03 0. -1.
    9900012    2    1    2    0    0 -0.64268777467E+00 -0.38689806931E+02 -0.12484049812E+02  0.50528859482E+02  0.29999998882E+02 0.  0.
         12    1    1    2    0    0  0.64268777467E+00  0.38689806931E+02  0.12484049812E+02  0.40659140518E+02  0.00000000000E+00 0. -1.
         11    1    3    3    0    0 -0.49806987950E+01 -0.83615898726E+01 -0.65632499884E+01  0.11738815799E+02  0.51100000000E-03 0. -1.
        -11    1    3    3    0    0 -0.49469717643E+01 -0.19437980911E+02  0.51365581898E+01  0.20704875315E+02  0.51100000000E-03 0.  1.
         12    1    3    3    0    0  0.92849827846E+01 -0.10890236147E+02 -0.11057358014E+02  0.18085168368E+02  0.00000000000E+00 0. -1.
</event>
<event>
 7    1  0.4836188E-013  0.5052886E+02  0.7816164E-02  0.1300439E+00
        -11   -1    0    0    0    0  0.00000000000E+00  0.00000000000E+00  0.45593999997E+02  0.45594000000E+02  0.51100000000E-03 0. -1.
         11   -1    0    0    0    0 -0.00000000000E+00 -0.00000000000E+00 -0.45593999997E+02  0.45594000000E+02  0.51100000000E-03 0.  1.
    9900012    2    1    2    0    0  0.24175380225E+02  0.85825940153E+01 -0.31544507338E+02  0.50528857458E+02  0.29999992730E+02 0.  0.
         12    1    1    2    0    0 -0.24175380225E+02 -0.85825940153E+01  0.31544507338E+02  0.40659142542E+02  0.00000000000E+00 0. -1.
         11    1    3    3    0    0  0.16570934561E+01  0.35479288611E+00  0.33732872432E+01  0.37750369270E+01  0.51100000000E-03 0. -1.
        -11    1    3    3    0    0  0.14308786794E+01  0.62920939088E+01 -0.19554618549E+02  0.20591769385E+02  0.51100000000E-03 0.  1.
         12    1    3    3    0    0  0.21087408089E+02  0.19357072203E+01 -0.15363176032E+02  0.26162051146E+02  0.00000000000E+00 0. -1.
</event>
<event>
 7    1  0.4836188E-013  0.5052886E+02  0.7816164E-02  0.1300439E+00
        -11   -1    0    0    0    0  0.00000000000E+00  0.00000000000E+00  0.45593999997E+02  0.45594000000E+02  0.51100000000E-03 0.  1.
         11   -1    0    0    0    0 -0.00000000000E+00 -0.00000000000E+00 -0.45593999997E+02  0.45594000000E+02  0.51100000000E-03 0. -1.
    9900012    2    1    2    0    0  0.21576793136E+02 -0.24279874471E+02  0.24455996096E+02  0.50528855255E+02  0.29999986033E+02 0.  0.
         12    1    1    2    0    0 -0.21576793136E+02  0.24279874471E+02 -0.24455996096E+02  0.40659144745E+02  0.00000000000E+00 0. -1.
         11    1    3    3    0    0  0.73195413036E+00 -0.59603741520E+01  0.13698604703E+02  0.14957058132E+02  0.51100000000E-03 0. -1.
        -11    1    3    3    0    0  0.11075821725E+02 -0.19397522380E+02  0.12490266959E+02  0.25591882899E+02  0.51100000000E-03 0.  1.
        -12    1    3    3    0    0  0.97690172804E+01  0.10780220605E+01 -0.17328755661E+01  0.99799142238E+01  0.00000000000E+00 0.  1.
</event>
<event>
 7    1  0.4836188E-013  0.5052893E+02  0.7816164E-02  0.1300439E+00
        -11   -1    0    0    0    0  0.00000000000E+00  0.00000000000E+00  0.45593999997E+02  0.45594000000E+02  0.51100000000E-03 0. -1.
         11   -1    0    0    0    0 -0.00000000000E+00 -0.00000000000E+00 -0.45593999997E+02  0.45594000000E+02  0.51100000000E-03 0.  1.
    9900012    2    1    2    0    0  0.53737116632E+01  0.37458255448E+02 -0.14871527474E+02  0.50528929577E+02  0.30000211942E+02 0.  0.
         12    1    1    2    0    0 -0.53737116632E+01 -0.37458255448E+02  0.14871527474E+02  0.40659070423E+02  0.00000000000E+00 0. -1.
         11    1    3    3    0    0 -0.11862172373E+00  0.14105501604E+02  0.40175545072E+01  0.14666969390E+02  0.51100000000E-03 0. -1.
        -11    1    3    3    0    0 -0.48809977874E+01  0.16725252661E+02 -0.70888853397E+01  0.18809851451E+02  0.51100000000E-03 0.  1.
         12    1    3    3    0    0  0.10373331174E+02  0.66275011826E+01 -0.11800196641E+02  0.17052108736E+02  0.00000000000E+00 0. -1.
</event>
<event>
 7    1  0.4836188E-013  0.5052885E+02  0.7816164E-02  0.1300439E+00
        -11   -1    0    0    0    0  0.00000000000E+00  0.00000000000E+00  0.45593999997E+02  0.45594000000E+02  0.51100000000E-03 0. -1.
         11   -1    0    0    0    0 -0.00000000000E+00 -0.00000000000E+00 -0.45593999997E+02  0.45594000000E+02  0.51100000000E-03 0.  1.
    9900012    2    1    2    0    0 -0.28218319440E+02 -0.29016630396E+02 -0.38636902859E+01  0.50528849810E+02  0.29999969483E+02 0.  0.
         12    1    1    2    0    0  0.28218319440E+02  0.29016630396E+02  0.38636902859E+01  0.40659150190E+02  0.00000000000E+00 0. -1.
         11    1    3    3    0    0 -0.11667452051E+02  0.10123992394E+01  0.13919970803E+01  0.11793729084E+02  0.51100000000E-03 0.  1.
        -11    1    3    3    0    0  0.36579041405E+01 -0.40859602116E+01 -0.10217735749E+01  0.55784724658E+01  0.51100000000E-03 0. -1.
         12    1    3    3    0    0 -0.20208771530E+02 -0.25943069423E+02 -0.42339137913E+01  0.33156648260E+02  0.00000000000E+00 0. -1.
</event>
<event>
 7    1  0.4836188E-013  0.5052886E+02  0.7816164E-02  0.1300439E+00
        -11   -1    0    0    0    0  0.00000000000E+00  0.00000000000E+00  0.45593999997E+02  0.45594000000E+02  0.51100000000E-03 0.  1.
         11   -1    0    0    0    0 -0.00000000000E+00 -0.00000000000E+00 -0.45593999997E+02  0.45594000000E+02  0.51100000000E-03 0. -1.
    9900012    2    1    2    0    0 -0.32368818339E+02  0.39707112175E+01  0.24282894473E+02  0.50528856966E+02  0.29999991235E+02 0.  0.
         12    1    1    2    0    0  0.32368818339E+02 -0.39707112175E+01 -0.24282894473E+02  0.40659143034E+02  0.00000000000E+00 0. -1.
         11    1    3    3    0    0  0.18940127600E+01 -0.60008383352E+00 -0.34480131824E+01  0.39794698277E+01  0.51100000000E-03 0. -1.
        -11    1    3    3    0    0 -0.10099089518E+02  0.34395141330E+01  0.13453176937E+01  0.10753220286E+02  0.51100000000E-03 0.  1.
        -12    1    3    3    0    0 -0.24163741580E+02  0.11312809180E+01  0.26385589962E+02  0.35796166852E+02  0.00000000000E+00 0.  1.
</event>
<event>
 7    1  0.4836188E-013  0.5052886E+02  0.7816164E-02  0.1300439E+00
        -11   -1    0    0    0    0  0.00000000000E+00  0.00000000000E+00  0.45593999997E+02  0.45594000000E+02  0.51100000000E-03 0.  1.
         11   -1    0    0    0    0 -0.00000000000E+00 -0.00000000000E+00 -0.45593999997E+02  0.45594000000E+02  0.51100000000E-03 0. -1.
    9900012    2    1    2    0    0 -0.14200455573E+02 -0.23835585998E+02  0.29721663131E+02  0.50528863787E+02  0.30000011966E+02 0.  0.
         12    1    1    2    0    0  0.14200455573E+02  0.23835585998E+02 -0.29721663131E+02  0.40659136213E+02  0.00000000000E+00 0. -1.
         11    1    3    3    0    0  0.65731272388E+01 -0.60190090951E+01  0.53887055336E+01  0.10415018952E+02  0.51100000000E-03 0. -1.
        -11    1    3    3    0    0 -0.37569432553E+01 -0.13805038959E+02  0.93742512388E+01  0.17104686780E+02  0.51100000000E-03 0.  1.
        -12    1    3    3    0    0 -0.17016639556E+02 -0.40115379434E+01  0.14958706359E+02  0.23009158055E+02  0.00000000000E+00 0.  1.
</event>
<event>
 7    1  0.4836188E-013  0.5052886E+02  0.7816164E-02  0.1300439E+00
        -11   -1    0    0    0    0  0.00000000000E+00  0.00000000000E+00  0.45593999997E+02  0.45594000000E+02  0.51100000000E-03 0.  1.
         11   -1    0    0    0    0 -0.00000000000E+00 -0.00000000000E+00 -0.45593999997E+02  0.45594000000E+02  0.51100000000E-03 0. -1.
    9900012    2    1    2    0    0 -0.20110096925E+02 -0.30413539970E+02  0.17993497710E+02  0.50528863613E+02  0.30000011440E+02 0.  0.
         12    1    1    2    0    0  0.20110096925E+02  0.30413539970E+02 -0.17993497710E+02  0.40659136387E+02  0.00000000000E+00 0. -1.
         11    1    3    3    0    0 -0.18967120038E+01 -0.11745460023E+02  0.41118192989E+01  0.12588105727E+02  0.51100000000E-03 0.  1.
        -11    1    3    3    0    0 -0.46131099037E+01  0.41386353744E+01 -0.25635887827E+01  0.67067930827E+01  0.51100000000E-03 0. -1.
         12    1    3    3    0    0 -0.13600275018E+02 -0.22806715321E+02  0.16445267193E+02  0.31233964804E+02  0.00000000000E+00 0. -1.
</event>
<event>
 7    1  0.4836188E-013  0.5052886E+02  0.7816164E-02  0.1300439E+00
        -11   -1    0    0    0    0  0.00000000000E+00  0.00000000000E+00  0.45593999997E+02  0.45594000000E+02  0.51100000000E-03 0. -1.
         11   -1    0    0    0    0 -0.00000000000E+00 -0.00000000000E+00 -0.45593999997E+02  0.45594000000E+02  0.51100000000E-03 0.  1.
    9900012    2    1    2    0    0 -0.19618851123E+02  0.27452546916E+02 -0.22685333582E+02  0.50528855748E+02  0.29999987533E+02 0.  0.
         12    1    1    2    0    0  0.19618851123E+02 -0.27452546916E+02  0.22685333582E+02  0.40659144252E+02  0.00000000000E+00 0. -1.
         11    1    3    3    0    0 -0.80825306863E+01  0.21015031147E+02 -0.74284899104E+01  0.23709519164E+02  0.51100000000E-03 0. -1.
        -11    1    3    3    0    0 -0.13183495342E+02  0.10882924390E+02 -0.13427007005E+02  0.21737688702E+02  0.51100000000E-03 0.  1.
         12    1    3    3    0    0  0.16471749057E+01 -0.44454086208E+01 -0.18298366664E+01  0.50816478825E+01  0.00000000000E+00 0. -1.
</event>
<event>
 7    1  0.4836188E-013  0.5052886E+02  0.7816164E-02  0.1300439E+00
        -11   -1    0    0    0    0  0.00000000000E+00  0.00000000000E+00  0.45593999997E+02  0.45594000000E+02  0.51100000000E-03 0.  1.
         11   -1    0    0    0    0 -0.00000000000E+00 -0.00000000000E+00 -0.45593999997E+02  0.45594000000E+02  0.51100000000E-03 0. -1.
    9900012    2    1    2    0    0 -0.19874592018E+02 -0.15315306383E+02  0.31993874778E+02  0.50528855385E+02  0.29999986430E+02 0.  0.
         12    1    1    2    0    0  0.19874592018E+02  0.15315306383E+02 -0.31993874778E+02  0.40659144615E+02  0.00000000000E+00 0. -1.
         11    1    3    3    0    0  0.39070480226E+01 -0.72674374452E+01  0.87963174026E+01  0.12060508753E+02  0.51100000000E-03 0. -1.
        -11    1    3    3    0    0 -0.84106966677E+01 -0.10659877785E+02  0.49153120029E+01  0.14440675371E+02  0.51100000000E-03 0.  1.
         12    1    3    3    0    0 -0.15370943373E+02  0.26120088476E+01  0.18282245373E+02  0.24027671262E+02  0.00000000000E+00 0. -1.
</event>
<event>
 7    1  0.4836188E-013  0.5052887E+02  0.7816164E-02  0.1300439E+00
        -11   -1    0    0    0    0  0.00000000000E+00  0.00000000000E+00  0.45593999997E+02  0.45594000000E+02  0.51100000000E-03 0. -1.
         11   -1    0    0    0    0 -0.00000000000E+00 -0.00000000000E+00 -0.45593999997E+02  0.45594000000E+02  0.51100000000E-03 0.  1.
    9900012    2    1    2    0    0  0.16647880074E+02  0.35201842329E+02 -0.11698015983E+02  0.50528865820E+02  0.30000018148E+02 0.  0.
         12    1    1    2    0    0 -0.16647880074E+02 -0.35201842329E+02  0.11698015983E+02  0.40659134180E+02  0.00000000000E+00 0. -1.
         11    1    3    3    0    0 -0.15192228170E+01  0.71543218087E+01  0.56418287505E+01  0.92370228116E+01  0.51100000000E-03 0. -1.
        -11    1    3    3    0    0  0.14525072198E+02  0.12660924686E+02 -0.21881291148E+01  0.19392386277E+02  0.51100000000E-03 0.  1.
        -12    1    3    3    0    0  0.36420306932E+01  0.15386595834E+02 -0.15151715619E+02  0.21899456732E+02  0.00000000000E+00 0.  1.
</event>
<event>
 7    1  0.4836188E-013  0.5052885E+02  0.7816164E-02  0.1300439E+00
        -11   -1    0    0    0    0  0.00000000000E+00  0.00000000000E+00  0.45593999997E+02  0.45594000000E+02  0.51100000000E-03 0.  1.
         11   -1    0    0    0    0 -0.00000000000E+00 -0.00000000000E+00 -0.45593999997E+02  0.45594000000E+02  0.51100000000E-03 0. -1.
    9900012    2    1    2    0    0 -0.37181625049E+02  0.14726117006E+02 -0.73372387822E+01  0.50528845603E+02  0.29999956693E+02 0.  0.
         12    1    1    2    0    0  0.37181625049E+02 -0.14726117006E+02  0.73372387822E+01  0.40659154397E+02  0.00000000000E+00 0. -1.
         11    1    3    3    0    0  0.33803455946E+01  0.12654538087E+01 -0.15337014304E+01  0.39217789356E+01  0.51100000000E-03 0. -1.
        -11    1    3    3    0    0 -0.10410654202E+02  0.10974970798E+02  0.22654993759E+01  0.15295888095E+02  0.51100000000E-03 0.  1.
         12    1    3    3    0    0 -0.30151316441E+02  0.24856923996E+01 -0.80690367277E+01  0.31311178572E+02  0.00000000000E+00 0. -1.
</event>
<event>
 7    1  0.4836188E-013  0.5052886E+02  0.7816164E-02  0.1300439E+00
        -11   -1    0    0    0    0  0.00000000000E+00  0.00000000000E+00  0.45593999997E+02  0.45594000000E+02  0.51100000000E-03 0. -1.
         11   -1    0    0    0    0 -0.00000000000E+00 -0.00000000000E+00 -0.45593999997E+02  0.45594000000E+02  0.51100000000E-03 0.  1.
    9900012    2    1    2    0    0 -0.10527841418E+02  0.21997991898E+02 -0.32533346275E+02  0.50528859425E+02  0.29999998708E+02 0.  0.
         12    1    1    2    0    0  0.10527841418E+02 -0.21997991898E+02  0.32533346275E+02  0.40659140575E+02  0.00000000000E+00 0. -1.
         11    1    3    3    0    0 -0.48138533332E+01  0.27285437962E+00 -0.47690297152E+00  0.48451078555E+01  0.51100000000E-03 0. -1.
        -11    1    3    3    0    0 -0.48303573267E+01  0.77414207131E-01  0.20740134557E+01  0.52573640675E+01  0.51100000000E-03 0.  1.
         12    1    3    3    0    0 -0.88363075769E+00  0.21647723312E+02 -0.34130456759E+02  0.40426387502E+02  0.00000000000E+00 0. -1.
</event>
<event>
 7    1  0.4836188E-013  0.5052886E+02  0.7816164E-02  0.1300439E+00
        -11   -1    0    0    0    0  0.00000000000E+00  0.00000000000E+00  0.45593999997E+02  0.45594000000E+02  0.51100000000E-03 0.  1.
         11   -1    0    0    0    0 -0.00000000000E+00 -0.00000000000E+00 -0.45593999997E+02  0.45594000000E+02  0.51100000000E-03 0. -1.
    9900012    2    1    2    0    0 -0.11518113685E+02 -0.38442421937E+02  0.65329287331E+01  0.50528857054E+02  0.29999991501E+02 0.  0.
         12    1    1    2    0    0  0.11518113685E+02  0.38442421937E+02 -0.65329287331E+01  0.40659142946E+02  0.00000000000E+00 0. -1.
         11    1    3    3    0    0 -0.14136152662E+00 -0.12722976383E+02  0.76979264726E+01  0.14871186347E+02  0.51100000000E-03 0. -1.
        -11    1    3    3    0    0 -0.10236521023E+02 -0.60727748195E+01  0.75920672196E+01  0.14117522502E+02  0.51100000000E-03 0.  1.
         12    1    3    3    0    0 -0.11402311356E+01 -0.19646670734E+02 -0.87570649590E+01  0.21540148205E+02  0.00000000000E+00 0. -1.
</event>
<event>
 7    1  0.4836188E-013  0.5052887E+02  0.7816164E-02  0.1300439E+00
        -11   -1    0    0    0    0  0.00000000000E+00  0.00000000000E+00  0.45593999997E+02  0.45594000000E+02  0.51100000000E-03 0. -1.
         11   -1    0    0    0    0 -0.00000000000E+00 -0.00000000000E+00 -0.45593999997E+02  0.45594000000E+02  0.51100000000E-03 0.  1.
    9900012    2    1    2    0    0 -0.61915240516E+01 -0.21081449627E+02 -0.34211140998E+02  0.50528872404E+02  0.30000038160E+02 0.  0.
         12    1    1    2    0    0  0.61915240516E+01  0.21081449627E+02  0.34211140998E+02  0.40659127596E+02  0.00000000000E+00 0. -1.
         11    1    3    3    0    0 -0.18310783820E+01 -0.17648582311E+02 -0.14920172654E+02  0.23182684442E+02  0.51100000000E-03 0.  1.
        -11    1    3    3    0    0  0.57635388824E+01 -0.37634311879E+01 -0.17691538793E+01  0.71071583959E+01  0.51100000000E-03 0. -1.
         12    1    3    3    0    0 -0.10123984552E+02  0.33056387166E+00 -0.17521814464E+02  0.20239029567E+02  0.00000000000E+00 0. -1.
</event>
<event>
 7    1  0.4836188E-013  0.5052887E+02  0.7816164E-02  0.1300439E+00
        -11   -1    0    0    0    0  0.00000000000E+00  0.00000000000E+00  0.45593999997E+02  0.45594000000E+02  0.51100000000E-03 0.  1.
         11   -1    0    0    0    0 -0.00000000000E+00 -0.00000000000E+00 -0.45593999997E+02  0.45594000000E+02  0.51100000000E-03 0. -1.
    9900012    2    1    2    0    0  0.26977795294E+01  0.21002134799E+02  0.34710186857E+02  0.50528871232E+02  0.30000034597E+02 0.  0.
         12    1    1    2    0    0 -0.26977795294E+01 -0.21002134799E+02 -0.34710186857E+02  0.40659128768E+02  0.00000000000E+00 0. -1.
         11    1    3    3    0    0  0.32539468769E+01  0.33192692003E+01 -0.73434011175E+00  0.47058446598E+01  0.51100000000E-03 0. -1.
        -11    1    3    3    0    0 -0.98940805208E+01  0.21938667912E+01  0.18211277074E+02  0.20841221024E+02  0.51100000000E-03 0.  1.
         12    1    3    3    0    0  0.93379131733E+01  0.15488998807E+02  0.17233249895E+02  0.24981805548E+02  0.00000000000E+00 0. -1.
</event>
<event>
 7    1  0.4836188E-013  0.5052886E+02  0.7816164E-02  0.1300439E+00
        -11   -1    0    0    0    0  0.00000000000E+00  0.00000000000E+00  0.45593999997E+02  0.45594000000E+02  0.51100000000E-03 0. -1.
         11   -1    0    0    0    0 -0.00000000000E+00 -0.00000000000E+00 -0.45593999997E+02  0.45594000000E+02  0.51100000000E-03 0.  1.
    9900012    2    1    2    0    0  0.10117022810E+02  0.39053379313E+02  0.50640860562E+01  0.50528861373E+02  0.30000004629E+02 0.  0.
         12    1    1    2    0    0 -0.10117022810E+02 -0.39053379313E+02 -0.50640860562E+01  0.40659138627E+02  0.00000000000E+00 0. -1.
         11    1    3    3    0    0 -0.11706412637E+01  0.15991190467E+02  0.24368480457E+01  0.16218101066E+02  0.51100000000E-03 0. -1.
        -11    1    3    3    0    0 -0.24053327022E+01  0.56447160388E+01 -0.77172914040E+01  0.98592612016E+01  0.51100000000E-03 0.  1.
        -12    1    3    3    0    0  0.13692996776E+02  0.17417472807E+02  0.10344529414E+02  0.24451499105E+02  0.00000000000E+00 0.  1.
</event>
<event>
 7    1  0.4836188E-013  0.5052887E+02  0.7816164E-02  0.1300439E+00
        -11   -1    0    0    0    0  0.00000000000E+00  0.00000000000E+00  0.45593999997E+02  0.45594000000E+02  0.51100000000E-03 0.  1.
         11   -1    0    0    0    0 -0.00000000000E+00 -0.00000000000E+00 -0.45593999997E+02  0.45594000000E+02  0.51100000000E-03 0. -1.
    9900012    2    1    2    0    0 -0.24803287774E+02  0.37383882490E+01  0.31999789639E+02  0.50528866118E+02  0.30000019051E+02 0.  0.
         12    1    1    2    0    0  0.24803287774E+02 -0.37383882490E+01 -0.31999789639E+02  0.40659133882E+02  0.00000000000E+00 0. -1.
         11    1    3    3    0    0 -0.18668371452E+01 -0.15648122118E+01 -0.24895966864E+01  0.34830748064E+01  0.51100000000E-03 0. -1.
        -11    1    3    3    0    0 -0.18244276067E+02  0.24569856817E+01  0.81354198063E+01  0.20126486120E+02  0.51100000000E-03 0.  1.
        -12    1    3    3    0    0 -0.46921745621E+01  0.28462147791E+01  0.26353966519E+02  0.26919305191E+02  0.00000000000E+00 0.  1.
</event>
<event>
 7    1  0.4836188E-013  0.5052885E+02  0.7816164E-02  0.1300439E+00
        -11   -1    0    0    0    0  0.00000000000E+00  0.00000000000E+00  0.45593999997E+02  0.45594000000E+02  0.51100000000E-03 0.  1.
         11   -1    0    0    0    0 -0.00000000000E+00 -0.00000000000E+00 -0.45593999997E+02  0.45594000000E+02  0.51100000000E-03 0. -1.
    9900012    2    1    2    0    0  0.10280729786E+02  0.15797689851E+02  0.36026464434E+02  0.50528849134E+02  0.29999967427E+02 0.  0.
         12    1    1    2    0    0 -0.10280729786E+02 -0.15797689851E+02 -0.36026464434E+02  0.40659150866E+02  0.00000000000E+00 0. -1.
         11    1    3    3    0    0  0.65159662900E+01  0.51066480857E+01  0.19318349558E+01  0.85010386378E+01  0.51100000000E-03 0. -1.
        -11    1    3    3    0    0  0.11360771728E+02  0.20108248202E+01  0.24283934980E+02  0.26885312888E+02  0.51100000000E-03 0.  1.
         12    1    3    3    0    0 -0.75960082320E+01  0.86802169452E+01  0.98106944979E+01  0.15142497608E+02  0.00000000000E+00 0. -1.
</event>
<event>
 7    1  0.4836188E-013  0.5052885E+02  0.7816164E-02  0.1300439E+00
        -11   -1    0    0    0    0  0.00000000000E+00  0.00000000000E+00  0.45593999997E+02  0.45594000000E+02  0.51100000000E-03 0.  1.
         11   -1    0    0    0    0 -0.00000000000E+00 -0.00000000000E+00 -0.45593999997E+02  0.45594000000E+02  0.51100000000E-03 0. -1.
    9900012    2    1    2    0    0  0.22659316726E+02  0.10819231679E+02  0.31979145812E+02  0.50528853729E+02  0.29999981394E+02 0.  0.
         12    1    1    2    0    0 -0.22659316726E+02 -0.10819231679E+02 -0.31979145812E+02  0.40659146271E+02  0.00000000000E+00 0. -1.
         11    1    3    3    0    0  0.12146660390E+02  0.12598408479E+01  0.18270999541E+02  0.21976305014E+02  0.51100000000E-03 0. -1.
        -11    1    3    3    0    0  0.16024121048E+02  0.10087505181E+02  0.13006165228E+02  0.22971516066E+02  0.51100000000E-03 0.  1.
         12    1    3    3    0    0 -0.55114647125E+01 -0.52811435066E+00  0.70198104396E+00  0.55810326491E+01  0.00000000000E+00 0. -1.
</event>
<event>
 7    1  0.4836188E-013  0.5052885E+02  0.7816164E-02  0.1300439E+00
        -11   -1    0    0    0    0  0.00000000000E+00  0.00000000000E+00  0.45593999997E+02  0.45594000000E+02  0.51100000000E-03 0. -1.
         11   -1    0    0    0    0 -0.00000000000E+00 -0.00000000000E+00 -0.45593999997E+02  0.45594000000E+02  0.51100000000E-03 0.  1.
    9900012    2    1    2    0    0 -0.39036785135E+01  0.24253453631E+02 -0.32399039994E+02  0.50528849597E+02  0.29999968835E+02 0.  0.
         12    1    1    2    0    0  0.39036785135E+01 -0.24253453631E+02  0.32399039994E+02  0.40659150403E+02  0.00000000000E+00 0. -1.
         11    1    3    3    0    0  0.36546144459E+01 -0.83639747681E+00 -0.25643402272E+01  0.45422030502E+01  0.51100000000E-03 0. -1.
        -11    1    3    3    0    0  0.37596502916E+01  0.17354751882E+02 -0.64739781639E+01  0.18900655458E+02  0.51100000000E-03 0.  1.
        -12    1    3    3    0    0 -0.11317943251E+02  0.77350992259E+01 -0.23360721603E+02  0.27085991089E+02  0.00000000000E+00 0.  1.
</event>
<event>
 7    1  0.4836188E-013  0.5052887E+02  0.7816164E-02  0.1300439E+00
        -11   -1    0    0    0    0  0.00000000000E+00  0.00000000000E+00  0.45593999997E+02  0.45594000000E+02  0.51100000000E-03 0.  1.
         11   -1    0    0    0    0 -0.00000000000E+00 -0.00000000000E+00 -0.45593999997E+02  0.45594000000E+02  0.51100000000E-03 0. -1.
    9900012    2    1    2    0    0  0.35130371644E+02  0.15509596152E+02  0.13359440453E+02  0.50528865309E+02  0.30000016592E+02 0.  0.
         12    1    1    2    0    0 -0.35130371644E+02 -0.15509596152E+02 -0.13359440453E+02  0.40659134691E+02  0.00000000000E+00 0. -1.
         11    1    3    3    0    0  0.49112757775E+01  0.13313262915E+01 -0.71761698932E+00  0.51388747661E+01  0.51100000000E-03 0. -1.
        -11    1    3    3    0    0  0.22359209611E+02  0.15143113792E+02  0.21513715743E+02  0.34526629072E+02  0.51100000000E-03 0.  1.
        -12    1    3    3    0    0  0.78598862556E+01 -0.96484393180E+00 -0.74366583007E+01  0.10863361471E+02  0.00000000000E+00 0.  1.
</event>
<event>
 7    1  0.4836188E-013  0.5052885E+02  0.7816164E-02  0.1300439E+00
        -11   -1    0    0    0    0  0.00000000000E+00  0.00000000000E+00  0.45593999997E+02  0.45594000000E+02  0.51100000000E-03 0. -1.
         11   -1    0    0    0    0 -0.00000000000E+00 -0.00000000000E+00 -0.45593999997E+02  0.45594000000E+02  0.51100000000E-03 0.  1.
    9900012    2    1    2    0    0 -0.34259940808E+02 -0.71447204585E+01 -0.20697246234E+02  0.50528848800E+02  0.29999966414E+02 0.  0.
         12    1    1    2    0    0  0.34259940808E+02  0.71447204585E+01  0.20697246234E+02  0.40659151200E+02  0.00000000000E+00 0. -1.
         11    1    3    3    0    0 -0.74573905644E+00 -0.51737591257E+01 -0.48960119524E+01  0.71620418548E+01  0.51100000000E-03 0. -1.
        -11    1    3    3    0    0 -0.21616517604E+02 -0.39018234695E+01 -0.20862217444E+02  0.30294061739E+02  0.51100000000E-03 0.  1.
         12    1    3    3    0    0 -0.11897684148E+02  0.19308621367E+01  0.50609831623E+01  0.13072745207E+02  0.00000000000E+00 0. -1.
</event>
<event>
 7    1  0.4836188E-013  0.5052883E+02  0.7816164E-02  0.1300439E+00
        -11   -1    0    0    0    0  0.00000000000E+00  0.00000000000E+00  0.45593999997E+02  0.45594000000E+02  0.51100000000E-03 0.  1.
         11   -1    0    0    0    0 -0.00000000000E+00 -0.00000000000E+00 -0.45593999997E+02  0.45594000000E+02  0.51100000000E-03 0. -1.
    9900012    2    1    2    0    0 -0.11018045064E+01  0.40335923460E+02 -0.49967337894E+01  0.50528830763E+02  0.29999911586E+02 0.  0.
         12    1    1    2    0    0  0.11018045064E+01 -0.40335923460E+02  0.49967337894E+01  0.40659169237E+02  0.00000000000E+00 0. -1.
         11    1    3    3    0    0 -0.28201736682E+00  0.17768572186E+02 -0.79232021289E+01  0.19457102137E+02  0.51100000000E-03 0. -1.
        -11    1    3    3    0    0 -0.89445575407E+01  0.20257174312E+02  0.41718626269E+01  0.22533589567E+02  0.51100000000E-03 0.  1.
        -12    1    3    3    0    0  0.81247704011E+01  0.23101769612E+01 -0.12453942874E+01  0.85381390592E+01  0.00000000000E+00 0.  1.
</event>
<event>
 7    1  0.4836188E-013  0.5052886E+02  0.7816164E-02  0.1300439E+00
        -11   -1    0    0    0    0  0.00000000000E+00  0.00000000000E+00  0.45593999997E+02  0.45594000000E+02  0.51100000000E-03 0.  1.
         11   -1    0    0    0    0 -0.00000000000E+00 -0.00000000000E+00 -0.45593999997E+02  0.45594000000E+02  0.51100000000E-03 0. -1.
    9900012    2    1    2    0    0 -0.34574800513E+02  0.17026054935E+02 -0.12956182450E+02  0.50528855385E+02  0.29999986427E+02 0.  0.
         12    1    1    2    0    0  0.34574800513E+02 -0.17026054935E+02  0.12956182450E+02  0.40659144615E+02  0.00000000000E+00 0. -1.
         11    1    3    3    0    0 -0.20158369607E+02 -0.35291794679E+00 -0.12723911860E+02  0.23840770742E+02  0.51100000000E-03 0. -1.
        -11    1    3    3    0    0 -0.13185558856E+02  0.73868334691E+01  0.42022600044E+01  0.15687041163E+02  0.51100000000E-03 0.  1.
        -12    1    3    3    0    0 -0.12308720503E+01  0.99921394129E+01 -0.44345305943E+01  0.11001043480E+02  0.00000000000E+00 0.  1.
</event>
<event>
 7    1  0.4836188E-013  0.5052886E+02  0.7816164E-02  0.1300439E+00
        -11   -1    0    0    0    0  0.00000000000E+00  0.00000000000E+00  0.45593999997E+02  0.45594000000E+02  0.51100000000E-03 0.  1.
         11   -1    0    0    0    0 -0.00000000000E+00 -0.00000000000E+00 -0.45593999997E+02  0.45594000000E+02  0.51100000000E-03 0. -1.
    9900012    2    1    2    0    0 -0.29058789547E+02 -0.24498317496E+02  0.14442455107E+02  0.50528864254E+02  0.30000013386E+02 0.  0.
         12    1    1    2    0    0  0.29058789547E+02  0.24498317496E+02 -0.14442455107E+02  0.40659135746E+02  0.00000000000E+00 0. -1.
         11    1    3    3    0    0 -0.23025379348E+01 -0.80437243669E+01  0.56321030971E+00  0.83857252964E+01  0.51100000000E-03 0.  1.
        -11    1    3    3    0    0  0.10714783031E+01 -0.10262324129E+02 -0.25930095414E+00  0.10321366166E+02  0.51100000000E-03 0. -1.
        -12    1    3    3    0    0 -0.27827729916E+02 -0.61922689997E+01  0.14138545751E+02  0.31821772792E+02  0.00000000000E+00 0.  1.
</event>
<event>
 7    1  0.4836188E-013  0.5052886E+02  0.7816164E-02  0.1300439E+00
        -11   -1    0    0    0    0  0.00000000000E+00  0.00000000000E+00  0.45593999997E+02  0.45594000000E+02  0.51100000000E-03 0. -1.
         11   -1    0    0    0    0 -0.00000000000E+00 -0.00000000000E+00 -0.45593999997E+02  0.45594000000E+02  0.51100000000E-03 0.  1.
    9900012    2    1    2    0    0 -0.27190302168E+02 -0.18127816263E+02 -0.24191633964E+02  0.50528863163E+02  0.30000010071E+02 0.  0.
         12    1    1    2    0    0  0.27190302168E+02  0.18127816263E+02  0.24191633964E+02  0.40659136837E+02  0.00000000000E+00 0. -1.
         11    1    3    3    0    0  0.17583894874E+01  0.43868858027E+01 -0.17890814451E+01  0.50534654757E+01  0.51100000000E-03 0. -1.
        -11    1    3    3    0    0 -0.42396685242E+01 -0.31482365481E+01 -0.10770748012E+02  0.11995632353E+02  0.51100000000E-03 0.  1.
         12    1    3    3    0    0 -0.24709023132E+02 -0.19366465517E+02 -0.11631804507E+02  0.33479765334E+02  0.00000000000E+00 0. -1.
</event>
<event>
 7    1  0.4836188E-013  0.5052886E+02  0.7816164E-02  0.1300439E+00
        -11   -1    0    0    0    0  0.00000000000E+00  0.00000000000E+00  0.45593999997E+02  0.45594000000E+02  0.51100000000E-03 0. -1.
         11   -1    0    0    0    0 -0.00000000000E+00 -0.00000000000E+00 -0.45593999997E+02  0.45594000000E+02  0.51100000000E-03 0.  1.
    9900012    2    1    2    0    0 -0.28038453878E+02  0.37329394269E+01 -0.29207470499E+02  0.50528855080E+02  0.29999985502E+02 0.  0.
         12    1    1    2    0    0  0.28038453878E+02 -0.37329394269E+01  0.29207470499E+02  0.40659144920E+02  0.00000000000E+00 0. -1.
         11    1    3    3    0    0 -0.24131970641E+01  0.18322978405E+01  0.27336309175E+01  0.40808790353E+01  0.51100000000E-03 0. -1.
        -11    1    3    3    0    0 -0.19169150981E+01  0.77114090615E+01 -0.14199295678E+02  0.16271459406E+02  0.51100000000E-03 0.  1.
        -12    1    3    3    0    0 -0.23708341716E+02 -0.58107674752E+01 -0.17741805739E+02  0.30176516639E+02  0.00000000000E+00 0.  1.
</event>
<event>
 7    1  0.4836188E-013  0.5052885E+02  0.7816164E-02  0.1300439E+00
        -11   -1    0    0    0    0  0.00000000000E+00  0.00000000000E+00  0.45593999997E+02  0.45594000000E+02  0.51100000000E-03 0. -1.
         11   -1    0    0    0    0 -0.00000000000E+00 -0.00000000000E+00 -0.45593999997E+02  0.45594000000E+02  0.51100000000E-03 0.  1.
    9900012    2    1    2    0    0  0.20637885804E+02  0.31155617961E+02 -0.16017844827E+02  0.50528853256E+02  0.29999979958E+02 0.  0.
         12    1    1    2    0    0 -0.20637885804E+02 -0.31155617961E+02  0.16017844827E+02  0.40659146744E+02  0.00000000000E+00 0. -1.
         11    1    3    3    0    0 -0.87827613884E-01 -0.77066985147E+00  0.29257495868E+01  0.30268228583E+01  0.51100000000E-03 0. -1.
        -11    1    3    3    0    0  0.14557240709E+02  0.19317544342E+02 -0.33213081989E+00  0.24190723172E+02  0.51100000000E-03 0.  1.
         12    1    3    3    0    0  0.61684727092E+01  0.12608743471E+02 -0.18611463594E+02  0.23311307226E+02  0.00000000000E+00 0. -1.
</event>
<event>
 7    1  0.4836188E-013  0.5052887E+02  0.7816164E-02  0.1300439E+00
        -11   -1    0    0    0    0  0.00000000000E+00  0.00000000000E+00  0.45593999997E+02  0.45594000000E+02  0.51100000000E-03 0. -1.
         11   -1    0    0    0    0 -0.00000000000E+00 -0.00000000000E+00 -0.45593999997E+02  0.45594000000E+02  0.51100000000E-03 0.  1.
    9900012    2    1    2    0    0 -0.35146408957E+02  0.10278411478E+02 -0.17670559561E+02  0.50528874576E+02  0.30000044760E+02 0.  0.
         12    1    1    2    0    0  0.35146408957E+02 -0.10278411478E+02  0.17670559561E+02  0.40659125424E+02  0.00000000000E+00 0. -1.
         11    1    3    3    0    0 -0.19168188265E+02 -0.37688697414E+01 -0.22436921376E+01  0.19663620601E+02  0.51100000000E-03 0. -1.
        -11    1    3    3    0    0 -0.14063294977E+02  0.32539983560E+01 -0.13443509550E+02  0.19725433334E+02  0.51100000000E-03 0.  1.
         12    1    3    3    0    0 -0.19149257149E+01  0.10793282863E+02 -0.19833578729E+01  0.11139820641E+02  0.00000000000E+00 0. -1.
</event>
<event>
 7    1  0.4836188E-013  0.5052886E+02  0.7816164E-02  0.1300439E+00
        -11   -1    0    0    0    0  0.00000000000E+00  0.00000000000E+00  0.45593999997E+02  0.45594000000E+02  0.51100000000E-03 0. -1.
         11   -1    0    0    0    0 -0.00000000000E+00 -0.00000000000E+00 -0.45593999997E+02  0.45594000000E+02  0.51100000000E-03 0.  1.
    9900012    2    1    2    0    0  0.14152453426E+02 -0.27922848670E+02 -0.25945872639E+02  0.50528859296E+02  0.29999998315E+02 0.  0.
         12    1    1    2    0    0 -0.14152453426E+02  0.27922848670E+02  0.25945872639E+02  0.40659140704E+02  0.00000000000E+00 0. -1.
         11    1    3    3    0    0  0.10055131860E+02 -0.91864312368E+01 -0.14736359065E+01  0.13699189708E+02  0.51100000000E-03 0. -1.
        -11    1    3    3    0    0 -0.48553476827E+01 -0.14355298421E+02 -0.69520117063E+01  0.16672716063E+02  0.51100000000E-03 0.  1.
         12    1    3    3    0    0  0.89526692478E+01 -0.43811190122E+01 -0.17520225026E+02  0.20156953525E+02  0.00000000000E+00 0. -1.
</event>
<event>
 7    1  0.4836188E-013  0.5052885E+02  0.7816164E-02  0.1300439E+00
        -11   -1    0    0    0    0  0.00000000000E+00  0.00000000000E+00  0.45593999997E+02  0.45594000000E+02  0.51100000000E-03 0.  1.
         11   -1    0    0    0    0 -0.00000000000E+00 -0.00000000000E+00 -0.45593999997E+02  0.45594000000E+02  0.51100000000E-03 0. -1.
    9900012    2    1    2    0    0  0.26066896994E+02 -0.30583280130E+02  0.61924160033E+01  0.50528853939E+02  0.29999982033E+02 0.  0.
         12    1    1    2    0    0 -0.26066896994E+02  0.30583280130E+02 -0.61924160033E+01  0.40659146061E+02  0.00000000000E+00 0. -1.
         11    1    3    3    0    0  0.87482515167E+00 -0.14578845424E+02 -0.97323997896E+00  0.14637460479E+02  0.51100000000E-03 0. -1.
        -11    1    3    3    0    0  0.76224921615E+01 -0.81645842371E+01  0.11646592553E+02  0.16137098279E+02  0.51100000000E-03 0.  1.
        -12    1    3    3    0    0  0.17569579681E+02 -0.78398504692E+01 -0.44809365707E+01  0.19754295181E+02  0.00000000000E+00 0.  1.
</event>
<event>
 7    1  0.4836188E-013  0.5052886E+02  0.7816164E-02  0.1300439E+00
        -11   -1    0    0    0    0  0.00000000000E+00  0.00000000000E+00  0.45593999997E+02  0.45594000000E+02  0.51100000000E-03 0.  1.
         11   -1    0    0    0    0 -0.00000000000E+00 -0.00000000000E+00 -0.45593999997E+02  0.45594000000E+02  0.51100000000E-03 0. -1.
    9900012    2    1    2    0    0  0.30287403713E+02  0.15932666517E+01  0.27079521628E+02  0.50528858175E+02  0.29999994910E+02 0.  0.
         12    1    1    2    0    0 -0.30287403713E+02 -0.15932666517E+01 -0.27079521628E+02  0.40659141825E+02  0.00000000000E+00 0. -1.
         11    1    3    3    0    0 -0.20354492167E+00  0.32702015044E+00  0.97467593419E+01  0.97543677726E+01  0.51100000000E-03 0.  1.
        -11    1    3    3    0    0  0.19990979497E+01 -0.27964253702E+01  0.10701948785E+02  0.11240466873E+02  0.51100000000E-03 0. -1.
         12    1    3    3    0    0  0.28491850685E+02  0.40626718715E+01  0.66308135015E+01  0.29534023530E+02  0.00000000000E+00 0. -1.
</event>
<event>
 7    1  0.4836188E-013  0.5052886E+02  0.7816164E-02  0.1300439E+00
        -11   -1    0    0    0    0  0.00000000000E+00  0.00000000000E+00  0.45593999997E+02  0.45594000000E+02  0.51100000000E-03 0.  1.
         11   -1    0    0    0    0 -0.00000000000E+00 -0.00000000000E+00 -0.45593999997E+02  0.45594000000E+02  0.51100000000E-03 0. -1.
    9900012    2    1    2    0    0  0.29907890861E+02  0.11528632728E+02  0.25015476936E+02  0.50528863331E+02  0.30000010581E+02 0.  0.
         12    1    1    2    0    0 -0.29907890861E+02 -0.11528632728E+02 -0.25015476936E+02  0.40659136669E+02  0.00000000000E+00 0. -1.
         11    1    3    3    0    0  0.87986176503E+01 -0.31390481533E+01  0.12978330821E+00  0.93427051668E+01  0.51100000000E-03 0. -1.
        -11    1    3    3    0    0  0.23442292037E+02  0.15477707569E+02  0.16799142883E+02  0.32730898084E+02  0.51100000000E-03 0.  1.
         12    1    3    3    0    0 -0.23330188261E+01 -0.81002668745E+00  0.80865507444E+01  0.84552600799E+01  0.00000000000E+00 0. -1.
</event>
<event>
 7    1  0.4836188E-013  0.5052886E+02  0.7816164E-02  0.1300439E+00
        -11   -1    0    0    0    0  0.00000000000E+00  0.00000000000E+00  0.45593999997E+02  0.45594000000E+02  0.51100000000E-03 0. -1.
         11   -1    0    0    0    0 -0.00000000000E+00 -0.00000000000E+00 -0.45593999997E+02  0.45594000000E+02  0.51100000000E-03 0.  1.
    9900012    2    1    2    0    0  0.17664152183E+02 -0.80876291491E+01 -0.35717411536E+02  0.50528861981E+02  0.30000006477E+02 0.  0.
         12    1    1    2    0    0 -0.17664152183E+02  0.80876291491E+01  0.35717411536E+02  0.40659138019E+02  0.00000000000E+00 0. -1.
         11    1    3    3    0    0 -0.26894894508E+01 -0.30887815033E+01 -0.25910229939E+01  0.48463723647E+01  0.51100000000E-03 0.  1.
        -11    1    3    3    0    0  0.14286974617E+02 -0.10080881552E+02 -0.77961954551E+01  0.19144776844E+02  0.51100000000E-03 0. -1.
         12    1    3    3    0    0  0.60666670172E+01  0.50820339063E+01 -0.25330193087E+02  0.26537712772E+02  0.00000000000E+00 0. -1.
</event>
<event>
 7    1  0.4836188E-013  0.5052886E+02  0.7816164E-02  0.1300439E+00
        -11   -1    0    0    0    0  0.00000000000E+00  0.00000000000E+00  0.45593999997E+02  0.45594000000E+02  0.51100000000E-03 0.  1.
         11   -1    0    0    0    0 -0.00000000000E+00 -0.00000000000E+00 -0.45593999997E+02  0.45594000000E+02  0.51100000000E-03 0. -1.
    9900012    2    1    2    0    0  0.10061040845E+02  0.28162747048E+02  0.27546337447E+02  0.50528861164E+02  0.30000003993E+02 0.  0.
         12    1    1    2    0    0 -0.10061040845E+02 -0.28162747048E+02 -0.27546337447E+02  0.40659138836E+02  0.00000000000E+00 0. -1.
         11    1    3    3    0    0 -0.18496889927E+00  0.20199756184E+02  0.14130967622E+02  0.24652557871E+02  0.51100000000E-03 0.  1.
        -11    1    3    3    0    0  0.13730174066E+02  0.53429177109E+01  0.15197534270E+02  0.21166707295E+02  0.51100000000E-03 0. -1.
         12    1    3    3    0    0 -0.34841643220E+01  0.26200731531E+01 -0.17821644452E+01  0.47095959975E+01  0.00000000000E+00 0. -1.
</event>
<event>
 7    1  0.4836188E-013  0.5052882E+02  0.7816164E-02  0.1300439E+00
        -11   -1    0    0    0    0  0.00000000000E+00  0.00000000000E+00  0.45593999997E+02  0.45594000000E+02  0.51100000000E-03 0.  1.
         11   -1    0    0    0    0 -0.00000000000E+00 -0.00000000000E+00 -0.45593999997E+02  0.45594000000E+02  0.51100000000E-03 0. -1.
    9900012    2    1    2    0    0  0.32842813836E+02 -0.10910021419E+02  0.21342212752E+02  0.50528818587E+02  0.29999874577E+02 0.  0.
         12    1    1    2    0    0 -0.32842813836E+02  0.10910021419E+02 -0.21342212752E+02  0.40659181413E+02  0.00000000000E+00 0. -1.
         11    1    3    3    0    0  0.13957290842E+02  0.13028288853E+01  0.45146323626E+01  0.14727024016E+02  0.51100000000E-03 0. -1.
        -11    1    3    3    0    0  0.19947627775E+02 -0.48011044046E+01  0.39327771076E+01  0.20890792072E+02  0.51100000000E-03 0.  1.
        -12    1    3    3    0    0 -0.10621047813E+01 -0.74117458999E+01  0.12894803281E+02  0.14911002499E+02  0.00000000000E+00 0.  1.
</event>
<event>
 7    1  0.4836188E-013  0.5052885E+02  0.7816164E-02  0.1300439E+00
        -11   -1    0    0    0    0  0.00000000000E+00  0.00000000000E+00  0.45593999997E+02  0.45594000000E+02  0.51100000000E-03 0.  1.
         11   -1    0    0    0    0 -0.00000000000E+00 -0.00000000000E+00 -0.45593999997E+02  0.45594000000E+02  0.51100000000E-03 0. -1.
    9900012    2    1    2    0    0 -0.11363776599E+01  0.39334306760E+02  0.10231691854E+02  0.50528848993E+02  0.29999966998E+02 0.  0.
         12    1    1    2    0    0  0.11363776599E+01 -0.39334306760E+02 -0.10231691854E+02  0.40659151007E+02  0.00000000000E+00 0. -1.
         11    1    3    3    0    0 -0.72400318718E+01  0.57018642243E+01 -0.29633526383E+01  0.96804326483E+01  0.51100000000E-03 0. -1.
        -11    1    3    3    0    0 -0.55307558148E+01  0.84746660000E+01  0.73860879985E+01  0.12528508286E+02  0.51100000000E-03 0.  1.
        -12    1    3    3    0    0  0.11634410027E+02  0.25157776535E+02  0.58089564941E+01  0.28319908058E+02  0.00000000000E+00 0.  1.
</event>
<event>
 7    1  0.4836188E-013  0.5052886E+02  0.7816164E-02  0.1300439E+00
        -11   -1    0    0    0    0  0.00000000000E+00  0.00000000000E+00  0.45593999997E+02  0.45594000000E+02  0.51100000000E-03 0. -1.
         11   -1    0    0    0    0 -0.00000000000E+00 -0.00000000000E+00 -0.45593999997E+02  0.45594000000E+02  0.51100000000E-03 0.  1.
    9900012    2    1    2    0    0  0.22923326438E+02  0.32996173363E+02  0.62401164547E+01  0.50528863204E+02  0.30000010196E+02 0.  0.
         12    1    1    2    0    0 -0.22923326438E+02 -0.32996173363E+02 -0.62401164547E+01  0.40659136796E+02  0.00000000000E+00 0. -1.
         11    1    3    3    0    0  0.11987924518E+02  0.16851442302E+02  0.50627829344E+01  0.21291153403E+02  0.51100000000E-03 0. -1.
        -11    1    3    3    0    0  0.16875116082E+02  0.14773220652E+02  0.35286786811E+01  0.22703946017E+02  0.51100000000E-03 0.  1.
         12    1    3    3    0    0 -0.59397141623E+01  0.13715104088E+01 -0.23513451608E+01  0.65337637849E+01  0.00000000000E+00 0. -1.
</event>
<event>
 7    1  0.4836188E-013  0.5052885E+02  0.7816164E-02  0.1300439E+00
        -11   -1    0    0    0    0  0.00000000000E+00  0.00000000000E+00  0.45593999997E+02  0.45594000000E+02  0.51100000000E-03 0. -1.
         11   -1    0    0    0    0 -0.00000000000E+00 -0.00000000000E+00 -0.45593999997E+02  0.45594000000E+02  0.51100000000E-03 0.  1.
    9900012    2    1    2    0    0 -0.17443954281E+01 -0.34492493471E+02 -0.21456743028E+02  0.50528845525E+02  0.29999956458E+02 0.  0.
         12    1    1    2    0    0  0.17443954281E+01  0.34492493471E+02  0.21456743028E+02  0.40659154475E+02  0.00000000000E+00 0. -1.
         11    1    3    3    0    0 -0.17133471591E+01 -0.11225936613E+02 -0.81371737411E+01  0.13970354616E+02  0.51100000000E-03 0.  1.
        -11    1    3    3    0    0 -0.31628955052E+01  0.83905809478E+00 -0.11752792972E+02  0.12199838908E+02  0.51100000000E-03 0. -1.
         12    1    3    3    0    0  0.31318472362E+01 -0.24105614952E+02 -0.15667763148E+01  0.24358652002E+02  0.00000000000E+00 0. -1.
</event>
<event>
 7    1  0.4836188E-013  0.5052886E+02  0.7816164E-02  0.1300439E+00
        -11   -1    0    0    0    0  0.00000000000E+00  0.00000000000E+00  0.45593999997E+02  0.45594000000E+02  0.51100000000E-03 0. -1.
         11   -1    0    0    0    0 -0.00000000000E+00 -0.00000000000E+00 -0.45593999997E+02  0.45594000000E+02  0.51100000000E-03 0.  1.
    9900012    2    1    2    0    0 -0.40700958556E+01 -0.37317265698E+02 -0.15621179959E+02  0.50528864953E+02  0.30000015512E+02 0.  0.
         12    1    1    2    0    0  0.40700958556E+01  0.37317265698E+02  0.15621179959E+02  0.40659135047E+02  0.00000000000E+00 0. -1.
         11    1    3    3    0    0 -0.55251339644E+00  0.51966443589E+01 -0.87242011025E+00  0.52982545008E+01  0.51100000000E-03 0. -1.
        -11    1    3    3    0    0 -0.12738280975E+01 -0.55712472427E+01 -0.25832317263E+01  0.62717238679E+01  0.51100000000E-03 0.  1.
         12    1    3    3    0    0 -0.22437543617E+01 -0.36942662814E+02 -0.12165528123E+02  0.38958886585E+02  0.00000000000E+00 0. -1.
</event>
<event>
 7    1  0.4836188E-013  0.5052886E+02  0.7816164E-02  0.1300439E+00
        -11   -1    0    0    0    0  0.00000000000E+00  0.00000000000E+00  0.45593999997E+02  0.45594000000E+02  0.51100000000E-03 0.  1.
         11   -1    0    0    0    0 -0.00000000000E+00 -0.00000000000E+00 -0.45593999997E+02  0.45594000000E+02  0.51100000000E-03 0. -1.
    9900012    2    1    2    0    0 -0.61499059445E+01  0.39370121545E+02  0.80831878521E+01  0.50528859091E+02  0.29999997693E+02 0.  0.
         12    1    1    2    0    0  0.61499059445E+01 -0.39370121545E+02 -0.80831878521E+01  0.40659140909E+02  0.00000000000E+00 0. -1.
         11    1    3    3    0    0 -0.23875764922E+01  0.27648863574E+02  0.21081690751E+01  0.27831718516E+02  0.51100000000E-03 0. -1.
        -11    1    3    3    0    0 -0.27463945333E+01  0.14459615770E+02 -0.13807219853E+01  0.14782745503E+02  0.51100000000E-03 0.  1.
         12    1    3    3    0    0 -0.10159349190E+01 -0.27383577989E+01  0.73557407624E+01  0.79143950721E+01  0.00000000000E+00 0. -1.
</event>
<event>
 7    1  0.4836188E-013  0.5052886E+02  0.7816164E-02  0.1300439E+00
        -11   -1    0    0    0    0  0.00000000000E+00  0.00000000000E+00  0.45593999997E+02  0.45594000000E+02  0.51100000000E-03 0. -1.
         11   -1    0    0    0    0 -0.00000000000E+00 -0.00000000000E+00 -0.45593999997E+02  0.45594000000E+02  0.51100000000E-03 0.  1.
    9900012    2    1    2    0    0  0.33457956140E+02  0.15411962599E+02 -0.17210537690E+02  0.50528855545E+02  0.29999986915E+02 0.  0.
         12    1    1    2    0    0 -0.33457956140E+02 -0.15411962599E+02  0.17210537690E+02  0.40659144455E+02  0.00000000000E+00 0. -1.
         11    1    3    3    0    0  0.75287525267E+00 -0.63593098233E+01 -0.22520714323E+01  0.67881859559E+01  0.51100000000E-03 0. -1.
        -11    1    3    3    0    0  0.31128714942E+01  0.72140640161E+01 -0.96630951774E+00  0.79162139254E+01  0.51100000000E-03 0.  1.
        -12    1    3    3    0    0  0.29592209393E+02  0.14557208406E+02 -0.13992156740E+02  0.35824455664E+02  0.00000000000E+00 0.  1.
</event>
<event>
 7    1  0.4836188E-013  0.5052882E+02  0.7816164E-02  0.1300439E+00
        -11   -1    0    0    0    0  0.00000000000E+00  0.00000000000E+00  0.45593999997E+02  0.45594000000E+02  0.51100000000E-03 0. -1.
         11   -1    0    0    0    0 -0.00000000000E+00 -0.00000000000E+00 -0.45593999997E+02  0.45594000000E+02  0.51100000000E-03 0.  1.
    9900012    2    1    2    0    0  0.42344852431E+01  0.10036759072E+02 -0.39172712128E+02  0.50528821782E+02  0.29999884287E+02 0.  0.
         12    1    1    2    0    0 -0.42344852431E+01 -0.10036759072E+02  0.39172712128E+02  0.40659178218E+02  0.00000000000E+00 0. -1.
         11    1    3    3    0    0  0.21924346212E+01  0.73786689939E+01 -0.27690378794E+02  0.28740365407E+02  0.51100000000E-03 0. -1.
        -11    1    3    3    0    0  0.28374099377E+01 -0.66720339481E+01 -0.99323262765E+01  0.12297074355E+02  0.51100000000E-03 0.  1.
         12    1    3    3    0    0 -0.79535931580E+00  0.93301240258E+01 -0.15500070575E+01  0.94913820203E+01  0.00000000000E+00 0. -1.
</event>
<event>
 7    1  0.4836188E-013  0.5052886E+02  0.7816164E-02  0.1300439E+00
        -11   -1    0    0    0    0  0.00000000000E+00  0.00000000000E+00  0.45593999997E+02  0.45594000000E+02  0.51100000000E-03 0. -1.
         11   -1    0    0    0    0 -0.00000000000E+00 -0.00000000000E+00 -0.45593999997E+02  0.45594000000E+02  0.51100000000E-03 0.  1.
    9900012    2    1    2    0    0 -0.36365772311E+02  0.17451506765E+02  0.51128311798E+01  0.50528861706E+02  0.30000005643E+02 0.  0.
         12    1    1    2    0    0  0.36365772311E+02 -0.17451506765E+02 -0.51128311798E+01  0.40659138294E+02  0.00000000000E+00 0. -1.
         11    1    3    3    0    0  0.25400332683E+01  0.10452602853E+01 -0.35993611604E+01  0.45276637566E+01  0.51100000000E-03 0. -1.
        -11    1    3    3    0    0 -0.77953659878E+01  0.88712211227E+01 -0.25243013622E+01  0.12076356765E+02  0.51100000000E-03 0.  1.
         12    1    3    3    0    0 -0.31110439591E+02  0.75350253568E+01  0.11236493702E+02  0.33924841185E+02  0.00000000000E+00 0. -1.
</event>
<event>
 7    1  0.4836188E-013  0.5052884E+02  0.7816164E-02  0.1300439E+00
        -11   -1    0    0    0    0  0.00000000000E+00  0.00000000000E+00  0.45593999997E+02  0.45594000000E+02  0.51100000000E-03 0.  1.
         11   -1    0    0    0    0 -0.00000000000E+00 -0.00000000000E+00 -0.45593999997E+02  0.45594000000E+02  0.51100000000E-03 0. -1.
    9900012    2    1    2    0    0  0.78961402085E+01  0.48889680565E+01  0.39584288893E+02  0.50528844008E+02  0.29999951847E+02 0.  0.
         12    1    1    2    0    0 -0.78961402085E+01 -0.48889680565E+01 -0.39584288893E+02  0.40659155992E+02  0.00000000000E+00 0. -1.
         11    1    3    3    0    0  0.14121490238E+02  0.17780598625E+01  0.20074375398E+02  0.24608098896E+02  0.51100000000E-03 0. -1.
        -11    1    3    3    0    0  0.48711029708E+00  0.56307568637E+01  0.17622506920E+02  0.18506632587E+02  0.51100000000E-03 0.  1.
         12    1    3    3    0    0 -0.67124603264E+01 -0.25198486698E+01  0.18874065745E+01  0.74141125247E+01  0.00000000000E+00 0. -1.
</event>
<event>
 7    1  0.5422063E-013  0.5052885E+02  0.7816164E-02  0.1300439E+00
        -11   -1    0    0    0    0  0.00000000000E+00  0.00000000000E+00  0.45593999997E+02  0.45594000000E+02  0.51100000000E-03 0. -1.
         11   -1    0    0    0    0 -0.00000000000E+00 -0.00000000000E+00 -0.45593999997E+02  0.45594000000E+02  0.51100000000E-03 0.  1.
    9900012    2    1    2    0    0  0.40155022790E+01 -0.22201559066E+02 -0.33825038355E+02  0.50528847239E+02  0.29999961667E+02 0.  0.
         12    1    1    2    0    0 -0.40155022790E+01  0.22201559066E+02  0.33825038355E+02  0.40659152761E+02  0.00000000000E+00 0. -1.
         11    1    3    3    0    0 -0.36351012884E+01 -0.54652509511E+01  0.12042847943E+00  0.65648634879E+01  0.51100000000E-03 0. -1.
        -11    1    3    3    0    0 -0.22869652367E+01  0.41802090340E+01 -0.52459329727E+01  0.70869013381E+01  0.51100000000E-03 0.  1.
        -12    1    3    3    0    0  0.99375688041E+01 -0.20916517149E+02 -0.28699533862E+02  0.36877082413E+02  0.00000000000E+00 0.  1.
</event>
<event>
 7    1  0.4836188E-013  0.5052886E+02  0.7816164E-02  0.1300439E+00
        -11   -1    0    0    0    0  0.00000000000E+00  0.00000000000E+00  0.45593999997E+02  0.45594000000E+02  0.51100000000E-03 0.  1.
         11   -1    0    0    0    0 -0.00000000000E+00 -0.00000000000E+00 -0.45593999997E+02  0.45594000000E+02  0.51100000000E-03 0. -1.
    9900012    2    1    2    0    0 -0.36171000483E+02 -0.17640475341E+02  0.57998202017E+01  0.50528861291E+02  0.30000004381E+02 0.  0.
         12    1    1    2    0    0  0.36171000483E+02  0.17640475341E+02 -0.57998202017E+01  0.40659138709E+02  0.00000000000E+00 0. -1.
         11    1    3    3    0    0 -0.84094627640E+01 -0.46664931281E+01  0.66536444700E+01  0.11694708508E+02  0.51100000000E-03 0.  1.
        -11    1    3    3    0    0 -0.21782249129E+02  0.14481233579E+01  0.45753282088E+01  0.22304642272E+02  0.51100000000E-03 0. -1.
         12    1    3    3    0    0 -0.59792885891E+01 -0.14422105571E+02 -0.54291524771E+01  0.16529510511E+02  0.00000000000E+00 0. -1.
</event>
<event>
 7    1  0.4836188E-013  0.5052886E+02  0.7816164E-02  0.1300439E+00
        -11   -1    0    0    0    0  0.00000000000E+00  0.00000000000E+00  0.45593999997E+02  0.45594000000E+02  0.51100000000E-03 0.  1.
         11   -1    0    0    0    0 -0.00000000000E+00 -0.00000000000E+00 -0.45593999997E+02  0.45594000000E+02  0.51100000000E-03 0. -1.
    9900012    2    1    2    0    0  0.60049084372E+01  0.27138433883E+02  0.29675113260E+02  0.50528857535E+02  0.29999992963E+02 0.  0.
         12    1    1    2    0    0 -0.60049084372E+01 -0.27138433883E+02 -0.29675113260E+02  0.40659142465E+02  0.00000000000E+00 0. -1.
         11    1    3    3    0    0 -0.67411666296E+01  0.14508130120E+02  0.12915382961E+02  0.20560551656E+02  0.51100000000E-03 0. -1.
        -11    1    3    3    0    0  0.38320644451E+01  0.11321920711E+02  0.12321026741E+01  0.12016184243E+02  0.51100000000E-03 0.  1.
         12    1    3    3    0    0  0.89140106217E+01  0.13083830528E+01  0.15527627625E+02  0.17952121636E+02  0.00000000000E+00 0. -1.
</event>
<event>
 7    1  0.4836188E-013  0.5052886E+02  0.7816164E-02  0.1300439E+00
        -11   -1    0    0    0    0  0.00000000000E+00  0.00000000000E+00  0.45593999997E+02  0.45594000000E+02  0.51100000000E-03 0. -1.
         11   -1    0    0    0    0 -0.00000000000E+00 -0.00000000000E+00 -0.45593999997E+02  0.45594000000E+02  0.51100000000E-03 0.  1.
    9900012    2    1    2    0    0 -0.24716047328E+00  0.37028416090E+02 -0.16792887927E+02  0.50528858699E+02  0.29999996501E+02 0.  0.
         12    1    1    2    0    0  0.24716047328E+00 -0.37028416090E+02  0.16792887927E+02  0.40659141301E+02  0.00000000000E+00 0. -1.
         11    1    3    3    0    0 -0.68717468722E+01  0.79496300782E+01  0.56633588866E+01  0.11936966013E+02  0.51100000000E-03 0. -1.
        -11    1    3    3    0    0  0.52608035621E+01  0.24242124076E+02 -0.13299015287E+02  0.28146410814E+02  0.51100000000E-03 0.  1.
        -12    1    3    3    0    0  0.13637828368E+01  0.48366619357E+01 -0.91572315264E+01  0.10445481872E+02  0.00000000000E+00 0.  1.
</event>
<event>
 7    1  0.4836188E-013  0.5052886E+02  0.7816164E-02  0.1300439E+00
        -11   -1    0    0    0    0  0.00000000000E+00  0.00000000000E+00  0.45593999997E+02  0.45594000000E+02  0.51100000000E-03 0. -1.
         11   -1    0    0    0    0 -0.00000000000E+00 -0.00000000000E+00 -0.45593999997E+02  0.45594000000E+02  0.51100000000E-03 0.  1.
    9900012    2    1    2    0    0 -0.30626186006E+02 -0.20899528440E+02 -0.16685687948E+02  0.50528859077E+02  0.29999997652E+02 0.  0.
         12    1    1    2    0    0  0.30626186006E+02  0.20899528440E+02  0.16685687948E+02  0.40659140923E+02  0.00000000000E+00 0. -1.
         11    1    3    3    0    0  0.28130235123E+01  0.32301595184E+01  0.18439257858E+01  0.46633779988E+01  0.51100000000E-03 0. -1.
        -11    1    3    3    0    0 -0.13551335529E+02 -0.52522027480E+01 -0.66192268516E+01  0.15969924630E+02  0.51100000000E-03 0.  1.
        -12    1    3    3    0    0 -0.19887873989E+02 -0.18877485210E+02 -0.11910386882E+02  0.29895556448E+02  0.00000000000E+00 0.  1.
</event>
<event>
 7    1  0.4836188E-013  0.5052883E+02  0.7816164E-02  0.1300439E+00
        -11   -1    0    0    0    0  0.00000000000E+00  0.00000000000E+00  0.45593999997E+02  0.45594000000E+02  0.51100000000E-03 0.  1.
         11   -1    0    0    0    0 -0.00000000000E+00 -0.00000000000E+00 -0.45593999997E+02  0.45594000000E+02  0.51100000000E-03 0. -1.
    9900012    2    1    2    0    0  0.36205508930E+02 -0.92999396286E+01  0.15995010848E+02  0.50528829742E+02  0.29999908485E+02 0.  0.
         12    1    1    2    0    0 -0.36205508930E+02  0.92999396286E+01 -0.15995010848E+02  0.40659170258E+02  0.00000000000E+00 0. -1.
         11    1    3    3    0    0  0.14080116742E+02 -0.11845467892E+02  0.52930920173E+01  0.19146321328E+02  0.51100000000E-03 0. -1.
        -11    1    3    3    0    0  0.18110220090E+02 -0.27117814201E+01 -0.56083827910E+00  0.18320708775E+02  0.51100000000E-03 0.  1.
         12    1    3    3    0    0  0.40151720978E+01  0.52573096831E+01  0.11262757110E+02  0.13061799639E+02  0.00000000000E+00 0. -1.
</event>
<event>
 7    1  0.4836188E-013  0.5052884E+02  0.7816164E-02  0.1300439E+00
        -11   -1    0    0    0    0  0.00000000000E+00  0.00000000000E+00  0.45593999997E+02  0.45594000000E+02  0.51100000000E-03 0. -1.
         11   -1    0    0    0    0 -0.00000000000E+00 -0.00000000000E+00 -0.45593999997E+02  0.45594000000E+02  0.51100000000E-03 0.  1.
    9900012    2    1    2    0    0  0.10319219781E+02 -0.28066537311E+02 -0.27549059727E+02  0.50528837375E+02  0.29999931685E+02 0.  0.
         12    1    1    2    0    0 -0.10319219781E+02  0.28066537311E+02  0.27549059727E+02  0.40659162625E+02  0.00000000000E+00 0. -1.
         11    1    3    3    0    0 -0.40112198010E+01 -0.59139184008E+01 -0.97203061354E+01  0.12064355216E+02  0.51100000000E-03 0. -1.
        -11    1    3    3    0    0 -0.24811032417E+01 -0.85461565512E+01 -0.13866896701E+02  0.16476756036E+02  0.51100000000E-03 0.  1.
        -12    1    3    3    0    0  0.16811542824E+02 -0.13606462359E+02 -0.39618568902E+01  0.21987726123E+02  0.00000000000E+00 0.  1.
</event>
<event>
 7    1  0.4836188E-013  0.5052885E+02  0.7816164E-02  0.1300439E+00
        -11   -1    0    0    0    0  0.00000000000E+00  0.00000000000E+00  0.45593999997E+02  0.45594000000E+02  0.51100000000E-03 0.  1.
         11   -1    0    0    0    0 -0.00000000000E+00 -0.00000000000E+00 -0.45593999997E+02  0.45594000000E+02  0.51100000000E-03 0. -1.
    9900012    2    1    2    0    0  0.11576281305E+02  0.82838871579E+01  0.38085867874E+02  0.50528850882E+02  0.29999972741E+02 0.  0.
         12    1    1    2    0    0 -0.11576281305E+02 -0.82838871579E+01 -0.38085867874E+02  0.40659149118E+02  0.00000000000E+00 0. -1.
         11    1    3    3    0    0  0.60436499757E+01  0.40734855771E+01  0.11221895096E+02  0.13380953612E+02  0.51100000000E-03 0. -1.
        -11    1    3    3    0    0 -0.19909707200E+01  0.13440880543E+02  0.12229707604E+02  0.18280781781E+02  0.51100000000E-03 0.  1.
         12    1    3    3    0    0  0.75236020495E+01 -0.92304789626E+01  0.14634265174E+02  0.18867115489E+02  0.00000000000E+00 0. -1.
</event>
<event>
 7    1  0.4836188E-013  0.5052886E+02  0.7816164E-02  0.1300439E+00
        -11   -1    0    0    0    0  0.00000000000E+00  0.00000000000E+00  0.45593999997E+02  0.45594000000E+02  0.51100000000E-03 0. -1.
         11   -1    0    0    0    0 -0.00000000000E+00 -0.00000000000E+00 -0.45593999997E+02  0.45594000000E+02  0.51100000000E-03 0.  1.
    9900012    2    1    2    0    0 -0.11544730052E+02 -0.16772854929E+02 -0.35193131192E+02  0.50528856655E+02  0.29999990288E+02 0.  0.
         12    1    1    2    0    0  0.11544730052E+02  0.16772854929E+02  0.35193131192E+02  0.40659143345E+02  0.00000000000E+00 0. -1.
         11    1    3    3    0    0 -0.14397134755E+02 -0.68771929096E+01 -0.51611040874E+01  0.16769325184E+02  0.51100000000E-03 0.  1.
        -11    1    3    3    0    0  0.10410242662E+00  0.25661933642E+01 -0.37774371511E+01  0.45678460339E+01  0.51100000000E-03 0. -1.
         12    1    3    3    0    0  0.27483022759E+01 -0.12461855384E+02 -0.26254589954E+02  0.29191685437E+02  0.00000000000E+00 0. -1.
</event>
<event>
 7    1  0.4836188E-013  0.5052887E+02  0.7816164E-02  0.1300439E+00
        -11   -1    0    0    0    0  0.00000000000E+00  0.00000000000E+00  0.45593999997E+02  0.45594000000E+02  0.51100000000E-03 0.  1.
         11   -1    0    0    0    0 -0.00000000000E+00 -0.00000000000E+00 -0.45593999997E+02  0.45594000000E+02  0.51100000000E-03 0. -1.
    9900012    2    1    2    0    0  0.29157160761E+02  0.31772786867E+01  0.28159004872E+02  0.50528872133E+02  0.30000037337E+02 0.  0.
         12    1    1    2    0    0 -0.29157160761E+02 -0.31772786867E+01 -0.28159004872E+02  0.40659127867E+02  0.00000000000E+00 0. -1.
         11    1    3    3    0    0  0.49956164333E+00  0.63213980668E+01 -0.77028123384E+00  0.63877201562E+01  0.51100000000E-03 0. -1.
        -11    1    3    3    0    0  0.13472102819E+02  0.30667243682E+01  0.41570373543E+01  0.14428558921E+02  0.51100000000E-03 0.  1.
         12    1    3    3    0    0  0.15185496299E+02 -0.62108437483E+01  0.24772248752E+02  0.29712593056E+02  0.00000000000E+00 0. -1.
</event>
<event>
 7    1  0.4836188E-013  0.5052886E+02  0.7816164E-02  0.1300439E+00
        -11   -1    0    0    0    0  0.00000000000E+00  0.00000000000E+00  0.45593999997E+02  0.45594000000E+02  0.51100000000E-03 0.  1.
         11   -1    0    0    0    0 -0.00000000000E+00 -0.00000000000E+00 -0.45593999997E+02  0.45594000000E+02  0.51100000000E-03 0. -1.
    9900012    2    1    2    0    0 -0.26595298711E+02  0.23846552158E+02  0.19421586191E+02  0.50528856213E+02  0.29999988944E+02 0.  0.
         12    1    1    2    0    0  0.26595298711E+02 -0.23846552158E+02 -0.19421586191E+02  0.40659143787E+02  0.00000000000E+00 0. -1.
         11    1    3    3    0    0 -0.38331030601E+01 -0.13442084470E+00 -0.29005579434E+01  0.48087404460E+01  0.51100000000E-03 0. -1.
        -11    1    3    3    0    0  0.27962587493E+01  0.10584009937E+02  0.75839411209E+01  0.13317525766E+02  0.51100000000E-03 0.  1.
        -12    1    3    3    0    0 -0.25558454400E+02  0.13396963066E+02  0.14738203013E+02  0.32402590001E+02  0.00000000000E+00 0.  1.
</event>
<event>
 7    1  0.4836188E-013  0.5052886E+02  0.7816164E-02  0.1300439E+00
        -11   -1    0    0    0    0  0.00000000000E+00  0.00000000000E+00  0.45593999997E+02  0.45594000000E+02  0.51100000000E-03 0.  1.
         11   -1    0    0    0    0 -0.00000000000E+00 -0.00000000000E+00 -0.45593999997E+02  0.45594000000E+02  0.51100000000E-03 0. -1.
    9900012    2    1    2    0    0 -0.83563135606E+00 -0.28672035911E+02  0.28816340401E+02  0.50528863300E+02  0.30000010487E+02 0.  0.
         12    1    1    2    0    0  0.83563135606E+00  0.28672035911E+02 -0.28816340401E+02  0.40659136700E+02  0.00000000000E+00 0. -1.
         11    1    3    3    0    0  0.14584582866E+01 -0.13569315454E+01 -0.18853676266E+01  0.27428042477E+01  0.51100000000E-03 0. -1.
        -11    1    3    3    0    0 -0.13151121950E+01 -0.10800681534E+02 -0.20698441613E+01  0.11075581104E+02  0.51100000000E-03 0.  1.
        -12    1    3    3    0    0 -0.97897744770E+00 -0.16514422832E+02  0.32771552189E+02  0.36710477948E+02  0.00000000000E+00 0.  1.
</event>
<event>
 7    1  0.4836188E-013  0.5052886E+02  0.7816164E-02  0.1300439E+00
        -11   -1    0    0    0    0  0.00000000000E+00  0.00000000000E+00  0.45593999997E+02  0.45594000000E+02  0.51100000000E-03 0. -1.
         11   -1    0    0    0    0 -0.00000000000E+00 -0.00000000000E+00 -0.45593999997E+02  0.45594000000E+02  0.51100000000E-03 0.  1.
    9900012    2    1    2    0    0 -0.65415303596E+01  0.24463404122E+02 -0.31810622058E+02  0.50528862818E+02  0.30000009020E+02 0.  0.
         12    1    1    2    0    0  0.65415303596E+01 -0.24463404122E+02  0.31810622058E+02  0.40659137182E+02  0.00000000000E+00 0. -1.
         11    1    3    3    0    0 -0.45985587688E+01  0.21714506577E+02 -0.16153190355E+02  0.27451631965E+02  0.51100000000E-03 0. -1.
        -11    1    3    3    0    0 -0.61138991523E+01  0.70688239407E+01 -0.14026207364E+02  0.16854747937E+02  0.51100000000E-03 0.  1.
         12    1    3    3    0    0  0.41709275615E+01 -0.43199263957E+01 -0.16312243392E+01  0.62224829154E+01  0.00000000000E+00 0. -1.
</event>
<event>
 7    1  0.4836188E-013  0.5052886E+02  0.7816164E-02  0.1300439E+00
        -11   -1    0    0    0    0  0.00000000000E+00  0.00000000000E+00  0.45593999997E+02  0.45594000000E+02  0.51100000000E-03 0.  1.
         11   -1    0    0    0    0 -0.00000000000E+00 -0.00000000000E+00 -0.45593999997E+02  0.45594000000E+02  0.51100000000E-03 0. -1.
    9900012    2    1    2    0    0 -0.62801584623E+01 -0.32938525366E+02  0.22995197427E+02  0.50528856523E+02  0.29999989886E+02 0.  0.
         12    1    1    2    0    0  0.62801584623E+01  0.32938525366E+02 -0.22995197427E+02  0.40659143477E+02  0.00000000000E+00 0. -1.
         11    1    3    3    0    0  0.13655069090E+01 -0.76093439723E+01 -0.15048011728E+01  0.78759857566E+01  0.51100000000E-03 0. -1.
        -11    1    3    3    0    0  0.61495560885E+01 -0.18373439404E+02  0.15140749025E+02  0.24589481428E+02  0.51100000000E-03 0.  1.
        -12    1    3    3    0    0 -0.13795221460E+02 -0.69557419899E+01  0.93592495747E+01  0.18063389337E+02  0.00000000000E+00 0.  1.
</event>
<event>
 7    1  0.4836188E-013  0.5052885E+02  0.7816164E-02  0.1300439E+00
        -11   -1    0    0    0    0  0.00000000000E+00  0.00000000000E+00  0.45593999997E+02  0.45594000000E+02  0.51100000000E-03 0.  1.
         11   -1    0    0    0    0 -0.00000000000E+00 -0.00000000000E+00 -0.45593999997E+02  0.45594000000E+02  0.51100000000E-03 0. -1.
    9900012    2    1    2    0    0 -0.31915489269E+02  0.17051366853E+02  0.18542344764E+02  0.50528854458E+02  0.29999983612E+02 0.  0.
         12    1    1    2    0    0  0.31915489269E+02 -0.17051366853E+02 -0.18542344764E+02  0.40659145542E+02  0.00000000000E+00 0. -1.
         11    1    3    3    0    0 -0.93366928475E+01 -0.24852595481E+01 -0.24734852233E+01  0.99733884794E+01  0.51100000000E-03 0. -1.
        -11    1    3    3    0    0 -0.55891529997E+01  0.22935829463E+01  0.14162400378E+02  0.15397166581E+02  0.51100000000E-03 0.  1.
         12    1    3    3    0    0 -0.16989643422E+02  0.17243043455E+02  0.68534296085E+01  0.25158299398E+02  0.00000000000E+00 0. -1.
</event>
<event>
 7    1  0.4836188E-013  0.5052884E+02  0.7816164E-02  0.1300439E+00
        -11   -1    0    0    0    0  0.00000000000E+00  0.00000000000E+00  0.45593999997E+02  0.45594000000E+02  0.51100000000E-03 0. -1.
         11   -1    0    0    0    0 -0.00000000000E+00 -0.00000000000E+00 -0.45593999997E+02  0.45594000000E+02  0.51100000000E-03 0.  1.
    9900012    2    1    2    0    0  0.23625600053E+02  0.28001032145E+02 -0.17633513059E+02  0.50528836680E+02  0.29999929573E+02 0.  0.
         12    1    1    2    0    0 -0.23625600053E+02 -0.28001032145E+02  0.17633513059E+02  0.40659163320E+02  0.00000000000E+00 0. -1.
         11    1    3    3    0    0  0.73498201764E+00 -0.71424550637E+00  0.46932543185E+01  0.48038507021E+01  0.51100000000E-03 0. -1.
        -11    1    3    3    0    0  0.93043374744E+01  0.14306673183E+01 -0.56996322374E+01  0.11004695031E+02  0.51100000000E-03 0.  1.
        -12    1    3    3    0    0  0.13586280561E+02  0.27284610333E+02 -0.16627135140E+02  0.34720290948E+02  0.00000000000E+00 0.  1.
</event>
<event>
 7    1  0.4836188E-013  0.5052886E+02  0.7816164E-02  0.1300439E+00
        -11   -1    0    0    0    0  0.00000000000E+00  0.00000000000E+00  0.45593999997E+02  0.45594000000E+02  0.51100000000E-03 0.  1.
         11   -1    0    0    0    0 -0.00000000000E+00 -0.00000000000E+00 -0.45593999997E+02  0.45594000000E+02  0.51100000000E-03 0. -1.
    9900012    2    1    2    0    0 -0.81834546186E+01 -0.36277086989E+02  0.16436843367E+02  0.50528858472E+02  0.29999995812E+02 0.  0.
         12    1    1    2    0    0  0.81834546186E+01  0.36277086989E+02 -0.16436843367E+02  0.40659141528E+02  0.00000000000E+00 0. -1.
         11    1    3    3    0    0 -0.79202200302E+01 -0.12395539683E+02 -0.14214857720E+01  0.14778359565E+02  0.51100000000E-03 0. -1.
        -11    1    3    3    0    0  0.49682611483E+01 -0.73955070698E+01 -0.22875683219E+01  0.91983755493E+01  0.51100000000E-03 0.  1.
        -12    1    3    3    0    0 -0.52314957368E+01 -0.16486040236E+02  0.20145897461E+02  0.26552123358E+02  0.00000000000E+00 0.  1.
</event>
<event>
 7    1  0.4836188E-013  0.5052885E+02  0.7816164E-02  0.1300439E+00
        -11   -1    0    0    0    0  0.00000000000E+00  0.00000000000E+00  0.45593999997E+02  0.45594000000E+02  0.51100000000E-03 0.  1.
         11   -1    0    0    0    0 -0.00000000000E+00 -0.00000000000E+00 -0.45593999997E+02  0.45594000000E+02  0.51100000000E-03 0. -1.
    9900012    2    1    2    0    0 -0.36951889072E+02  0.16931141727E+02 -0.10298664388E+01  0.50528852308E+02  0.29999977075E+02 0.  0.
         12    1    1    2    0    0  0.36951889072E+02 -0.16931141727E+02  0.10298664388E+01  0.40659147692E+02  0.00000000000E+00 0. -1.
         11    1    3    3    0    0 -0.82328053428E+01 -0.63974356860E+00 -0.10913293229E+02  0.13685332477E+02  0.51100000000E-03 0. -1.
        -11    1    3    3    0    0 -0.15046978614E+02  0.27787793391E+01  0.33107893948E+01  0.15655494457E+02  0.51100000000E-03 0.  1.
        -12    1    3    3    0    0 -0.13672105115E+02  0.14792105957E+02  0.65726373953E+01  0.21188025374E+02  0.00000000000E+00 0.  1.
</event>
<event>
 7    1  0.4836188E-013  0.5052886E+02  0.7816164E-02  0.1300439E+00
        -11   -1    0    0    0    0  0.00000000000E+00  0.00000000000E+00  0.45593999997E+02  0.45594000000E+02  0.51100000000E-03 0.  1.
         11   -1    0    0    0    0 -0.00000000000E+00 -0.00000000000E+00 -0.45593999997E+02  0.45594000000E+02  0.51100000000E-03 0. -1.
    9900012    2    1    2    0    0 -0.17798155987E+02 -0.71781622075E+01  0.35845022909E+02  0.50528855438E+02  0.29999986589E+02 0.  0.
         12    1    1    2    0    0  0.17798155987E+02  0.71781622075E+01 -0.35845022909E+02  0.40659144562E+02  0.00000000000E+00 0. -1.
         11    1    3    3    0    0 -0.10184425871E+02  0.59421019610E+01  0.12758377771E+02  0.17372602270E+02  0.51100000000E-03 0. -1.
        -11    1    3    3    0    0 -0.10540351943E+02 -0.11506865992E+02  0.24876117019E+02  0.29365424946E+02  0.51100000000E-03 0.  1.
         12    1    3    3    0    0  0.29266218270E+01 -0.16133981763E+01 -0.17894718813E+01  0.37908282218E+01  0.00000000000E+00 0. -1.
</event>
<event>
 7    1  0.4836188E-013  0.5052887E+02  0.7816164E-02  0.1300439E+00
        -11   -1    0    0    0    0  0.00000000000E+00  0.00000000000E+00  0.45593999997E+02  0.45594000000E+02  0.51100000000E-03 0.  1.
         11   -1    0    0    0    0 -0.00000000000E+00 -0.00000000000E+00 -0.45593999997E+02  0.45594000000E+02  0.51100000000E-03 0. -1.
    9900012    2    1    2    0    0 -0.93391107308E+01  0.36283632936E+02  0.15793801407E+02  0.50528866079E+02  0.30000018934E+02 0.  0.
         12    1    1    2    0    0  0.93391107308E+01 -0.36283632936E+02 -0.15793801407E+02  0.40659133921E+02  0.00000000000E+00 0. -1.
         11    1    3    3    0    0 -0.18045898815E+01  0.85642352308E+01 -0.24052382867E+01  0.90767748240E+01  0.51100000000E-03 0. -1.
        -11    1    3    3    0    0 -0.17171490719E+01  0.30458309912E+02  0.12908033874E+02  0.33125135205E+02  0.51100000000E-03 0.  1.
        -12    1    3    3    0    0 -0.58173717775E+01 -0.27389122062E+01  0.52910058196E+01  0.83269560497E+01  0.00000000000E+00 0.  1.
</event>
<event>
 7    1  0.4836188E-013  0.5052885E+02  0.7816164E-02  0.1300439E+00
        -11   -1    0    0    0    0  0.00000000000E+00  0.00000000000E+00  0.45593999997E+02  0.45594000000E+02  0.51100000000E-03 0.  1.
         11   -1    0    0    0    0 -0.00000000000E+00 -0.00000000000E+00 -0.45593999997E+02  0.45594000000E+02  0.51100000000E-03 0. -1.
    9900012    2    1    2    0    0  0.31174392080E+02  0.60820994429E+01  0.25383687397E+02  0.50528852923E+02  0.29999978943E+02 0.  0.
         12    1    1    2    0    0 -0.31174392080E+02 -0.60820994429E+01 -0.25383687397E+02  0.40659147077E+02  0.00000000000E+00 0. -1.
         11    1    3    3    0    0 -0.10431619788E+01 -0.79714489566E+00 -0.21204823472E+01  0.24940073265E+01  0.51100000000E-03 0. -1.
        -11    1    3    3    0    0  0.15417461943E+02  0.44379573384E+01  0.39451242940E+00  0.16048340675E+02  0.51100000000E-03 0.  1.
        -12    1    3    3    0    0  0.16800092116E+02  0.24412870001E+01  0.27109657315E+02  0.31986504921E+02  0.00000000000E+00 0.  1.
</event>
<event>
 7    1  0.4836188E-013  0.5052889E+02  0.7816164E-02  0.1300439E+00
        -11   -1    0    0    0    0  0.00000000000E+00  0.00000000000E+00  0.45593999997E+02  0.45594000000E+02  0.51100000000E-03 0. -1.
         11   -1    0    0    0    0 -0.00000000000E+00 -0.00000000000E+00 -0.45593999997E+02  0.45594000000E+02  0.51100000000E-03 0.  1.
    9900012    2    1    2    0    0 -0.36201940258E+02 -0.17629835661E+01  0.18424828038E+02  0.50528894282E+02  0.30000104661E+02 0.  0.
         12    1    1    2    0    0  0.36201940258E+02  0.17629835661E+01 -0.18424828038E+02  0.40659105718E+02  0.00000000000E+00 0. -1.
         11    1    3    3    0    0 -0.75014754535E+01  0.73306262693E+01  0.54326794594E+01  0.11812037159E+02  0.51100000000E-03 0. -1.
        -11    1    3    3    0    0 -0.31588546185E+01  0.27770218392E+01  0.94321640900E+01  0.10327435910E+02  0.51100000000E-03 0.  1.
        -12    1    3    3    0    0 -0.25541610186E+02 -0.11870631675E+02  0.35599844888E+01  0.28389421213E+02  0.00000000000E+00 0.  1.
</event>
<event>
 7    1  0.4836188E-013  0.5052888E+02  0.7816164E-02  0.1300439E+00
        -11   -1    0    0    0    0  0.00000000000E+00  0.00000000000E+00  0.45593999997E+02  0.45594000000E+02  0.51100000000E-03 0.  1.
         11   -1    0    0    0    0 -0.00000000000E+00 -0.00000000000E+00 -0.45593999997E+02  0.45594000000E+02  0.51100000000E-03 0. -1.
    9900012    2    1    2    0    0 -0.17999046502E+02 -0.65406328191E+01  0.35866673000E+02  0.50528883129E+02  0.30000070757E+02 0.  0.
         12    1    1    2    0    0  0.17999046502E+02  0.65406328191E+01 -0.35866673000E+02  0.40659116871E+02  0.00000000000E+00 0. -1.
         11    1    3    3    0    0 -0.55651210423E+01 -0.64478120183E+01  0.26902235978E+01  0.89320857198E+01  0.51100000000E-03 0. -1.
        -11    1    3    3    0    0 -0.10870447138E+02 -0.10051043141E+02  0.22303637626E+02  0.26770176331E+02  0.51100000000E-03 0.  1.
         12    1    3    3    0    0 -0.15634783218E+01  0.99582223403E+01  0.10872811777E+02  0.14826621077E+02  0.00000000000E+00 0. -1.
</event>
<event>
 7    1  0.4836188E-013  0.5052886E+02  0.7816164E-02  0.1300439E+00
        -11   -1    0    0    0    0  0.00000000000E+00  0.00000000000E+00  0.45593999997E+02  0.45594000000E+02  0.51100000000E-03 0.  1.
         11   -1    0    0    0    0 -0.00000000000E+00 -0.00000000000E+00 -0.45593999997E+02  0.45594000000E+02  0.51100000000E-03 0. -1.
    9900012    2    1    2    0    0 -0.18775121032E+02  0.29782811647E+02  0.20338246084E+02  0.50528864579E+02  0.30000014374E+02 0.  0.
         12    1    1    2    0    0  0.18775121032E+02 -0.29782811647E+02 -0.20338246084E+02  0.40659135421E+02  0.00000000000E+00 0. -1.
         11    1    3    3    0    0 -0.23990496004E+01  0.15344613726E+02  0.10231958672E+01  0.15564688864E+02  0.51100000000E-03 0. -1.
        -11    1    3    3    0    0 -0.11245724526E+02  0.18368683859E+02  0.18607778970E+02  0.28462682679E+02  0.51100000000E-03 0.  1.
         12    1    3    3    0    0 -0.51303469057E+01 -0.39304859376E+01  0.70727124665E+00  0.65014930358E+01  0.00000000000E+00 0. -1.
</event>
<event>
 7    1  0.4836188E-013  0.5052886E+02  0.7816164E-02  0.1300439E+00
        -11   -1    0    0    0    0  0.00000000000E+00  0.00000000000E+00  0.45593999997E+02  0.45594000000E+02  0.51100000000E-03 0. -1.
         11   -1    0    0    0    0 -0.00000000000E+00 -0.00000000000E+00 -0.45593999997E+02  0.45594000000E+02  0.51100000000E-03 0.  1.
    9900012    2    1    2    0    0 -0.31118056937E+02 -0.25039476751E+02  0.76063820580E+01  0.50528856975E+02  0.29999991260E+02 0.  0.
         12    1    1    2    0    0  0.31118056937E+02  0.25039476751E+02 -0.76063820580E+01  0.40659143025E+02  0.00000000000E+00 0. -1.
         11    1    3    3    0    0 -0.16931256016E+02 -0.47253086326E+01 -0.78486087363E+01  0.19250886507E+02  0.51100000000E-03 0. -1.
        -11    1    3    3    0    0 -0.77070908092E+01 -0.22917953664E+01  0.46536738457E+01  0.92902236391E+01  0.51100000000E-03 0.  1.
        -12    1    3    3    0    0 -0.64797101126E+01 -0.18022372753E+02  0.10801316949E+02  0.21987746829E+02  0.00000000000E+00 0.  1.
</event>
<event>
 7    1  0.4836188E-013  0.5052886E+02  0.7816164E-02  0.1300439E+00
        -11   -1    0    0    0    0  0.00000000000E+00  0.00000000000E+00  0.45593999997E+02  0.45594000000E+02  0.51100000000E-03 0.  1.
         11   -1    0    0    0    0 -0.00000000000E+00 -0.00000000000E+00 -0.45593999997E+02  0.45594000000E+02  0.51100000000E-03 0. -1.
    9900012    2    1    2    0    0 -0.29293833581E+02  0.10793995981E+02  0.26048543809E+02  0.50528859949E+02  0.30000000302E+02 0.  0.
         12    1    1    2    0    0  0.29293833581E+02 -0.10793995981E+02 -0.26048543809E+02  0.40659140051E+02  0.00000000000E+00 0. -1.
         11    1    3    3    0    0 -0.71793909028E+01  0.39070481940E+01  0.68091277795E+01  0.10638275269E+02  0.51100000000E-03 0. -1.
        -11    1    3    3    0    0 -0.17720169533E+02  0.13213473859E+02  0.35166396292E+01  0.22382293320E+02  0.51100000000E-03 0.  1.
         12    1    3    3    0    0 -0.43942731450E+01 -0.63265260728E+01  0.15722776400E+02  0.17508291360E+02  0.00000000000E+00 0. -1.
</event>
<event>
 7    1  0.4836188E-013  0.5052886E+02  0.7816164E-02  0.1300439E+00
        -11   -1    0    0    0    0  0.00000000000E+00  0.00000000000E+00  0.45593999997E+02  0.45594000000E+02  0.51100000000E-03 0. -1.
         11   -1    0    0    0    0 -0.00000000000E+00 -0.00000000000E+00 -0.45593999997E+02  0.45594000000E+02  0.51100000000E-03 0.  1.
    9900012    2    1    2    0    0  0.37508877039E+02 -0.17332576921E+01 -0.15596330039E+02  0.50528861425E+02  0.30000004788E+02 0.  0.
         12    1    1    2    0    0 -0.37508877039E+02  0.17332576921E+01  0.15596330039E+02  0.40659138575E+02  0.00000000000E+00 0. -1.
         11    1    3    3    0    0  0.11299116896E+02  0.34190714333E+01  0.84236919449E+01  0.14502368025E+02  0.51100000000E-03 0. -1.
        -11    1    3    3    0    0  0.11386493640E+02 -0.12712814448E+01 -0.89964379307E+01  0.14567233424E+02  0.51100000000E-03 0.  1.
        -12    1    3    3    0    0  0.14823266504E+02 -0.38810476806E+01 -0.15023584053E+02  0.21459259977E+02  0.00000000000E+00 0.  1.
</event>
<event>
 7    1  0.4836188E-013  0.5052887E+02  0.7816164E-02  0.1300439E+00
        -11   -1    0    0    0    0  0.00000000000E+00  0.00000000000E+00  0.45593999997E+02  0.45594000000E+02  0.51100000000E-03 0.  1.
         11   -1    0    0    0    0 -0.00000000000E+00 -0.00000000000E+00 -0.45593999997E+02  0.45594000000E+02  0.51100000000E-03 0. -1.
    9900012    2    1    2    0    0  0.21521068648E+02  0.34343897915E+02 -0.32411938407E+01  0.50528867481E+02  0.30000023194E+02 0.  0.
         12    1    1    2    0    0 -0.21521068648E+02 -0.34343897915E+02  0.32411938407E+01  0.40659132519E+02  0.00000000000E+00 0. -1.
         11    1    3    3    0    0  0.56636718450E+00 -0.40269716450E+01 -0.17407103929E+01  0.44234992201E+01  0.51100000000E-03 0. -1.
        -11    1    3    3    0    0  0.73440900675E+01  0.25146548160E+02 -0.53599965258E+01  0.26739747685E+02  0.51100000000E-03 0.  1.
         12    1    3    3    0    0  0.13610611396E+02  0.13224321400E+02  0.38595130780E+01  0.19365620575E+02  0.00000000000E+00 0. -1.
</event>
<event>
 7    1  0.4836188E-013  0.5052886E+02  0.7816164E-02  0.1300439E+00
        -11   -1    0    0    0    0  0.00000000000E+00  0.00000000000E+00  0.45593999997E+02  0.45594000000E+02  0.51100000000E-03 0.  1.
         11   -1    0    0    0    0 -0.00000000000E+00 -0.00000000000E+00 -0.45593999997E+02  0.45594000000E+02  0.51100000000E-03 0. -1.
    9900012    2    1    2    0    0 -0.32745279184E+02  0.61422823122E+01  0.23306326059E+02  0.50528858651E+02  0.29999996357E+02 0.  0.
         12    1    1    2    0    0  0.32745279184E+02 -0.61422823122E+01 -0.23306326059E+02  0.40659141349E+02  0.00000000000E+00 0. -1.
         11    1    3    3    0    0 -0.22666749272E+02 -0.90599424839E+01  0.14859014641E+02  0.28577165652E+02  0.51100000000E-03 0. -1.
        -11    1    3    3    0    0  0.12701343363E+01  0.20267727679E+00  0.13048972118E+01  0.18322326013E+01  0.51100000000E-03 0.  1.
        -12    1    3    3    0    0 -0.11348664248E+02  0.14999547519E+02  0.71424142061E+01  0.20119460398E+02  0.00000000000E+00 0.  1.
</event>
<event>
 7    1  0.4836188E-013  0.5052886E+02  0.7816164E-02  0.1300439E+00
        -11   -1    0    0    0    0  0.00000000000E+00  0.00000000000E+00  0.45593999997E+02  0.45594000000E+02  0.51100000000E-03 0.  1.
         11   -1    0    0    0    0 -0.00000000000E+00 -0.00000000000E+00 -0.45593999997E+02  0.45594000000E+02  0.51100000000E-03 0. -1.
    9900012    2    1    2    0    0  0.24166401086E+02 -0.65762427183E+01  0.32029732957E+02  0.50528859539E+02  0.29999999056E+02 0.  0.
         12    1    1    2    0    0 -0.24166401086E+02  0.65762427183E+01 -0.32029732957E+02  0.40659140461E+02  0.00000000000E+00 0. -1.
         11    1    3    3    0    0 -0.35094298766E+01  0.61979935839E+00 -0.51505805107E+00  0.36007685792E+01  0.51100000000E-03 0. -1.
        -11    1    3    3    0    0  0.20847917010E+01 -0.79131381659E+01  0.86726458078E+01  0.11923879303E+02  0.51100000000E-03 0.  1.
        -12    1    3    3    0    0  0.25591039261E+02  0.71709608919E+00  0.23872145200E+02  0.35004211657E+02  0.00000000000E+00 0.  1.
</event>
<event>
 7    1  0.4836188E-013  0.5052886E+02  0.7816164E-02  0.1300439E+00
        -11   -1    0    0    0    0  0.00000000000E+00  0.00000000000E+00  0.45593999997E+02  0.45594000000E+02  0.51100000000E-03 0.  1.
         11   -1    0    0    0    0 -0.00000000000E+00 -0.00000000000E+00 -0.45593999997E+02  0.45594000000E+02  0.51100000000E-03 0. -1.
    9900012    2    1    2    0    0  0.14219693995E+02 -0.42848583874E+01  0.37849778907E+02  0.50528862380E+02  0.30000007690E+02 0.  0.
         12    1    1    2    0    0 -0.14219693995E+02  0.42848583874E+01 -0.37849778907E+02  0.40659137620E+02  0.00000000000E+00 0. -1.
         11    1    3    3    0    0  0.72088528556E+01 -0.47592290020E+01  0.12748160918E+02  0.15399137224E+02  0.51100000000E-03 0. -1.
        -11    1    3    3    0    0 -0.35180957754E+01 -0.81274744920E+01  0.17349043494E+02  0.19478761509E+02  0.51100000000E-03 0.  1.
         12    1    3    3    0    0  0.10528936915E+02  0.86018451066E+01  0.77525744945E+01  0.15650963647E+02  0.00000000000E+00 0. -1.
</event>
<event>
 7    1  0.4836188E-013  0.5052886E+02  0.7816164E-02  0.1300439E+00
        -11   -1    0    0    0    0  0.00000000000E+00  0.00000000000E+00  0.45593999997E+02  0.45594000000E+02  0.51100000000E-03 0. -1.
         11   -1    0    0    0    0 -0.00000000000E+00 -0.00000000000E+00 -0.45593999997E+02  0.45594000000E+02  0.51100000000E-03 0.  1.
    9900012    2    1    2    0    0 -0.27761951124E+02  0.72847352786E+01 -0.28798832391E+02  0.50528855329E+02  0.29999986257E+02 0.  0.
         12    1    1    2    0    0  0.27761951124E+02 -0.72847352786E+01  0.28798832391E+02  0.40659144671E+02  0.00000000000E+00 0. -1.
         11    1    3    3    0    0 -0.34199613700E+01  0.19223951459E+01 -0.12807434533E+02  0.13394854178E+02  0.51100000000E-03 0. -1.
        -11    1    3    3    0    0 -0.74777060927E+01  0.73062106421E+01 -0.17186030173E+02  0.20116074064E+02  0.51100000000E-03 0.  1.
         12    1    3    3    0    0 -0.16864283662E+02 -0.19438705094E+01  0.11946323147E+01  0.17017927087E+02  0.00000000000E+00 0. -1.
</event>
<event>
 7    1  0.4836188E-013  0.5052885E+02  0.7816164E-02  0.1300439E+00
        -11   -1    0    0    0    0  0.00000000000E+00  0.00000000000E+00  0.45593999997E+02  0.45594000000E+02  0.51100000000E-03 0.  1.
         11   -1    0    0    0    0 -0.00000000000E+00 -0.00000000000E+00 -0.45593999997E+02  0.45594000000E+02  0.51100000000E-03 0. -1.
    9900012    2    1    2    0    0  0.34838329519E+01 -0.28700246828E+02  0.28588904887E+02  0.50528846754E+02  0.29999960193E+02 0.  0.
         12    1    1    2    0    0 -0.34838329519E+01  0.28700246828E+02 -0.28588904887E+02  0.40659153246E+02  0.00000000000E+00 0. -1.
         11    1    3    3    0    0  0.21853434621E+01 -0.11653444452E+02  0.61449140152E+01  0.13354342445E+02  0.51100000000E-03 0. -1.
        -11    1    3    3    0    0  0.73217379435E+01 -0.15784119657E+02  0.25042833791E+02  0.30494094583E+02  0.51100000000E-03 0.  1.
         12    1    3    3    0    0 -0.60232484537E+01 -0.12626827196E+01 -0.25988429191E+01  0.66804097257E+01  0.00000000000E+00 0. -1.
</event>
<event>
 7    1  0.4836188E-013  0.5052886E+02  0.7816164E-02  0.1300439E+00
        -11   -1    0    0    0    0  0.00000000000E+00  0.00000000000E+00  0.45593999997E+02  0.45594000000E+02  0.51100000000E-03 0. -1.
         11   -1    0    0    0    0 -0.00000000000E+00 -0.00000000000E+00 -0.45593999997E+02  0.45594000000E+02  0.51100000000E-03 0.  1.
    9900012    2    1    2    0    0 -0.20828441211E+02  0.31936426493E+01 -0.34772722655E+02  0.50528861329E+02  0.30000004495E+02 0.  0.
         12    1    1    2    0    0  0.20828441211E+02 -0.31936426493E+01  0.34772722655E+02  0.40659138671E+02  0.00000000000E+00 0. -1.
         11    1    3    3    0    0 -0.73200789111E+01  0.10231084848E+02 -0.38592177558E+01  0.13158731488E+02  0.51100000000E-03 0. -1.
        -11    1    3    3    0    0 -0.11700599657E+01  0.41651722179E+01 -0.60303733766E+01  0.74217991923E+01  0.51100000000E-03 0.  1.
         12    1    3    3    0    0 -0.12338302335E+02 -0.11202614416E+02 -0.24883131522E+02  0.29948330648E+02  0.00000000000E+00 0. -1.
</event>
<event>
 7    1  0.4836188E-013  0.5052885E+02  0.7816164E-02  0.1300439E+00
        -11   -1    0    0    0    0  0.00000000000E+00  0.00000000000E+00  0.45593999997E+02  0.45594000000E+02  0.51100000000E-03 0.  1.
         11   -1    0    0    0    0 -0.00000000000E+00 -0.00000000000E+00 -0.45593999997E+02  0.45594000000E+02  0.51100000000E-03 0. -1.
    9900012    2    1    2    0    0  0.13415195553E+02 -0.89090720946E+01  0.37333994200E+02  0.50528853916E+02  0.29999981964E+02 0.  0.
         12    1    1    2    0    0 -0.13415195553E+02  0.89090720946E+01 -0.37333994200E+02  0.40659146084E+02  0.00000000000E+00 0. -1.
         11    1    3    3    0    0  0.29171998157E+01 -0.40914955758E+01  0.11795979689E+02  0.12821681945E+02  0.51100000000E-03 0.  1.
        -11    1    3    3    0    0  0.10389545639E+02  0.72132913275E+01  0.44122151095E+01  0.13395591543E+02  0.51100000000E-03 0. -1.
         12    1    3    3    0    0  0.10845009798E+00 -0.12030867846E+02  0.21125799402E+02  0.24311580428E+02  0.00000000000E+00 0. -1.
</event>
<event>
 7    1  0.4836188E-013  0.5052886E+02  0.7816164E-02  0.1300439E+00
        -11   -1    0    0    0    0  0.00000000000E+00  0.00000000000E+00  0.45593999997E+02  0.45594000000E+02  0.51100000000E-03 0.  1.
         11   -1    0    0    0    0 -0.00000000000E+00 -0.00000000000E+00 -0.45593999997E+02  0.45594000000E+02  0.51100000000E-03 0. -1.
    9900012    2    1    2    0    0  0.12889263872E+02 -0.36152495293E+02 -0.13417501992E+02  0.50528863280E+02  0.30000010427E+02 0.  0.
         12    1    1    2    0    0 -0.12889263872E+02  0.36152495293E+02  0.13417501992E+02  0.40659136720E+02  0.00000000000E+00 0. -1.
         11    1    3    3    0    0  0.10431288111E+02 -0.12477482953E+02  0.39686536451E+00  0.16268277563E+02  0.51100000000E-03 0. -1.
        -11    1    3    3    0    0 -0.26738065358E+01 -0.25176487557E+02 -0.13959955586E+02  0.28911678044E+02  0.51100000000E-03 0.  1.
         12    1    3    3    0    0  0.51317822963E+01  0.15014752165E+01  0.14558822890E+00  0.53489076731E+01  0.00000000000E+00 0. -1.
</event>
<event>
 7    1  0.4836188E-013  0.5052887E+02  0.7816164E-02  0.1300439E+00
        -11   -1    0    0    0    0  0.00000000000E+00  0.00000000000E+00  0.45593999997E+02  0.45594000000E+02  0.51100000000E-03 0. -1.
         11   -1    0    0    0    0 -0.00000000000E+00 -0.00000000000E+00 -0.45593999997E+02  0.45594000000E+02  0.51100000000E-03 0.  1.
    9900012    2    1    2    0    0  0.14779006895E+02  0.37706817234E+02  0.35974588550E+01  0.50528870386E+02  0.30000032026E+02 0.  0.
         12    1    1    2    0    0 -0.14779006895E+02 -0.37706817234E+02 -0.35974588550E+01  0.40659129614E+02  0.00000000000E+00 0. -1.
         11    1    3    3    0    0  0.13721455564E+02  0.26379685371E+01 -0.27526502535E+01  0.14241288723E+02  0.51100000000E-03 0. -1.
        -11    1    3    3    0    0  0.30827856027E+01  0.81890015582E+01  0.10157563140E+01  0.88088066582E+01  0.51100000000E-03 0.  1.
         12    1    3    3    0    0 -0.20252342719E+01  0.26879847139E+02  0.53343527945E+01  0.27478775006E+02  0.00000000000E+00 0. -1.
</event>
<event>
 7    1  0.4836188E-013  0.5052889E+02  0.7816164E-02  0.1300439E+00
        -11   -1    0    0    0    0  0.00000000000E+00  0.00000000000E+00  0.45593999997E+02  0.45594000000E+02  0.51100000000E-03 0.  1.
         11   -1    0    0    0    0 -0.00000000000E+00 -0.00000000000E+00 -0.45593999997E+02  0.45594000000E+02  0.51100000000E-03 0. -1.
    9900012    2    1    2    0    0  0.33415819423E+02 -0.93370247557E+00  0.23144645341E+02  0.50528887909E+02  0.30000085289E+02 0.  0.
         12    1    1    2    0    0 -0.33415819423E+02  0.93370247557E+00 -0.23144645341E+02  0.40659112091E+02  0.00000000000E+00 0. -1.
         11    1    3    3    0    0  0.19216652659E+02  0.82062915577E+01  0.23043989443E+01  0.21022207669E+02  0.51100000000E-03 0.  1.
        -11    1    3    3    0    0  0.45932075408E+01 -0.44863607809E+01  0.38280605388E+00  0.64320703747E+01  0.51100000000E-03 0. -1.
        -12    1    3    3    0    0  0.96059592233E+01 -0.46536332524E+01  0.20457440343E+02  0.23074609865E+02  0.00000000000E+00 0.  1.
</event>
<event>
 7    1  0.4836188E-013  0.5052886E+02  0.7816164E-02  0.1300439E+00
        -11   -1    0    0    0    0  0.00000000000E+00  0.00000000000E+00  0.45593999997E+02  0.45594000000E+02  0.51100000000E-03 0. -1.
         11   -1    0    0    0    0 -0.00000000000E+00 -0.00000000000E+00 -0.45593999997E+02  0.45594000000E+02  0.51100000000E-03 0.  1.
    9900012    2    1    2    0    0 -0.43800055265E+01 -0.28692335511E+02 -0.28473341172E+02  0.50528859293E+02  0.29999998307E+02 0.  0.
         12    1    1    2    0    0  0.43800055265E+01  0.28692335511E+02  0.28473341172E+02  0.40659140707E+02  0.00000000000E+00 0. -1.
         11    1    3    3    0    0  0.93050655984E+01 -0.17605031641E+02 -0.89703817349E+01  0.21840080897E+02  0.51100000000E-03 0.  1.
        -11    1    3    3    0    0 -0.60531321810E+01  0.54563003473E-01 -0.15963094378E+01  0.62603187142E+01  0.51100000000E-03 0. -1.
        -12    1    3    3    0    0 -0.76319389440E+01 -0.11141866874E+02 -0.17906650000E+02  0.22428459682E+02  0.00000000000E+00 0.  1.
</event>
<event>
 7    1  0.4836188E-013  0.5052886E+02  0.7816164E-02  0.1300439E+00
        -11   -1    0    0    0    0  0.00000000000E+00  0.00000000000E+00  0.45593999997E+02  0.45594000000E+02  0.51100000000E-03 0.  1.
         11   -1    0    0    0    0 -0.00000000000E+00 -0.00000000000E+00 -0.45593999997E+02  0.45594000000E+02  0.51100000000E-03 0. -1.
    9900012    2    1    2    0    0 -0.38203005017E+02 -0.13905032364E+02 -0.58832830685E+00  0.50528860221E+02  0.30000001128E+02 0.  0.
         12    1    1    2    0    0  0.38203005017E+02  0.13905032364E+02  0.58832830685E+00  0.40659139779E+02  0.00000000000E+00 0. -1.
         11    1    3    3    0    0 -0.17068501813E+02 -0.62308578479E+01  0.22850727125E+01  0.18313353085E+02  0.51100000000E-03 0.  1.
        -11    1    3    3    0    0 -0.11927385169E+02 -0.15693765974E+02 -0.18354118239E+00  0.19712698827E+02  0.51100000000E-03 0. -1.
         12    1    3    3    0    0 -0.92071180352E+01  0.80195914579E+01 -0.26898598370E+01  0.12502808309E+02  0.00000000000E+00 0. -1.
</event>
<event>
 7    1  0.4836188E-013  0.5052885E+02  0.7816164E-02  0.1300439E+00
        -11   -1    0    0    0    0  0.00000000000E+00  0.00000000000E+00  0.45593999997E+02  0.45594000000E+02  0.51100000000E-03 0.  1.
         11   -1    0    0    0    0 -0.00000000000E+00 -0.00000000000E+00 -0.45593999997E+02  0.45594000000E+02  0.51100000000E-03 0. -1.
    9900012    2    1    2    0    0  0.25751851879E+02  0.24882879712E+02  0.19257495326E+02  0.50528847228E+02  0.29999961633E+02 0.  0.
         12    1    1    2    0    0 -0.25751851879E+02 -0.24882879712E+02 -0.19257495326E+02  0.40659152772E+02  0.00000000000E+00 0. -1.
         11    1    3    3    0    0  0.77948739263E+01  0.11846746668E+02 -0.10844404185E+00  0.14181580536E+02  0.51100000000E-03 0. -1.
        -11    1    3    3    0    0  0.19489945852E+02  0.16317320561E+02  0.11936043587E+02  0.28081703588E+02  0.51100000000E-03 0.  1.
        -12    1    3    3    0    0 -0.15329678999E+01 -0.32811875171E+01  0.74298957809E+01  0.82655631036E+01  0.00000000000E+00 0.  1.
</event>
<event>
 7    1  0.4836188E-013  0.5052885E+02  0.7816164E-02  0.1300439E+00
        -11   -1    0    0    0    0  0.00000000000E+00  0.00000000000E+00  0.45593999997E+02  0.45594000000E+02  0.51100000000E-03 0. -1.
         11   -1    0    0    0    0 -0.00000000000E+00 -0.00000000000E+00 -0.45593999997E+02  0.45594000000E+02  0.51100000000E-03 0.  1.
    9900012    2    1    2    0    0  0.28548890372E+01 -0.26196111700E+02  0.30964169181E+02  0.50528850566E+02  0.29999971780E+02 0.  0.
         12    1    1    2    0    0 -0.28548890372E+01  0.26196111700E+02 -0.30964169181E+02  0.40659149434E+02  0.00000000000E+00 0. -1.
         11    1    3    3    0    0  0.52117223576E+01 -0.19273202791E+02  0.12499481208E+02  0.23555369377E+02  0.51100000000E-03 0.  1.
        -11    1    3    3    0    0  0.64975216522E+01 -0.21093142679E+00  0.13123709195E+02  0.14645614463E+02  0.51100000000E-03 0. -1.
         12    1    3    3    0    0 -0.88543549726E+01 -0.67119774825E+01  0.53409787779E+01  0.12327866726E+02  0.00000000000E+00 0. -1.
</event>
<event>
 7    1  0.4836188E-013  0.5052885E+02  0.7816164E-02  0.1300439E+00
        -11   -1    0    0    0    0  0.00000000000E+00  0.00000000000E+00  0.45593999997E+02  0.45594000000E+02  0.51100000000E-03 0. -1.
         11   -1    0    0    0    0 -0.00000000000E+00 -0.00000000000E+00 -0.45593999997E+02  0.45594000000E+02  0.51100000000E-03 0.  1.
    9900012    2    1    2    0    0 -0.28935344735E+01 -0.33842790169E+02 -0.22348590098E+02  0.50528850137E+02  0.29999970478E+02 0.  0.
         12    1    1    2    0    0  0.28935344735E+01  0.33842790169E+02  0.22348590098E+02  0.40659149863E+02  0.00000000000E+00 0. -1.
         11    1    3    3    0    0  0.77732169669E+00 -0.89353817810E+01  0.43484175957E+00  0.89796639251E+01  0.51100000000E-03 0. -1.
        -11    1    3    3    0    0 -0.26187413019E+01 -0.29363933301E+02 -0.22259504858E+02  0.36940275333E+02  0.51100000000E-03 0.  1.
         12    1    3    3    0    0 -0.10521148682E+01  0.44565249125E+01 -0.52392699942E+00  0.46089108792E+01  0.00000000000E+00 0. -1.
</event>
<event>
 7    1  0.4836188E-013  0.5052886E+02  0.7816164E-02  0.1300439E+00
        -11   -1    0    0    0    0  0.00000000000E+00  0.00000000000E+00  0.45593999997E+02  0.45594000000E+02  0.51100000000E-03 0. -1.
         11   -1    0    0    0    0 -0.00000000000E+00 -0.00000000000E+00 -0.45593999997E+02  0.45594000000E+02  0.51100000000E-03 0.  1.
    9900012    2    1    2    0    0 -0.37596972398E+02 -0.88942077975E+00 -0.15454512128E+02  0.50528863905E+02  0.30000012327E+02 0.  0.
         12    1    1    2    0    0  0.37596972398E+02  0.88942077975E+00  0.15454512128E+02  0.40659136095E+02  0.00000000000E+00 0. -1.
         11    1    3    3    0    0 -0.42835107022E+01 -0.86810554738E+01 -0.38737180765E+01  0.10426642800E+02  0.51100000000E-03 0. -1.
        -11    1    3    3    0    0 -0.31055101751E+02  0.25200750830E+01 -0.13635587475E+02  0.34010283287E+02  0.51100000000E-03 0.  1.
        -12    1    3    3    0    0 -0.22583599445E+01  0.52715596111E+01  0.20547934234E+01  0.60919378185E+01  0.00000000000E+00 0.  1.
</event>
<event>
 7    1  0.4836188E-013  0.5052885E+02  0.7816164E-02  0.1300439E+00
        -11   -1    0    0    0    0  0.00000000000E+00  0.00000000000E+00  0.45593999997E+02  0.45594000000E+02  0.51100000000E-03 0. -1.
         11   -1    0    0    0    0 -0.00000000000E+00 -0.00000000000E+00 -0.45593999997E+02  0.45594000000E+02  0.51100000000E-03 0.  1.
    9900012    2    1    2    0    0 -0.20968845131E+02 -0.33807799275E+02 -0.83968262499E+01  0.50528850365E+02  0.29999971170E+02 0.  0.
         12    1    1    2    0    0  0.20968845131E+02  0.33807799275E+02  0.83968262499E+01  0.40659149635E+02  0.00000000000E+00 0. -1.
         11    1    3    3    0    0  0.10079609551E+01  0.36279522975E+01 -0.36394149971E+01  0.52367322772E+01  0.51100000000E-03 0. -1.
        -11    1    3    3    0    0 -0.57366998486E+01 -0.21585901870E+02 -0.29177577237E+01  0.22524968259E+02  0.51100000000E-03 0.  1.
        -12    1    3    3    0    0 -0.16240106238E+02 -0.15849849703E+02 -0.18396535290E+01  0.22767149829E+02  0.00000000000E+00 0.  1.
</event>
<event>
 7    1  0.4836188E-013  0.5052887E+02  0.7816164E-02  0.1300439E+00
        -11   -1    0    0    0    0  0.00000000000E+00  0.00000000000E+00  0.45593999997E+02  0.45594000000E+02  0.51100000000E-03 0.  1.
         11   -1    0    0    0    0 -0.00000000000E+00 -0.00000000000E+00 -0.45593999997E+02  0.45594000000E+02  0.51100000000E-03 0. -1.
    9900012    2    1    2    0    0 -0.31233203684E+02 -0.26020528699E+02  0.76405915462E+00  0.50528871719E+02  0.30000036078E+02 0.  0.
         12    1    1    2    0    0  0.31233203684E+02  0.26020528699E+02 -0.76405915462E+00  0.40659128281E+02  0.00000000000E+00 0. -1.
         11    1    3    3    0    0 -0.57822448812E+01 -0.94238148915E-01 -0.16398025346E+01  0.60110056819E+01  0.51100000000E-03 0. -1.
        -11    1    3    3    0    0  0.28240553197E+01  0.11355299091E+01  0.43751621181E+01  0.53297992874E+01  0.51100000000E-03 0.  1.
        -12    1    3    3    0    0 -0.28275014123E+02 -0.27061820459E+02 -0.19713004288E+01  0.39188066750E+02  0.00000000000E+00 0.  1.
</event>
<event>
 7    1  0.4836188E-013  0.5052886E+02  0.7816164E-02  0.1300439E+00
        -11   -1    0    0    0    0  0.00000000000E+00  0.00000000000E+00  0.45593999997E+02  0.45594000000E+02  0.51100000000E-03 0. -1.
         11   -1    0    0    0    0 -0.00000000000E+00 -0.00000000000E+00 -0.45593999997E+02  0.45594000000E+02  0.51100000000E-03 0.  1.
    9900012    2    1    2    0    0  0.26662345144E+02 -0.29642729327E+02 -0.79745546239E+01  0.50528861150E+02  0.30000003952E+02 0.  0.
         12    1    1    2    0    0 -0.26662345144E+02  0.29642729327E+02  0.79745546239E+01  0.40659138850E+02  0.00000000000E+00 0. -1.
         11    1    3    3    0    0  0.59495145482E+01  0.88422450567E+00  0.44146037950E+00  0.60310416898E+01  0.51100000000E-03 0. -1.
        -11    1    3    3    0    0  0.20251468395E+02 -0.14138725850E+02 -0.12384372618E+02  0.27629662073E+02  0.51100000000E-03 0.  1.
         12    1    3    3    0    0  0.46136220050E+00 -0.16388227983E+02  0.39683576147E+01  0.16868157388E+02  0.00000000000E+00 0. -1.
</event>
<event>
 7    1  0.4836188E-013  0.5052884E+02  0.7816164E-02  0.1300439E+00
        -11   -1    0    0    0    0  0.00000000000E+00  0.00000000000E+00  0.45593999997E+02  0.45594000000E+02  0.51100000000E-03 0. -1.
         11   -1    0    0    0    0 -0.00000000000E+00 -0.00000000000E+00 -0.45593999997E+02  0.45594000000E+02  0.51100000000E-03 0.  1.
    9900012    2    1    2    0    0  0.17274013326E+02 -0.29582006895E+02  0.21901620755E+02  0.50528835473E+02  0.29999925903E+02 0.  0.
         12    1    1    2    0    0 -0.17274013326E+02  0.29582006895E+02 -0.21901620755E+02  0.40659164527E+02  0.00000000000E+00 0. -1.
         11    1    3    3    0    0 -0.63144626065E+01 -0.43040127526E+01  0.23193939106E+01  0.79860222988E+01  0.51100000000E-03 0. -1.
        -11    1    3    3    0    0  0.62806112015E+01 -0.15393014152E+02  0.14284815156E+02  0.21919099116E+02  0.51100000000E-03 0.  1.
        -12    1    3    3    0    0  0.17307864731E+02 -0.98849799907E+01  0.52974116894E+01  0.20623714058E+02  0.00000000000E+00 0.  1.
</event>
<event>
 7    1  0.4836188E-013  0.5052887E+02  0.7816164E-02  0.1300439E+00
        -11   -1    0    0    0    0  0.00000000000E+00  0.00000000000E+00  0.45593999997E+02  0.45594000000E+02  0.51100000000E-03 0. -1.
         11   -1    0    0    0    0 -0.00000000000E+00 -0.00000000000E+00 -0.45593999997E+02  0.45594000000E+02  0.51100000000E-03 0.  1.
    9900012    2    1    2    0    0  0.38916460176E+02  0.31904258051E+01 -0.11335562914E+02  0.50528872168E+02  0.30000037443E+02 0.  0.
         12    1    1    2    0    0 -0.38916460176E+02 -0.31904258051E+01  0.11335562914E+02  0.40659127832E+02  0.00000000000E+00 0. -1.
         11    1    3    3    0    0  0.20903815621E+02  0.77048539458E+01  0.21981077808E+01  0.22386736250E+02  0.51100000000E-03 0. -1.
        -11    1    3    3    0    0  0.45801077012E+01  0.32893512455E+00  0.36026002081E+01  0.58364641172E+01  0.51100000000E-03 0.  1.
         12    1    3    3    0    0  0.13432536853E+02 -0.48433632653E+01 -0.17136270903E+02  0.22305671801E+02  0.00000000000E+00 0. -1.
</event>
<event>
 7    1  0.4836188E-013  0.5052886E+02  0.7816164E-02  0.1300439E+00
        -11   -1    0    0    0    0  0.00000000000E+00  0.00000000000E+00  0.45593999997E+02  0.45594000000E+02  0.51100000000E-03 0. -1.
         11   -1    0    0    0    0 -0.00000000000E+00 -0.00000000000E+00 -0.45593999997E+02  0.45594000000E+02  0.51100000000E-03 0.  1.
    9900012    2    1    2    0    0 -0.13587294331E+02  0.46414867172E+01 -0.38039553239E+02  0.50528861092E+02  0.30000003774E+02 0.  0.
         12    1    1    2    0    0  0.13587294331E+02 -0.46414867172E+01  0.38039553239E+02  0.40659138908E+02  0.00000000000E+00 0. -1.
         11    1    3    3    0    0  0.48901211292E+01  0.43394544613E+01  0.14667355564E+01  0.67004076841E+01  0.51100000000E-03 0. -1.
        -11    1    3    3    0    0 -0.11495179912E+02  0.10298476874E+01 -0.19916782340E+02  0.23019078316E+02  0.51100000000E-03 0.  1.
        -12    1    3    3    0    0 -0.69822355481E+01 -0.72781543144E+00 -0.19589506454E+02  0.20809375091E+02  0.00000000000E+00 0.  1.
</event>
<event>
 7    1  0.4836188E-013  0.5052886E+02  0.7816164E-02  0.1300439E+00
        -11   -1    0    0    0    0  0.00000000000E+00  0.00000000000E+00  0.45593999997E+02  0.45594000000E+02  0.51100000000E-03 0.  1.
         11   -1    0    0    0    0 -0.00000000000E+00 -0.00000000000E+00 -0.45593999997E+02  0.45594000000E+02  0.51100000000E-03 0. -1.
    9900012    2    1    2    0    0 -0.51954104076E+01 -0.32183951811E+01  0.40197206386E+02  0.50528858862E+02  0.29999996996E+02 0.  0.
         12    1    1    2    0    0  0.51954104076E+01  0.32183951811E+01 -0.40197206386E+02  0.40659141138E+02  0.00000000000E+00 0. -1.
         11    1    3    3    0    0 -0.13674542708E+01 -0.64821354259E+01  0.31427592153E+01  0.73324584287E+01  0.51100000000E-03 0. -1.
        -11    1    3    3    0    0 -0.11726146393E+02  0.16730084339E+01  0.30793061267E+02  0.32992636890E+02  0.51100000000E-03 0.  1.
         12    1    3    3    0    0  0.78981902561E+01  0.15907318109E+01  0.62613859036E+01  0.10203763543E+02  0.00000000000E+00 0. -1.
</event>
<event>
 7    1  0.4836188E-013  0.5052884E+02  0.7816164E-02  0.1300439E+00
        -11   -1    0    0    0    0  0.00000000000E+00  0.00000000000E+00  0.45593999997E+02  0.45594000000E+02  0.51100000000E-03 0. -1.
         11   -1    0    0    0    0 -0.00000000000E+00 -0.00000000000E+00 -0.45593999997E+02  0.45594000000E+02  0.51100000000E-03 0.  1.
    9900012    2    1    2    0    0  0.25150205975E+02  0.15415431921E+02 -0.27982115617E+02  0.50528841175E+02  0.29999943236E+02 0.  0.
         12    1    1    2    0    0 -0.25150205975E+02 -0.15415431921E+02  0.27982115617E+02  0.40659158825E+02  0.00000000000E+00 0. -1.
         11    1    3    3    0    0  0.46181475768E+01 -0.50055842282E+01 -0.75137261808E+01  0.10140968489E+02  0.51100000000E-03 0. -1.
        -11    1    3    3    0    0  0.20404431424E+02  0.10307428647E+02 -0.19814703828E+02  0.30252378338E+02  0.51100000000E-03 0.  1.
        -12    1    3    3    0    0  0.12762697460E+00  0.10113587503E+02 -0.65368560853E+00  0.10135494349E+02  0.00000000000E+00 0.  1.
</event>
<event>
 7    1  0.4836188E-013  0.5052887E+02  0.7816164E-02  0.1300439E+00
        -11   -1    0    0    0    0  0.00000000000E+00  0.00000000000E+00  0.45593999997E+02  0.45594000000E+02  0.51100000000E-03 0.  1.
         11   -1    0    0    0    0 -0.00000000000E+00 -0.00000000000E+00 -0.45593999997E+02  0.45594000000E+02  0.51100000000E-03 0. -1.
    9900012    2    1    2    0    0 -0.17548261961E+02 -0.28458147518E+02  0.23137781240E+02  0.50528873365E+02  0.30000041080E+02 0.  0.
         12    1    1    2    0    0  0.17548261961E+02  0.28458147518E+02 -0.23137781240E+02  0.40659126635E+02  0.00000000000E+00 0. -1.
         11    1    3    3    0    0 -0.84183717267E+01  0.31347652947E+00  0.11862111023E+01  0.85073113910E+01  0.51100000000E-03 0. -1.
        -11    1    3    3    0    0 -0.13583039875E+02 -0.24693902942E+02  0.12557070286E+02  0.30853975906E+02  0.51100000000E-03 0.  1.
         12    1    3    3    0    0  0.44531496400E+01 -0.40777211054E+01  0.93944998516E+01  0.11167586068E+02  0.00000000000E+00 0. -1.
</event>
<event>
 7    1  0.4836188E-013  0.5052885E+02  0.7816164E-02  0.1300439E+00
        -11   -1    0    0    0    0  0.00000000000E+00  0.00000000000E+00  0.45593999997E+02  0.45594000000E+02  0.51100000000E-03 0.  1.
         11   -1    0    0    0    0 -0.00000000000E+00 -0.00000000000E+00 -0.45593999997E+02  0.45594000000E+02  0.51100000000E-03 0. -1.
    9900012    2    1    2    0    0 -0.11372723998E+02  0.38303618224E+02  0.75273274915E+01  0.50528847533E+02  0.29999962561E+02 0.  0.
         12    1    1    2    0    0  0.11372723998E+02 -0.38303618224E+02 -0.75273274915E+01  0.40659152467E+02  0.00000000000E+00 0. -1.
         11    1    3    3    0    0  0.68839366716E+01  0.17311180044E+02 -0.35049808483E+01  0.18956540550E+02  0.51100000000E-03 0. -1.
        -11    1    3    3    0    0 -0.30595112317E+01  0.10567956196E+02  0.25949679833E+01  0.11303812023E+02  0.51100000000E-03 0.  1.
         12    1    3    3    0    0 -0.15197149438E+02  0.10424481983E+02  0.84373403565E+01  0.20268494960E+02  0.00000000000E+00 0. -1.
</event>
<event>
 7    1  0.4836188E-013  0.5052885E+02  0.7816164E-02  0.1300439E+00
        -11   -1    0    0    0    0  0.00000000000E+00  0.00000000000E+00  0.45593999997E+02  0.45594000000E+02  0.51100000000E-03 0.  1.
         11   -1    0    0    0    0 -0.00000000000E+00 -0.00000000000E+00 -0.45593999997E+02  0.45594000000E+02  0.51100000000E-03 0. -1.
    9900012    2    1    2    0    0  0.33171275942E+02  0.22301919951E+02  0.74469460100E+01  0.50528853600E+02  0.29999981002E+02 0.  0.
         12    1    1    2    0    0 -0.33171275942E+02 -0.22301919951E+02 -0.74469460100E+01  0.40659146400E+02  0.00000000000E+00 0. -1.
         11    1    3    3    0    0  0.17642717108E+02  0.82206535257E+01  0.10917936181E+02  0.22316942937E+02  0.51100000000E-03 0. -1.
        -11    1    3    3    0    0  0.55331706218E+01 -0.31482895534E+01 -0.51973326854E+01  0.82182705934E+01  0.51100000000E-03 0.  1.
        -12    1    3    3    0    0  0.99953882117E+01  0.17229555979E+02  0.17263425141E+01  0.19993640069E+02  0.00000000000E+00 0.  1.
</event>
<event>
 7    1  0.4836188E-013  0.5052895E+02  0.7816164E-02  0.1300438E+00
        -11   -1    0    0    0    0  0.00000000000E+00  0.00000000000E+00  0.45593999997E+02  0.45594000000E+02  0.51100000000E-03 0.  1.
         11   -1    0    0    0    0 -0.00000000000E+00 -0.00000000000E+00 -0.45593999997E+02  0.45594000000E+02  0.51100000000E-03 0. -1.
    9900012    2    1    2    0    0 -0.35844704765E+02  0.59715716131E+01  0.18238855078E+02  0.50528949817E+02  0.30000273463E+02 0.  0.
         12    1    1    2    0    0  0.35844704765E+02 -0.59715716131E+01 -0.18238855078E+02  0.40659050183E+02  0.00000000000E+00 0. -1.
         11    1    3    3    0    0  0.26507173295E+01 -0.47258320417E+01  0.53530480555E+01  0.76167522339E+01  0.51100000000E-03 0.  1.
        -11    1    3    3    0    0 -0.10002515515E+02  0.58589621192E+01  0.90805842273E+00  0.11627653422E+02  0.51100000000E-03 0. -1.
        -12    1    3    3    0    0 -0.28492906580E+02  0.48384415356E+01  0.11977748600E+02  0.31284544161E+02  0.00000000000E+00 0.  1.
</event>
<event>
 7    1  0.4836188E-013  0.5052886E+02  0.7816164E-02  0.1300439E+00
        -11   -1    0    0    0    0  0.00000000000E+00  0.00000000000E+00  0.45593999997E+02  0.45594000000E+02  0.51100000000E-03 0.  1.
         11   -1    0    0    0    0 -0.00000000000E+00 -0.00000000000E+00 -0.45593999997E+02  0.45594000000E+02  0.51100000000E-03 0. -1.
    9900012    2    1    2    0    0 -0.29786575036E+02 -0.21095807247E+02  0.17913474940E+02  0.50528859327E+02  0.29999998412E+02 0.  0.
         12    1    1    2    0    0  0.29786575036E+02  0.21095807247E+02 -0.17913474940E+02  0.40659140673E+02  0.00000000000E+00 0. -1.
         11    1    3    3    0    0 -0.67757752105E+01 -0.57649976109E+01  0.15546399616E+02  0.17911919730E+02  0.51100000000E-03 0. -1.
        -11    1    3    3    0    0 -0.16951644800E+01  0.31041113002E+01 -0.20550243072E+01  0.40905029939E+01  0.51100000000E-03 0.  1.
        -12    1    3    3    0    0 -0.21315635346E+02 -0.18434920936E+02  0.44220996322E+01  0.28526436603E+02  0.00000000000E+00 0.  1.
</event>
<event>
 7    1  0.4836188E-013  0.5052885E+02  0.7816164E-02  0.1300439E+00
        -11   -1    0    0    0    0  0.00000000000E+00  0.00000000000E+00  0.45593999997E+02  0.45594000000E+02  0.51100000000E-03 0.  1.
         11   -1    0    0    0    0 -0.00000000000E+00 -0.00000000000E+00 -0.45593999997E+02  0.45594000000E+02  0.51100000000E-03 0. -1.
    9900012    2    1    2    0    0  0.26194514560E+02  0.29099633087E+02 -0.10964710777E+02  0.50528854396E+02  0.29999983422E+02 0.  0.
         12    1    1    2    0    0 -0.26194514560E+02 -0.29099633087E+02  0.10964710777E+02  0.40659145604E+02  0.00000000000E+00 0. -1.
         11    1    3    3    0    0  0.16428263956E+02  0.50921940887E+00 -0.73764637548E+01  0.18015531599E+02  0.51100000000E-03 0. -1.
        -11    1    3    3    0    0  0.81003235651E+01  0.75375109075E+01  0.15272030265E+00  0.11065831930E+02  0.51100000000E-03 0.  1.
         12    1    3    3    0    0  0.16659270388E+01  0.21052902771E+02 -0.37409673245E+01  0.21447490867E+02  0.00000000000E+00 0. -1.
</event>
<event>
 7    1  0.4836188E-013  0.5052886E+02  0.7816164E-02  0.1300439E+00
        -11   -1    0    0    0    0  0.00000000000E+00  0.00000000000E+00  0.45593999997E+02  0.45594000000E+02  0.51100000000E-03 0. -1.
         11   -1    0    0    0    0 -0.00000000000E+00 -0.00000000000E+00 -0.45593999997E+02  0.45594000000E+02  0.51100000000E-03 0.  1.
    9900012    2    1    2    0    0 -0.22859360525E+02 -0.26073851222E+02 -0.21231343732E+02  0.50528855422E+02  0.29999986541E+02 0.  0.
         12    1    1    2    0    0  0.22859360525E+02  0.26073851222E+02  0.21231343732E+02  0.40659144578E+02  0.00000000000E+00 0. -1.
         11    1    3    3    0    0 -0.52738366905E+01 -0.20127885398E+02 -0.15693538914E+02  0.26062085257E+02  0.51100000000E-03 0. -1.
        -11    1    3    3    0    0 -0.14623979564E+02 -0.57566031601E+00 -0.92353211762E+01  0.17305586398E+02  0.51100000000E-03 0.  1.
         12    1    3    3    0    0 -0.29615442701E+01 -0.53703055082E+01  0.36975163591E+01  0.71611837667E+01  0.00000000000E+00 0. -1.
</event>
<event>
 7    1  0.4836188E-013  0.5052886E+02  0.7816164E-02  0.1300439E+00
        -11   -1    0    0    0    0  0.00000000000E+00  0.00000000000E+00  0.45593999997E+02  0.45594000000E+02  0.51100000000E-03 0. -1.
         11   -1    0    0    0    0 -0.00000000000E+00 -0.00000000000E+00 -0.45593999997E+02  0.45594000000E+02  0.51100000000E-03 0.  1.
    9900012    2    1    2    0    0  0.12299120541E+02  0.24267915057E+02 -0.30215318462E+02  0.50528861580E+02  0.30000005257E+02 0.  0.
         12    1    1    2    0    0 -0.12299120541E+02 -0.24267915057E+02  0.30215318462E+02  0.40659138420E+02  0.00000000000E+00 0. -1.
         11    1    3    3    0    0 -0.59615251767E+01  0.69871475397E+01 -0.15311579474E+02  0.17855096735E+02  0.51100000000E-03 0.  1.
        -11    1    3    3    0    0  0.60196323636E+00  0.21013099302E+01  0.27061581372E+01  0.34786714828E+01  0.51100000000E-03 0. -1.
         12    1    3    3    0    0  0.17658682482E+02  0.15179457587E+02 -0.17609897126E+02  0.29195093362E+02  0.00000000000E+00 0. -1.
</event>
<event>
 7    1  0.4836188E-013  0.5052886E+02  0.7816164E-02  0.1300439E+00
        -11   -1    0    0    0    0  0.00000000000E+00  0.00000000000E+00  0.45593999997E+02  0.45594000000E+02  0.51100000000E-03 0. -1.
         11   -1    0    0    0    0 -0.00000000000E+00 -0.00000000000E+00 -0.45593999997E+02  0.45594000000E+02  0.51100000000E-03 0.  1.
    9900012    2    1    2    0    0 -0.35956833550E+02 -0.18200381335E+02 -0.53868489852E+01  0.50528857096E+02  0.29999991629E+02 0.  0.
         12    1    1    2    0    0  0.35956833550E+02  0.18200381335E+02  0.53868489852E+01  0.40659142904E+02  0.00000000000E+00 0. -1.
         11    1    3    3    0    0 -0.24888640025E+02 -0.12112041910E+02 -0.70722461909E+00  0.27688375331E+02  0.51100000000E-03 0. -1.
        -11    1    3    3    0    0 -0.14094151346E+02 -0.13867026299E+01 -0.80715283123E+01  0.16300847092E+02  0.51100000000E-03 0.  1.
        -12    1    3    3    0    0  0.30259578208E+01 -0.47016367947E+01  0.33919039461E+01  0.65396346735E+01  0.00000000000E+00 0.  1.
</event>
<event>
 7    1  0.4836188E-013  0.5052886E+02  0.7816164E-02  0.1300439E+00
        -11   -1    0    0    0    0  0.00000000000E+00  0.00000000000E+00  0.45593999997E+02  0.45594000000E+02  0.51100000000E-03 0. -1.
         11   -1    0    0    0    0 -0.00000000000E+00 -0.00000000000E+00 -0.45593999997E+02  0.45594000000E+02  0.51100000000E-03 0.  1.
    9900012    2    1    2    0    0 -0.38783325902E+02  0.88952040820E+01  0.83602962940E+01  0.50528861079E+02  0.30000003736E+02 0.  0.
         12    1    1    2    0    0  0.38783325902E+02 -0.88952040820E+01 -0.83602962940E+01  0.40659138921E+02  0.00000000000E+00 0. -1.
         11    1    3    3    0    0 -0.42892267030E+01 -0.25001029439E+01  0.85699039333E+01  0.99041018839E+01  0.51100000000E-03 0. -1.
        -11    1    3    3    0    0 -0.27528354443E+02  0.83048313153E+01  0.75710887849E+01  0.29733851200E+02  0.51100000000E-03 0.  1.
        -12    1    3    3    0    0 -0.69657447553E+01  0.30904757106E+01 -0.77806964242E+01  0.10890907995E+02  0.00000000000E+00 0.  1.
</event>
<event>
 7    1  0.4836188E-013  0.5052886E+02  0.7816164E-02  0.1300439E+00
        -11   -1    0    0    0    0  0.00000000000E+00  0.00000000000E+00  0.45593999997E+02  0.45594000000E+02  0.51100000000E-03 0. -1.
         11   -1    0    0    0    0 -0.00000000000E+00 -0.00000000000E+00 -0.45593999997E+02  0.45594000000E+02  0.51100000000E-03 0.  1.
    9900012    2    1    2    0    0 -0.12331312692E+01  0.24066166529E+02  0.32748506123E+02  0.50528860346E+02  0.30000001506E+02 0.  0.
         12    1    1    2    0    0  0.12331312692E+01 -0.24066166529E+02 -0.32748506123E+02  0.40659139654E+02  0.00000000000E+00 0. -1.
         11    1    3    3    0    0  0.99123226533E+00  0.10694229738E+02  0.15632137586E+02  0.18966096511E+02  0.51100000000E-03 0. -1.
        -11    1    3    3    0    0 -0.12131836839E+02  0.57151785653E+01  0.55395162593E+01  0.14509685447E+02  0.51100000000E-03 0.  1.
         12    1    3    3    0    0  0.99074733049E+01  0.76567582256E+01  0.11576852278E+02  0.17053078387E+02  0.00000000000E+00 0. -1.
</event>
<event>
 7    1  0.4836188E-013  0.5052886E+02  0.7816164E-02  0.1300439E+00
        -11   -1    0    0    0    0  0.00000000000E+00  0.00000000000E+00  0.45593999997E+02  0.45594000000E+02  0.51100000000E-03 0.  1.
         11   -1    0    0    0    0 -0.00000000000E+00 -0.00000000000E+00 -0.45593999997E+02  0.45594000000E+02  0.51100000000E-03 0. -1.
    9900012    2    1    2    0    0  0.89060756356E+00  0.10400872807E+02  0.39296242596E+02  0.50528855652E+02  0.29999987238E+02 0.  0.
         12    1    1    2    0    0 -0.89060756356E+00 -0.10400872807E+02 -0.39296242596E+02  0.40659144348E+02  0.00000000000E+00 0. -1.
         11    1    3    3    0    0  0.42595866154E+01 -0.28067006747E+01 -0.63535478622E+00  0.51405566602E+01  0.51100000000E-03 0.  1.
        -11    1    3    3    0    0  0.87535589246E+00  0.20726467225E+01 -0.12107315078E+01  0.25549918630E+01  0.51100000000E-03 0. -1.
        -12    1    3    3    0    0 -0.42443349443E+01  0.11134926759E+02  0.41142328890E+02  0.42833307128E+02  0.00000000000E+00 0.  1.
</event>
<event>
 7    1  0.4836188E-013  0.5052887E+02  0.7816164E-02  0.1300439E+00
        -11   -1    0    0    0    0  0.00000000000E+00  0.00000000000E+00  0.45593999997E+02  0.45594000000E+02  0.51100000000E-03 0. -1.
         11   -1    0    0    0    0 -0.00000000000E+00 -0.00000000000E+00 -0.45593999997E+02  0.45594000000E+02  0.51100000000E-03 0.  1.
    9900012    2    1    2    0    0  0.26954245432E+02 -0.19070428271E+02 -0.23726608257E+02  0.50528874080E+02  0.30000043252E+02 0.  0.
         12    1    1    2    0    0 -0.26954245432E+02  0.19070428271E+02  0.23726608257E+02  0.40659125920E+02  0.00000000000E+00 0. -1.
         11    1    3    3    0    0  0.13864167622E+02 -0.38784350567E+01 -0.10248661798E+02  0.17671798755E+02  0.51100000000E-03 0. -1.
        -11    1    3    3    0    0  0.33086935147E+01 -0.91262981042E-01 -0.14464298807E+02  0.14838184591E+02  0.51100000000E-03 0.  1.
         12    1    3    3    0    0  0.97813842960E+01 -0.15100730233E+02  0.98635234898E+00  0.18018890734E+02  0.00000000000E+00 0. -1.
</event>
<event>
 7    1  0.4836188E-013  0.5052886E+02  0.7816164E-02  0.1300439E+00
        -11   -1    0    0    0    0  0.00000000000E+00  0.00000000000E+00  0.45593999997E+02  0.45594000000E+02  0.51100000000E-03 0.  1.
         11   -1    0    0    0    0 -0.00000000000E+00 -0.00000000000E+00 -0.45593999997E+02  0.45594000000E+02  0.51100000000E-03 0. -1.
    9900012    2    1    2    0    0  0.52056245870E+01 -0.12506384049E+02  0.38336107953E+02  0.50528863975E+02  0.30000012538E+02 0.  0.
         12    1    1    2    0    0 -0.52056245870E+01  0.12506384049E+02 -0.38336107953E+02  0.40659136025E+02  0.00000000000E+00 0. -1.
         11    1    3    3    0    0 -0.73816277466E+01 -0.10264885604E+02  0.87021259347E+01  0.15348723097E+02  0.51100000000E-03 0. -1.
        -11    1    3    3    0    0  0.73539251197E+01 -0.81999435280E+01  0.17911092148E+02  0.21026804577E+02  0.51100000000E-03 0.  1.
        -12    1    3    3    0    0  0.52333272139E+01  0.59584450835E+01  0.11722889870E+02  0.14153336301E+02  0.00000000000E+00 0.  1.
</event>
<event>
 7    1  0.4836188E-013  0.5052886E+02  0.7816164E-02  0.1300439E+00
        -11   -1    0    0    0    0  0.00000000000E+00  0.00000000000E+00  0.45593999997E+02  0.45594000000E+02  0.51100000000E-03 0.  1.
         11   -1    0    0    0    0 -0.00000000000E+00 -0.00000000000E+00 -0.45593999997E+02  0.45594000000E+02  0.51100000000E-03 0. -1.
    9900012    2    1    2    0    0 -0.22957411133E+02  0.18518159146E+02  0.27985724043E+02  0.50528859646E+02  0.29999999381E+02 0.  0.
         12    1    1    2    0    0  0.22957411133E+02 -0.18518159146E+02 -0.27985724043E+02  0.40659140354E+02  0.00000000000E+00 0. -1.
         11    1    3    3    0    0 -0.82543427596E+01  0.17599015412E+02  0.89793342471E+01  0.21412332000E+02  0.51100000000E-03 0. -1.
        -11    1    3    3    0    0 -0.54880086052E+00 -0.19845763376E+01 -0.24801894923E+01  0.32235176133E+01  0.51100000000E-03 0.  1.
        -12    1    3    3    0    0 -0.14154267513E+02  0.29037200715E+01  0.21486579288E+02  0.25893010033E+02  0.00000000000E+00 0.  1.
</event>
<event>
 7    1  0.4836188E-013  0.5052886E+02  0.7816164E-02  0.1300439E+00
        -11   -1    0    0    0    0  0.00000000000E+00  0.00000000000E+00  0.45593999997E+02  0.45594000000E+02  0.51100000000E-03 0.  1.
         11   -1    0    0    0    0 -0.00000000000E+00 -0.00000000000E+00 -0.45593999997E+02  0.45594000000E+02  0.51100000000E-03 0. -1.
    9900012    2    1    2    0    0  0.36043829928E+02 -0.30472732992E+00  0.18812623125E+02  0.50528864206E+02  0.30000013241E+02 0.  0.
         12    1    1    2    0    0 -0.36043829928E+02  0.30472732992E+00 -0.18812623125E+02  0.40659135794E+02  0.00000000000E+00 0. -1.
         11    1    3    3    0    0  0.79914955932E+00  0.82112982686E+01  0.77266863276E+01  0.11303350881E+02  0.51100000000E-03 0. -1.
        -11    1    3    3    0    0  0.14873923577E+02 -0.69345679365E+01  0.89211555332E+01  0.18679101996E+02  0.51100000000E-03 0.  1.
        -12    1    3    3    0    0  0.20370756792E+02 -0.15814576620E+01  0.21647812645E+01  0.20546411330E+02  0.00000000000E+00 0.  1.
</event>
<event>
 7    1  0.4836188E-013  0.5052884E+02  0.7816164E-02  0.1300439E+00
        -11   -1    0    0    0    0  0.00000000000E+00  0.00000000000E+00  0.45593999997E+02  0.45594000000E+02  0.51100000000E-03 0.  1.
         11   -1    0    0    0    0 -0.00000000000E+00 -0.00000000000E+00 -0.45593999997E+02  0.45594000000E+02  0.51100000000E-03 0. -1.
    9900012    2    1    2    0    0 -0.17264952030E+01  0.21668055519E+02  0.34361046054E+02  0.50528844800E+02  0.29999954254E+02 0.  0.
         12    1    1    2    0    0  0.17264952030E+01 -0.21668055519E+02 -0.34361046054E+02  0.40659155200E+02  0.00000000000E+00 0. -1.
         11    1    3    3    0    0  0.28911883972E+01  0.42263645719E+01  0.10915270472E+02  0.12056710064E+02  0.51100000000E-03 0.  1.
        -11    1    3    3    0    0 -0.17041044272E+01 -0.55823163564E+01  0.10196411212E+02  0.11748745876E+02  0.51100000000E-03 0. -1.
         12    1    3    3    0    0 -0.29135791729E+01  0.23024007304E+02  0.13249364370E+02  0.26723388859E+02  0.00000000000E+00 0. -1.
</event>
<event>
 7    1  0.4836188E-013  0.5052888E+02  0.7816164E-02  0.1300439E+00
        -11   -1    0    0    0    0  0.00000000000E+00  0.00000000000E+00  0.45593999997E+02  0.45594000000E+02  0.51100000000E-03 0.  1.
         11   -1    0    0    0    0 -0.00000000000E+00 -0.00000000000E+00 -0.45593999997E+02  0.45594000000E+02  0.51100000000E-03 0. -1.
    9900012    2    1    2    0    0  0.86561234432E+01  0.17017591268E+01  0.39690549634E+02  0.50528878176E+02  0.30000055705E+02 0.  0.
         12    1    1    2    0    0 -0.86561234432E+01 -0.17017591268E+01 -0.39690549634E+02  0.40659121824E+02  0.00000000000E+00 0. -1.
         11    1    3    3    0    0  0.62321977924E+01 -0.35659632898E+01  0.17373299662E+02  0.18798614973E+02  0.51100000000E-03 0. -1.
        -11    1    3    3    0    0 -0.67620126007E+01 -0.19653992582E+01  0.17893893565E+02  0.19229639514E+02  0.51100000000E-03 0.  1.
         12    1    3    3    0    0  0.91859382515E+01  0.72331216747E+01  0.44233564079E+01  0.12500623690E+02  0.00000000000E+00 0. -1.
</event>
<event>
 7    1  0.4836188E-013  0.5052887E+02  0.7816164E-02  0.1300439E+00
        -11   -1    0    0    0    0  0.00000000000E+00  0.00000000000E+00  0.45593999997E+02  0.45594000000E+02  0.51100000000E-03 0.  1.
         11   -1    0    0    0    0 -0.00000000000E+00 -0.00000000000E+00 -0.45593999997E+02  0.45594000000E+02  0.51100000000E-03 0. -1.
    9900012    2    1    2    0    0 -0.68979110137E+01  0.14635430101E+02  0.37301310070E+02  0.50528871585E+02  0.30000035669E+02 0.  0.
         12    1    1    2    0    0  0.68979110137E+01 -0.14635430101E+02 -0.37301310070E+02  0.40659128415E+02  0.00000000000E+00 0. -1.
         11    1    3    3    0    0  0.48181648817E+01  0.52368153393E+00  0.68317359225E+01  0.83762504232E+01  0.51100000000E-03 0.  1.
        -11    1    3    3    0    0 -0.23348444574E+01  0.12223045836E+02  0.30105765663E+02  0.32576240952E+02  0.51100000000E-03 0. -1.
         12    1    3    3    0    0 -0.93812314381E+01  0.18887027303E+01  0.36380848385E+00  0.95763802092E+01  0.00000000000E+00 0. -1.
</event>
<event>
 7    1  0.4836188E-013  0.5052890E+02  0.7816164E-02  0.1300439E+00
        -11   -1    0    0    0    0  0.00000000000E+00  0.00000000000E+00  0.45593999997E+02  0.45594000000E+02  0.51100000000E-03 0. -1.
         11   -1    0    0    0    0 -0.00000000000E+00 -0.00000000000E+00 -0.45593999997E+02  0.45594000000E+02  0.51100000000E-03 0.  1.
    9900012    2    1    2    0    0  0.43114120156E+01 -0.24186161482E+02 -0.32397590276E+02  0.50528898479E+02  0.30000117417E+02 0.  0.
         12    1    1    2    0    0 -0.43114120156E+01  0.24186161482E+02  0.32397590276E+02  0.40659101521E+02  0.00000000000E+00 0. -1.
         11    1    3    3    0    0  0.90312234697E+01 -0.70815715963E+01 -0.12166038392E+02  0.16724955726E+02  0.51100000000E-03 0. -1.
        -11    1    3    3    0    0  0.47453811096E+01 -0.45935433001E+01 -0.16363464474E+02  0.17646026516E+02  0.51100000000E-03 0.  1.
        -12    1    3    3    0    0 -0.94651925638E+01 -0.12511046586E+02 -0.38680874100E+01  0.16157916238E+02  0.00000000000E+00 0.  1.
</event>
<event>
 7    1  0.4836188E-013  0.5052885E+02  0.7816164E-02  0.1300439E+00
        -11   -1    0    0    0    0  0.00000000000E+00  0.00000000000E+00  0.45593999997E+02  0.45594000000E+02  0.51100000000E-03 0.  1.
         11   -1    0    0    0    0 -0.00000000000E+00 -0.00000000000E+00 -0.45593999997E+02  0.45594000000E+02  0.51100000000E-03 0. -1.
    9900012    2    1    2    0    0  0.24425403195E+02  0.12739487278E+02  0.29904378751E+02  0.50528846961E+02  0.29999960824E+02 0.  0.
         12    1    1    2    0    0 -0.24425403195E+02 -0.12739487278E+02 -0.29904378751E+02  0.40659153039E+02  0.00000000000E+00 0. -1.
         11    1    3    3    0    0  0.12863369002E+02  0.76401795243E+01  0.44419695967E+01  0.15606719688E+02  0.51100000000E-03 0. -1.
        -11    1    3    3    0    0 -0.10150134842E+01  0.85455487823E+01  0.33177727166E+01  0.92230294602E+01  0.51100000000E-03 0.  1.
        -12    1    3    3    0    0  0.12577047677E+02 -0.34462410282E+01  0.22144636437E+02  0.25699097813E+02  0.00000000000E+00 0.  1.
</event>
<event>
 7    1  0.4836188E-013  0.5052886E+02  0.7816164E-02  0.1300439E+00
        -11   -1    0    0    0    0  0.00000000000E+00  0.00000000000E+00  0.45593999997E+02  0.45594000000E+02  0.51100000000E-03 0.  1.
         11   -1    0    0    0    0 -0.00000000000E+00 -0.00000000000E+00 -0.45593999997E+02  0.45594000000E+02  0.51100000000E-03 0. -1.
    9900012    2    1    2    0    0  0.48378160429E+01  0.28259750763E+02  0.28829632390E+02  0.50528859810E+02  0.29999999878E+02 0.  0.
         12    1    1    2    0    0 -0.48378160429E+01 -0.28259750763E+02 -0.28829632390E+02  0.40659140190E+02  0.00000000000E+00 0. -1.
         11    1    3    3    0    0  0.20790033172E+01 -0.11337198241E+00  0.72224224145E+00  0.22038017415E+01  0.51100000000E-03 0. -1.
        -11    1    3    3    0    0 -0.70520568349E+00 -0.47853753345E+01  0.18970210851E+00  0.48407767247E+01  0.51100000000E-03 0.  1.
        -12    1    3    3    0    0  0.34640184092E+01  0.33158498080E+02  0.27917688040E+02  0.43484281344E+02  0.00000000000E+00 0.  1.
</event>
<event>
 7    1  0.4836188E-013  0.5052886E+02  0.7816164E-02  0.1300439E+00
        -11   -1    0    0    0    0  0.00000000000E+00  0.00000000000E+00  0.45593999997E+02  0.45594000000E+02  0.51100000000E-03 0.  1.
         11   -1    0    0    0    0 -0.00000000000E+00 -0.00000000000E+00 -0.45593999997E+02  0.45594000000E+02  0.51100000000E-03 0. -1.
    9900012    2    1    2    0    0  0.21071341775E+02  0.34426257388E+02  0.48986955435E+01  0.50528857609E+02  0.29999993188E+02 0.  0.
         12    1    1    2    0    0 -0.21071341775E+02 -0.34426257388E+02 -0.48986955435E+01  0.40659142391E+02  0.00000000000E+00 0. -1.
         11    1    3    3    0    0  0.11313793704E+02  0.87395702236E+01  0.17182502768E+01  0.14399111082E+02  0.51100000000E-03 0. -1.
        -11    1    3    3    0    0  0.13493794246E+02  0.86065490858E+01  0.81400163356E+01  0.17955919262E+02  0.51100000000E-03 0.  1.
         12    1    3    3    0    0 -0.37362461755E+01  0.17080138079E+02 -0.49595710689E+01  0.18173827265E+02  0.00000000000E+00 0. -1.
</event>
<event>
 7    1  0.4836188E-013  0.5052886E+02  0.7816164E-02  0.1300439E+00
        -11   -1    0    0    0    0  0.00000000000E+00  0.00000000000E+00  0.45593999997E+02  0.45594000000E+02  0.51100000000E-03 0. -1.
         11   -1    0    0    0    0 -0.00000000000E+00 -0.00000000000E+00 -0.45593999997E+02  0.45594000000E+02  0.51100000000E-03 0.  1.
    9900012    2    1    2    0    0  0.21612776897E+02  0.29115977084E+02 -0.18393306525E+02  0.50528856236E+02  0.29999989013E+02 0.  0.
         12    1    1    2    0    0 -0.21612776897E+02 -0.29115977084E+02  0.18393306525E+02  0.40659143764E+02  0.00000000000E+00 0. -1.
         11    1    3    3    0    0 -0.64386388396E+01  0.58758189596E+01 -0.81831195420E+01  0.11955950997E+02  0.51100000000E-03 0. -1.
        -11    1    3    3    0    0  0.14721172401E+02  0.11414506919E+02 -0.90645693603E+01  0.20716425923E+02  0.51100000000E-03 0.  1.
        -12    1    3    3    0    0  0.13330243335E+02  0.11825651205E+02 -0.11456176229E+01  0.17856479315E+02  0.00000000000E+00 0.  1.
</event>
<event>
 7    1  0.4836188E-013  0.5052885E+02  0.7816164E-02  0.1300439E+00
        -11   -1    0    0    0    0  0.00000000000E+00  0.00000000000E+00  0.45593999997E+02  0.45594000000E+02  0.51100000000E-03 0.  1.
         11   -1    0    0    0    0 -0.00000000000E+00 -0.00000000000E+00 -0.45593999997E+02  0.45594000000E+02  0.51100000000E-03 0. -1.
    9900012    2    1    2    0    0 -0.33198602506E+02 -0.12755130428E+02  0.19705990881E+02  0.50528848051E+02  0.29999964137E+02 0.  0.
         12    1    1    2    0    0  0.33198602506E+02  0.12755130428E+02 -0.19705990881E+02  0.40659151949E+02  0.00000000000E+00 0. -1.
         11    1    3    3    0    0 -0.53936672323E+01 -0.47941997999E+01 -0.40767316415E+00  0.72278762859E+01  0.51100000000E-03 0. -1.
        -11    1    3    3    0    0 -0.18105830720E+02 -0.13081248651E+02  0.23983430841E+01  0.22465356043E+02  0.51100000000E-03 0.  1.
        -12    1    3    3    0    0 -0.96991045533E+01  0.51203180226E+01  0.17715320961E+02  0.20835615723E+02  0.00000000000E+00 0.  1.
</event>
<event>
 7    1  0.4836188E-013  0.5052886E+02  0.7816164E-02  0.1300439E+00
        -11   -1    0    0    0    0  0.00000000000E+00  0.00000000000E+00  0.45593999997E+02  0.45594000000E+02  0.51100000000E-03 0.  1.
         11   -1    0    0    0    0 -0.00000000000E+00 -0.00000000000E+00 -0.45593999997E+02  0.45594000000E+02  0.51100000000E-03 0. -1.
    9900012    2    1    2    0    0 -0.29558610004E+02  0.46977040650E+00  0.27914751709E+02  0.50528862374E+02  0.30000007671E+02 0.  0.
         12    1    1    2    0    0  0.29558610004E+02 -0.46977040650E+00 -0.27914751709E+02  0.40659137626E+02  0.00000000000E+00 0. -1.
         11    1    3    3    0    0 -0.45100832536E+01 -0.68355104853E+01  0.17525444781E+01  0.83747517550E+01  0.51100000000E-03 0. -1.
        -11    1    3    3    0    0 -0.18284463112E+02 -0.22788146365E+01  0.23948175592E+02  0.30216381350E+02  0.51100000000E-03 0.  1.
        -12    1    3    3    0    0 -0.67640636379E+01  0.95840955284E+01  0.22140316387E+01  0.11937729269E+02  0.00000000000E+00 0.  1.
</event>
<event>
 7    1  0.4836188E-013  0.5052884E+02  0.7816164E-02  0.1300439E+00
        -11   -1    0    0    0    0  0.00000000000E+00  0.00000000000E+00  0.45593999997E+02  0.45594000000E+02  0.51100000000E-03 0. -1.
         11   -1    0    0    0    0 -0.00000000000E+00 -0.00000000000E+00 -0.45593999997E+02  0.45594000000E+02  0.51100000000E-03 0.  1.
    9900012    2    1    2    0    0  0.44997108969E+01  0.87939654982E+00 -0.40399834936E+02  0.50528838679E+02  0.29999935650E+02 0.  0.
         12    1    1    2    0    0 -0.44997108969E+01 -0.87939654982E+00  0.40399834936E+02  0.40659161321E+02  0.00000000000E+00 0. -1.
         11    1    3    3    0    0  0.48569738914E+01 -0.39279133590E+00 -0.19680647188E+02  0.20274919344E+02  0.51100000000E-03 0.  1.
        -11    1    3    3    0    0 -0.77407739369E+01  0.47820772188E+01 -0.20090066663E+02  0.22054446773E+02  0.51100000000E-03 0. -1.
         12    1    3    3    0    0  0.73835109424E+01 -0.35098893331E+01 -0.62912108502E+00  0.81994725627E+01  0.00000000000E+00 0. -1.
</event>
<event>
 7    1  0.4836188E-013  0.5052886E+02  0.7816164E-02  0.1300439E+00
        -11   -1    0    0    0    0  0.00000000000E+00  0.00000000000E+00  0.45593999997E+02  0.45594000000E+02  0.51100000000E-03 0. -1.
         11   -1    0    0    0    0 -0.00000000000E+00 -0.00000000000E+00 -0.45593999997E+02  0.45594000000E+02  0.51100000000E-03 0.  1.
    9900012    2    1    2    0    0 -0.39772985342E+02 -0.81952310776E+01  0.20282453537E+01  0.50528856444E+02  0.29999989648E+02 0.  0.
         12    1    1    2    0    0  0.39772985342E+02  0.81952310776E+01 -0.20282453537E+01  0.40659143556E+02  0.00000000000E+00 0. -1.
         11    1    3    3    0    0 -0.12476116201E+02  0.22815174677E+01  0.10178747463E+02  0.16262401348E+02  0.51100000000E-03 0. -1.
        -11    1    3    3    0    0 -0.25249143825E+02 -0.11284236111E+02 -0.19934147406E+01  0.27727728920E+02  0.51100000000E-03 0.  1.
        -12    1    3    3    0    0 -0.20477253166E+01  0.80748756531E+00 -0.61570873689E+01  0.65387261763E+01  0.00000000000E+00 0.  1.
</event>
<event>
 7    1  0.4836188E-013  0.5052886E+02  0.7816164E-02  0.1300439E+00
        -11   -1    0    0    0    0  0.00000000000E+00  0.00000000000E+00  0.45593999997E+02  0.45594000000E+02  0.51100000000E-03 0. -1.
         11   -1    0    0    0    0 -0.00000000000E+00 -0.00000000000E+00 -0.45593999997E+02  0.45594000000E+02  0.51100000000E-03 0.  1.
    9900012    2    1    2    0    0  0.26595783568E+02  0.29047782416E+02 -0.10102295562E+02  0.50528859053E+02  0.29999997579E+02 0.  0.
         12    1    1    2    0    0 -0.26595783568E+02 -0.29047782416E+02  0.10102295562E+02  0.40659140947E+02  0.00000000000E+00 0. -1.
         11    1    3    3    0    0 -0.29186077846E+01  0.13296902288E+02 -0.69998122861E+01  0.15307620787E+02  0.51100000000E-03 0. -1.
        -11    1    3    3    0    0  0.91669237087E+01  0.10555075483E+02 -0.25686335524E+01  0.14214077083E+02  0.51100000000E-03 0.  1.
        -12    1    3    3    0    0  0.20347467644E+02  0.51958046444E+01 -0.53384972326E+00  0.21007161183E+02  0.00000000000E+00 0.  1.
</event>
<event>
 7    1  0.4836188E-013  0.5052886E+02  0.7816164E-02  0.1300439E+00
        -11   -1    0    0    0    0  0.00000000000E+00  0.00000000000E+00  0.45593999997E+02  0.45594000000E+02  0.51100000000E-03 0. -1.
         11   -1    0    0    0    0 -0.00000000000E+00 -0.00000000000E+00 -0.45593999997E+02  0.45594000000E+02  0.51100000000E-03 0.  1.
    9900012    2    1    2    0    0  0.17314976219E+02 -0.35001994585E+02 -0.11323329225E+02  0.50528858209E+02  0.29999995013E+02 0.  0.
         12    1    1    2    0    0 -0.17314976219E+02  0.35001994585E+02  0.11323329225E+02  0.40659141791E+02  0.00000000000E+00 0. -1.
         11    1    3    3    0    0  0.18635366639E+00 -0.11067671300E+02 -0.39217404606E+01  0.11743428980E+02  0.51100000000E-03 0. -1.
        -11    1    3    3    0    0  0.17937069880E+02 -0.27892615094E+02 -0.38111877324E+01  0.33380557288E+02  0.51100000000E-03 0.  1.
         12    1    3    3    0    0 -0.80844732776E+00  0.39582918093E+01 -0.35904010320E+01  0.54048719411E+01  0.00000000000E+00 0. -1.
</event>
<event>
 7    1  0.4836188E-013  0.5052886E+02  0.7816164E-02  0.1300439E+00
        -11   -1    0    0    0    0  0.00000000000E+00  0.00000000000E+00  0.45593999997E+02  0.45594000000E+02  0.51100000000E-03 0.  1.
         11   -1    0    0    0    0 -0.00000000000E+00 -0.00000000000E+00 -0.45593999997E+02  0.45594000000E+02  0.51100000000E-03 0. -1.
    9900012    2    1    2    0    0  0.18890914408E+02  0.18555210728E+02  0.30854546417E+02  0.50528861705E+02  0.30000005637E+02 0.  0.
         12    1    1    2    0    0 -0.18890914408E+02 -0.18555210728E+02 -0.30854546417E+02  0.40659138295E+02  0.00000000000E+00 0. -1.
         11    1    3    3    0    0  0.15391269839E+02 -0.14801399550E+01  0.13257941651E+02  0.20367990048E+02  0.51100000000E-03 0. -1.
        -11    1    3    3    0    0 -0.32524730667E+00  0.25362561229E+01  0.10643681265E+02  0.10946521459E+02  0.51100000000E-03 0.  1.
         12    1    3    3    0    0  0.38248918765E+01  0.17499094560E+02  0.69529235011E+01  0.19214350197E+02  0.00000000000E+00 0. -1.
</event>
<event>
 7    1  0.4836188E-013  0.5052887E+02  0.7816164E-02  0.1300439E+00
        -11   -1    0    0    0    0  0.00000000000E+00  0.00000000000E+00  0.45593999997E+02  0.45594000000E+02  0.51100000000E-03 0.  1.
         11   -1    0    0    0    0 -0.00000000000E+00 -0.00000000000E+00 -0.45593999997E+02  0.45594000000E+02  0.51100000000E-03 0. -1.
    9900012    2    1    2    0    0  0.19352698986E+01  0.38943217476E+02  0.11525840786E+02  0.50528874791E+02  0.30000045413E+02 0.  0.
         12    1    1    2    0    0 -0.19352698986E+01 -0.38943217476E+02 -0.11525840786E+02  0.40659125209E+02  0.00000000000E+00 0. -1.
         11    1    3    3    0    0 -0.62256028882E+01  0.44729812854E+01 -0.27261946117E+01  0.81362049029E+01  0.51100000000E-03 0. -1.
        -11    1    3    3    0    0  0.47147709881E+01  0.91860175175E+01  0.13325774621E+02  0.16857883996E+02  0.51100000000E-03 0.  1.
         12    1    3    3    0    0  0.34461017987E+01  0.25284218673E+02  0.92626077699E+00  0.25534785892E+02  0.00000000000E+00 0. -1.
</event>
<event>
 7    1  0.4836188E-013  0.5052888E+02  0.7816164E-02  0.1300439E+00
        -11   -1    0    0    0    0  0.00000000000E+00  0.00000000000E+00  0.45593999997E+02  0.45594000000E+02  0.51100000000E-03 0.  1.
         11   -1    0    0    0    0 -0.00000000000E+00 -0.00000000000E+00 -0.45593999997E+02  0.45594000000E+02  0.51100000000E-03 0. -1.
    9900012    2    1    2    0    0  0.21177982403E+02 -0.23906290455E+01  0.34625746767E+02  0.50528875747E+02  0.30000048320E+02 0.  0.
         12    1    1    2    0    0 -0.21177982403E+02  0.23906290455E+01 -0.34625746767E+02  0.40659124253E+02  0.00000000000E+00 0. -1.
         11    1    3    3    0    0 -0.23645887994E+01 -0.51194547548E+01  0.12358043891E+02  0.13583863451E+02  0.51100000000E-03 0. -1.
        -11    1    3    3    0    0  0.10706159406E+02 -0.73755443968E+01  0.80732991199E+01  0.15303550677E+02  0.51100000000E-03 0.  1.
         12    1    3    3    0    0  0.12836411796E+02  0.10104370106E+02  0.14194403756E+02  0.21641461619E+02  0.00000000000E+00 0. -1.
</event>
<event>
 7    1  0.4836188E-013  0.5052888E+02  0.7816164E-02  0.1300439E+00
        -11   -1    0    0    0    0  0.00000000000E+00  0.00000000000E+00  0.45593999997E+02  0.45594000000E+02  0.51100000000E-03 0. -1.
         11   -1    0    0    0    0 -0.00000000000E+00 -0.00000000000E+00 -0.45593999997E+02  0.45594000000E+02  0.51100000000E-03 0.  1.
    9900012    2    1    2    0    0  0.20644565834E+01 -0.26062131956E+02 -0.31139484672E+02  0.50528877915E+02  0.30000054912E+02 0.  0.
         12    1    1    2    0    0 -0.20644565834E+01  0.26062131956E+02  0.31139484672E+02  0.40659122085E+02  0.00000000000E+00 0. -1.
         11    1    3    3    0    0  0.97759903461E-01 -0.17074332875E+02 -0.60684543932E+01  0.18120942004E+02  0.51100000000E-03 0. -1.
        -11    1    3    3    0    0  0.68396466926E+01  0.30633902726E+01 -0.81804995709E+01  0.11094399503E+02  0.51100000000E-03 0.  1.
         12    1    3    3    0    0 -0.48729500126E+01 -0.12051189354E+02 -0.16890530708E+02  0.21313536409E+02  0.00000000000E+00 0. -1.
</event>
<event>
 7    1  0.4836188E-013  0.5052886E+02  0.7816164E-02  0.1300439E+00
        -11   -1    0    0    0    0  0.00000000000E+00  0.00000000000E+00  0.45593999997E+02  0.45594000000E+02  0.51100000000E-03 0.  1.
         11   -1    0    0    0    0 -0.00000000000E+00 -0.00000000000E+00 -0.45593999997E+02  0.45594000000E+02  0.51100000000E-03 0. -1.
    9900012    2    1    2    0    0  0.29672649128E+02 -0.18508027353E+02  0.20740115134E+02  0.50528861316E+02  0.30000004455E+02 0.  0.
         12    1    1    2    0    0 -0.29672649128E+02  0.18508027353E+02 -0.20740115134E+02  0.40659138684E+02  0.00000000000E+00 0. -1.
         11    1    3    3    0    0  0.88507732375E+01 -0.87892271743E+01  0.14197021260E+02  0.18898203992E+02  0.51100000000E-03 0. -1.
        -11    1    3    3    0    0  0.95810344731E+01  0.30340546208E+01  0.10115918345E+02  0.14259506066E+02  0.51100000000E-03 0.  1.
         12    1    3    3    0    0  0.11240841418E+02 -0.12752854799E+02 -0.35728244707E+01  0.17371151258E+02  0.00000000000E+00 0. -1.
</event>
<event>
 7    1  0.4836188E-013  0.5052886E+02  0.7816164E-02  0.1300439E+00
        -11   -1    0    0    0    0  0.00000000000E+00  0.00000000000E+00  0.45593999997E+02  0.45594000000E+02  0.51100000000E-03 0.  1.
         11   -1    0    0    0    0 -0.00000000000E+00 -0.00000000000E+00 -0.45593999997E+02  0.45594000000E+02  0.51100000000E-03 0. -1.
    9900012    2    1    2    0    0  0.17934668761E+02 -0.25489840634E+02  0.26110942055E+02  0.50528860632E+02  0.30000002377E+02 0.  0.
         12    1    1    2    0    0 -0.17934668761E+02  0.25489840634E+02 -0.26110942055E+02  0.40659139368E+02  0.00000000000E+00 0. -1.
         11    1    3    3    0    0  0.21434028495E+02 -0.18561123130E+02  0.15756460979E+02  0.32437616007E+02  0.51100000000E-03 0. -1.
        -11    1    3    3    0    0  0.14950569980E+01  0.21281863119E+01 -0.95032860406E+00  0.27690245796E+01  0.51100000000E-03 0.  1.
         12    1    3    3    0    0 -0.49944167316E+01 -0.90569038163E+01  0.11304809680E+02  0.15322220046E+02  0.00000000000E+00 0. -1.
</event>
<event>
 7    1  0.4836188E-013  0.5052881E+02  0.7816164E-02  0.1300439E+00
        -11   -1    0    0    0    0  0.00000000000E+00  0.00000000000E+00  0.45593999997E+02  0.45594000000E+02  0.51100000000E-03 0. -1.
         11   -1    0    0    0    0 -0.00000000000E+00 -0.00000000000E+00 -0.45593999997E+02  0.45594000000E+02  0.51100000000E-03 0.  1.
    9900012    2    1    2    0    0  0.24976474673E+02 -0.29607376641E+02 -0.12359165407E+02  0.50528806596E+02  0.29999838130E+02 0.  0.
         12    1    1    2    0    0 -0.24976474673E+02  0.29607376641E+02  0.12359165407E+02  0.40659193404E+02  0.00000000000E+00 0. -1.
         11    1    3    3    0    0  0.25616843716E+02 -0.28138571564E+02 -0.83203822800E+01  0.38951645064E+02  0.51100000000E-03 0. -1.
        -11    1    3    3    0    0  0.93912785637E+00 -0.52275598856E+01 -0.51008464066E+01  0.73639648161E+01  0.51100000000E-03 0.  1.
        -12    1    3    3    0    0 -0.15794968991E+01  0.37587548084E+01  0.10620632795E+01  0.42131967167E+01  0.00000000000E+00 0.  1.
</event>
<event>
 7    1  0.4836188E-013  0.5052885E+02  0.7816164E-02  0.1300439E+00
        -11   -1    0    0    0    0  0.00000000000E+00  0.00000000000E+00  0.45593999997E+02  0.45594000000E+02  0.51100000000E-03 0. -1.
         11   -1    0    0    0    0 -0.00000000000E+00 -0.00000000000E+00 -0.45593999997E+02  0.45594000000E+02  0.51100000000E-03 0.  1.
    9900012    2    1    2    0    0  0.40440142913E+02 -0.17957544462E+01  0.38126575976E+01  0.50528852803E+02  0.29999978580E+02 0.  0.
         12    1    1    2    0    0 -0.40440142913E+02  0.17957544462E+01 -0.38126575976E+01  0.40659147197E+02  0.00000000000E+00 0. -1.
         11    1    3    3    0    0 -0.27460908822E+00 -0.17440842611E+01  0.80710155618E+01  0.82618722164E+01  0.51100000000E-03 0. -1.
        -11    1    3    3    0    0  0.54494092611E+01  0.34025683009E+01  0.79839470350E+00  0.64738679860E+01  0.51100000000E-03 0.  1.
         12    1    3    3    0    0  0.35265342740E+02 -0.34542384859E+01 -0.50567526677E+01  0.35793112600E+02  0.00000000000E+00 0. -1.
</event>
<event>
 7    1  0.5974216E-013  0.5052886E+02  0.7816164E-02  0.1300439E+00
        -11   -1    0    0    0    0  0.00000000000E+00  0.00000000000E+00  0.45593999997E+02  0.45594000000E+02  0.51100000000E-03 0.  1.
         11   -1    0    0    0    0 -0.00000000000E+00 -0.00000000000E+00 -0.45593999997E+02  0.45594000000E+02  0.51100000000E-03 0. -1.
    9900012    2    1    2    0    0 -0.32451218258E+02  0.43962416773E+01  0.24098898045E+02  0.50528863335E+02  0.30000010595E+02 0.  0.
         12    1    1    2    0    0  0.32451218258E+02 -0.43962416773E+01 -0.24098898045E+02  0.40659136665E+02  0.00000000000E+00 0. -1.
         11    1    3    3    0    0  0.11219930883E+00  0.52661471089E+00 -0.21815179699E+01  0.22469830112E+01  0.51100000000E-03 0. -1.
        -11    1    3    3    0    0 -0.23667081165E+02  0.97000280796E+01  0.74257681119E+01  0.26633875195E+02  0.51100000000E-03 0.  1.
        -12    1    3    3    0    0 -0.88963364021E+01 -0.58304011132E+01  0.18854647903E+02  0.21648005129E+02  0.00000000000E+00 0.  1.
</event>
<event>
 7    1  0.4836188E-013  0.5052887E+02  0.7816164E-02  0.1300439E+00
        -11   -1    0    0    0    0  0.00000000000E+00  0.00000000000E+00  0.45593999997E+02  0.45594000000E+02  0.51100000000E-03 0.  1.
         11   -1    0    0    0    0 -0.00000000000E+00 -0.00000000000E+00 -0.45593999997E+02  0.45594000000E+02  0.51100000000E-03 0. -1.
    9900012    2    1    2    0    0 -0.30100371730E+02 -0.26578244180E+02  0.63819397290E+01  0.50528873144E+02  0.30000040409E+02 0.  0.
         12    1    1    2    0    0  0.30100371730E+02  0.26578244180E+02 -0.63819397290E+01  0.40659126856E+02  0.00000000000E+00 0. -1.
         11    1    3    3    0    0 -0.44272705840E+01 -0.56231539708E+00 -0.65538771309E+01  0.79290749232E+01  0.51100000000E-03 0. -1.
        -11    1    3    3    0    0  0.26218314792E+01 -0.35106464066E+01  0.20881869838E+01  0.48537782848E+01  0.51100000000E-03 0.  1.
        -12    1    3    3    0    0 -0.28294932625E+02 -0.22505282377E+02  0.10847629876E+02  0.37746019936E+02  0.00000000000E+00 0.  1.
</event>
<event>
 7    1  0.4836188E-013  0.5052888E+02  0.7816164E-02  0.1300439E+00
        -11   -1    0    0    0    0  0.00000000000E+00  0.00000000000E+00  0.45593999997E+02  0.45594000000E+02  0.51100000000E-03 0. -1.
         11   -1    0    0    0    0 -0.00000000000E+00 -0.00000000000E+00 -0.45593999997E+02  0.45594000000E+02  0.51100000000E-03 0.  1.
    9900012    2    1    2    0    0 -0.87456478562E+01 -0.33647882167E+02 -0.21083121860E+02  0.50528876078E+02  0.30000049327E+02 0.  0.
         12    1    1    2    0    0  0.87456478562E+01  0.33647882167E+02  0.21083121860E+02  0.40659123922E+02  0.00000000000E+00 0. -1.
         11    1    3    3    0    0 -0.50615296583E+01  0.68029602920E+00  0.19109332907E+01  0.54528480148E+01  0.51100000000E-03 0. -1.
        -11    1    3    3    0    0  0.19717416084E+01  0.13369007928E+01 -0.24009910377E+00  0.23943091991E+01  0.51100000000E-03 0.  1.
        -12    1    3    3    0    0 -0.56558598063E+01 -0.35665078989E+02 -0.22753956047E+02  0.42681718864E+02  0.00000000000E+00 0.  1.
</event>
<event>
 7    1  0.4836188E-013  0.5052891E+02  0.7816164E-02  0.1300439E+00
        -11   -1    0    0    0    0  0.00000000000E+00  0.00000000000E+00  0.45593999997E+02  0.45594000000E+02  0.51100000000E-03 0.  1.
         11   -1    0    0    0    0 -0.00000000000E+00 -0.00000000000E+00 -0.45593999997E+02  0.45594000000E+02  0.51100000000E-03 0. -1.
    9900012    2    1    2    0    0  0.25474160698E+02  0.27882174055E+02  0.15060321581E+02  0.50528907789E+02  0.30000145715E+02 0.  0.
         12    1    1    2    0    0 -0.25474160698E+02 -0.27882174055E+02 -0.15060321581E+02  0.40659092211E+02  0.00000000000E+00 0. -1.
         11    1    3    3    0    0  0.62781270960E+01  0.12237897407E+02  0.94382287903E+01  0.16681162302E+02  0.51100000000E-03 0. -1.
        -11    1    3    3    0    0  0.21111426581E+02  0.10109907665E+02 -0.28163802863E+01  0.23576143948E+02  0.51100000000E-03 0.  1.
         12    1    3    3    0    0 -0.19153929789E+01  0.55343689830E+01  0.84384730774E+01  0.10271601539E+02  0.00000000000E+00 0. -1.
</event>
<event>
 7    1  0.4836188E-013  0.5052886E+02  0.7816164E-02  0.1300439E+00
        -11   -1    0    0    0    0  0.00000000000E+00  0.00000000000E+00  0.45593999997E+02  0.45594000000E+02  0.51100000000E-03 0. -1.
         11   -1    0    0    0    0 -0.00000000000E+00 -0.00000000000E+00 -0.45593999997E+02  0.45594000000E+02  0.51100000000E-03 0.  1.
    9900012    2    1    2    0    0  0.17503632185E+02  0.25476120372E+02 -0.26415063502E+02  0.50528862912E+02  0.30000009308E+02 0.  0.
         12    1    1    2    0    0 -0.17503632185E+02 -0.25476120372E+02  0.26415063502E+02  0.40659137088E+02  0.00000000000E+00 0. -1.
         11    1    3    3    0    0  0.13116858827E+02  0.15167876120E+02 -0.14455880382E+02  0.24720212972E+02  0.51100000000E-03 0. -1.
        -11    1    3    3    0    0  0.63457160698E+01  0.47537945112E+01 -0.16543262297E+02  0.18345195622E+02  0.51100000000E-03 0.  1.
         12    1    3    3    0    0 -0.19589427110E+01  0.55544497407E+01  0.45840791776E+01  0.74634543192E+01  0.00000000000E+00 0. -1.
</event>
<event>
 7    1  0.4836188E-013  0.5052886E+02  0.7816164E-02  0.1300439E+00
        -11   -1    0    0    0    0  0.00000000000E+00  0.00000000000E+00  0.45593999997E+02  0.45594000000E+02  0.51100000000E-03 0.  1.
         11   -1    0    0    0    0 -0.00000000000E+00 -0.00000000000E+00 -0.45593999997E+02  0.45594000000E+02  0.51100000000E-03 0. -1.
    9900012    2    1    2    0    0  0.19522521307E+02  0.94723329184E+01  0.34384758931E+02  0.50528861103E+02  0.30000003809E+02 0.  0.
         12    1    1    2    0    0 -0.19522521307E+02 -0.94723329184E+01 -0.34384758931E+02  0.40659138897E+02  0.00000000000E+00 0. -1.
         11    1    3    3    0    0 -0.46893447568E+01 -0.10484019898E+01  0.72264984138E+01  0.86782129823E+01  0.51100000000E-03 0. -1.
        -11    1    3    3    0    0  0.59357626671E+01 -0.49194272416E+01  0.46570161228E+01  0.90067664706E+01  0.51100000000E-03 0.  1.
         12    1    3    3    0    0  0.18276103396E+02  0.15440162150E+02  0.22501244394E+02  0.32843881650E+02  0.00000000000E+00 0. -1.
</event>
<event>
 7    1  0.4836188E-013  0.5052885E+02  0.7816164E-02  0.1300439E+00
        -11   -1    0    0    0    0  0.00000000000E+00  0.00000000000E+00  0.45593999997E+02  0.45594000000E+02  0.51100000000E-03 0. -1.
         11   -1    0    0    0    0 -0.00000000000E+00 -0.00000000000E+00 -0.45593999997E+02  0.45594000000E+02  0.51100000000E-03 0.  1.
    9900012    2    1    2    0    0 -0.24660774951E+02 -0.49474410652E+01 -0.31945818628E+02  0.50528851926E+02  0.29999975916E+02 0.  0.
         12    1    1    2    0    0  0.24660774951E+02  0.49474410652E+01  0.31945818628E+02  0.40659148074E+02  0.00000000000E+00 0. -1.
         11    1    3    3    0    0 -0.41371942968E+01  0.88557065172E+01  0.13571918945E+00  0.97753943413E+01  0.51100000000E-03 0.  1.
        -11    1    3    3    0    0 -0.73164145090E+01 -0.73112656827E+01 -0.14778124094E+02  0.18038222727E+02  0.51100000000E-03 0. -1.
        -12    1    3    3    0    0 -0.13207166145E+02 -0.64918818997E+01 -0.17303413723E+02  0.22715234858E+02  0.00000000000E+00 0.  1.
</event>
<event>
 7    1  0.4836188E-013  0.5052886E+02  0.7816164E-02  0.1300439E+00
        -11   -1    0    0    0    0  0.00000000000E+00  0.00000000000E+00  0.45593999997E+02  0.45594000000E+02  0.51100000000E-03 0.  1.
         11   -1    0    0    0    0 -0.00000000000E+00 -0.00000000000E+00 -0.45593999997E+02  0.45594000000E+02  0.51100000000E-03 0. -1.
    9900012    2    1    2    0    0  0.13118248136E+02 -0.36265613716E+02  0.12879528717E+02  0.50528862868E+02  0.30000009174E+02 0.  0.
         12    1    1    2    0    0 -0.13118248136E+02  0.36265613716E+02 -0.12879528717E+02  0.40659137132E+02  0.00000000000E+00 0. -1.
         11    1    3    3    0    0 -0.46496050516E+01 -0.50397915204E+01  0.66769634642E+00  0.68894226447E+01  0.51100000000E-03 0.  1.
        -11    1    3    3    0    0  0.56022742873E+01  0.21953351285E+01  0.37169861745E+01  0.70725497523E+01  0.51100000000E-03 0. -1.
        -12    1    3    3    0    0  0.12165578900E+02 -0.33421157324E+02  0.84948461963E+01  0.36566890471E+02  0.00000000000E+00 0.  1.
</event>
<event>
 7    1  0.4836188E-013  0.5052886E+02  0.7816164E-02  0.1300439E+00
        -11   -1    0    0    0    0  0.00000000000E+00  0.00000000000E+00  0.45593999997E+02  0.45594000000E+02  0.51100000000E-03 0.  1.
         11   -1    0    0    0    0 -0.00000000000E+00 -0.00000000000E+00 -0.45593999997E+02  0.45594000000E+02  0.51100000000E-03 0. -1.
    9900012    2    1    2    0    0 -0.25697436891E+00 -0.10417013901E+01  0.40644976674E+02  0.50528864416E+02  0.30000013878E+02 0.  0.
         12    1    1    2    0    0  0.25697436891E+00  0.10417013901E+01 -0.40644976674E+02  0.40659135584E+02  0.00000000000E+00 0. -1.
         11    1    3    3    0    0 -0.59165294983E+01 -0.68226841772E+01  0.94815079176E+01  0.13094018991E+02  0.51100000000E-03 0. -1.
        -11    1    3    3    0    0  0.99179738667E+01 -0.30923433870E+01  0.11857476200E+02  0.15764787830E+02  0.51100000000E-03 0.  1.
         12    1    3    3    0    0 -0.42584187373E+01  0.88733261741E+01  0.19305992557E+02  0.21670057594E+02  0.00000000000E+00 0. -1.
</event>
<event>
 7    1  0.4836188E-013  0.5052886E+02  0.7816164E-02  0.1300439E+00
        -11   -1    0    0    0    0  0.00000000000E+00  0.00000000000E+00  0.45593999997E+02  0.45594000000E+02  0.51100000000E-03 0.  1.
         11   -1    0    0    0    0 -0.00000000000E+00 -0.00000000000E+00 -0.45593999997E+02  0.45594000000E+02  0.51100000000E-03 0. -1.
    9900012    2    1    2    0    0  0.15231925387E+02  0.28482071352E+02  0.24696667587E+02  0.50528864134E+02  0.30000013020E+02 0.  0.
         12    1    1    2    0    0 -0.15231925387E+02 -0.28482071352E+02 -0.24696667587E+02  0.40659135866E+02  0.00000000000E+00 0. -1.
         11    1    3    3    0    0  0.13918791666E+02  0.16329379039E+02  0.10976708474E+02  0.24101234624E+02  0.51100000000E-03 0. -1.
        -11    1    3    3    0    0  0.39801757123E+01  0.10570279199E+02 -0.10426345197E+01  0.11342825400E+02  0.51100000000E-03 0.  1.
        -12    1    3    3    0    0 -0.26670419912E+01  0.15824131137E+01  0.14762593633E+02  0.15084804109E+02  0.00000000000E+00 0.  1.
</event>
<event>
 7    1  0.4842760E-013  0.5052884E+02  0.7816164E-02  0.1300439E+00
        -11   -1    0    0    0    0  0.00000000000E+00  0.00000000000E+00  0.45593999997E+02  0.45594000000E+02  0.51100000000E-03 0. -1.
         11   -1    0    0    0    0 -0.00000000000E+00 -0.00000000000E+00 -0.45593999997E+02  0.45594000000E+02  0.51100000000E-03 0.  1.
    9900012    2    1    2    0    0  0.18263303537E+02 -0.12269668501E+02 -0.34191722522E+02  0.50528844694E+02  0.29999953931E+02 0.  0.
         12    1    1    2    0    0 -0.18263303537E+02  0.12269668501E+02  0.34191722522E+02  0.40659155306E+02  0.00000000000E+00 0. -1.
         11    1    3    3    0    0  0.10334821621E+00 -0.11634730886E+01 -0.15502015121E+02  0.15545958432E+02  0.51100000000E-03 0. -1.
        -11    1    3    3    0    0  0.16116602323E+02 -0.12937288816E+02 -0.22328885246E+02  0.30425276152E+02  0.51100000000E-03 0.  1.
         12    1    3    3    0    0  0.20433529978E+01  0.18310934035E+01  0.36391778451E+01  0.45576101100E+01  0.00000000000E+00 0. -1.
</event>
<event>
 7    1  0.4836188E-013  0.5052886E+02  0.7816164E-02  0.1300439E+00
        -11   -1    0    0    0    0  0.00000000000E+00  0.00000000000E+00  0.45593999997E+02  0.45594000000E+02  0.51100000000E-03 0. -1.
         11   -1    0    0    0    0 -0.00000000000E+00 -0.00000000000E+00 -0.45593999997E+02  0.45594000000E+02  0.51100000000E-03 0.  1.
    9900012    2    1    2    0    0 -0.26330979451E+02  0.29227424236E+02 -0.10276317889E+02  0.50528861843E+02  0.30000006058E+02 0.  0.
         12    1    1    2    0    0  0.26330979451E+02 -0.29227424236E+02  0.10276317889E+02  0.40659138157E+02  0.00000000000E+00 0. -1.
         11    1    3    3    0    0 -0.25166827736E+02  0.20329791269E+02 -0.12106843754E+02  0.34543382830E+02  0.51100000000E-03 0. -1.
        -11    1    3    3    0    0 -0.23771930134E+01 -0.29831485259E+01  0.13044381240E+01  0.40313497530E+01  0.51100000000E-03 0.  1.
        -12    1    3    3    0    0  0.12130412987E+01  0.11880781493E+02  0.52608774182E+00  0.11954129261E+02  0.00000000000E+00 0.  1.
</event>
<event>
 7    1  0.4836188E-013  0.5052885E+02  0.7816164E-02  0.1300439E+00
        -11   -1    0    0    0    0  0.00000000000E+00  0.00000000000E+00  0.45593999997E+02  0.45594000000E+02  0.51100000000E-03 0. -1.
         11   -1    0    0    0    0 -0.00000000000E+00 -0.00000000000E+00 -0.45593999997E+02  0.45594000000E+02  0.51100000000E-03 0.  1.
    9900012    2    1    2    0    0 -0.26280481840E+02  0.27914354139E+02  0.13538510000E+02  0.50528854095E+02  0.29999982507E+02 0.  0.
         12    1    1    2    0    0  0.26280481840E+02 -0.27914354139E+02 -0.13538510000E+02  0.40659145905E+02  0.00000000000E+00 0. -1.
         11    1    3    3    0    0 -0.18557992303E+02  0.15280366153E+02  0.14339446405E+02  0.27991219901E+02  0.51100000000E-03 0. -1.
        -11    1    3    3    0    0 -0.87646316154E+01  0.14973467676E+02  0.33400991465E+01  0.17668609571E+02  0.51100000000E-03 0.  1.
         12    1    3    3    0    0  0.10421420791E+01 -0.23394796910E+01 -0.41410355511E+01  0.48690246223E+01  0.00000000000E+00 0. -1.
</event>
<event>
 7    1  0.4836188E-013  0.5052889E+02  0.7816164E-02  0.1300439E+00
        -11   -1    0    0    0    0  0.00000000000E+00  0.00000000000E+00  0.45593999997E+02  0.45594000000E+02  0.51100000000E-03 0.  1.
         11   -1    0    0    0    0 -0.00000000000E+00 -0.00000000000E+00 -0.45593999997E+02  0.45594000000E+02  0.51100000000E-03 0. -1.
    9900012    2    1    2    0    0 -0.27294683612E+02  0.18096716027E+00  0.30135212685E+02  0.50528886063E+02  0.30000079676E+02 0.  0.
         12    1    1    2    0    0  0.27294683612E+02 -0.18096716027E+00 -0.30135212685E+02  0.40659113937E+02  0.00000000000E+00 0. -1.
         11    1    3    3    0    0 -0.89312225873E+01  0.13372699655E+01 -0.36614892187E+01  0.97448207488E+01  0.51100000000E-03 0. -1.
        -11    1    3    3    0    0  0.22066658775E+01 -0.10531889497E+00  0.27698467489E+01  0.35429532368E+01  0.51100000000E-03 0.  1.
        -12    1    3    3    0    0 -0.20570126902E+02 -0.10509839102E+01  0.31026855155E+02  0.37241112077E+02  0.00000000000E+00 0.  1.
</event>
<event>
 7    1  0.4836188E-013  0.5052886E+02  0.7816164E-02  0.1300439E+00
        -11   -1    0    0    0    0  0.00000000000E+00  0.00000000000E+00  0.45593999997E+02  0.45594000000E+02  0.51100000000E-03 0. -1.
         11   -1    0    0    0    0 -0.00000000000E+00 -0.00000000000E+00 -0.45593999997E+02  0.45594000000E+02  0.51100000000E-03 0.  1.
    9900012    2    1    2    0    0 -0.28775837880E+01 -0.37202832205E+02 -0.16150368492E+02  0.50528860622E+02  0.30000002346E+02 0.  0.
         12    1    1    2    0    0  0.28775837880E+01  0.37202832205E+02  0.16150368492E+02  0.40659139378E+02  0.00000000000E+00 0. -1.
         11    1    3    3    0    0  0.98986464838E+00 -0.36719451956E+02 -0.22289078790E+02  0.42966277679E+02  0.51100000000E-03 0.  1.
        -11    1    3    3    0    0 -0.17476107024E+01  0.16638147438E+00  0.11372078881E+01  0.20916663223E+01  0.51100000000E-03 0. -1.
        -12    1    3    3    0    0 -0.21198377339E+01 -0.64976172303E+00  0.50015024099E+01  0.54709166208E+01  0.00000000000E+00 0.  1.
</event>
<event>
 7    1  0.4836188E-013  0.5052886E+02  0.7816164E-02  0.1300439E+00
        -11   -1    0    0    0    0  0.00000000000E+00  0.00000000000E+00  0.45593999997E+02  0.45594000000E+02  0.51100000000E-03 0.  1.
         11   -1    0    0    0    0 -0.00000000000E+00 -0.00000000000E+00 -0.45593999997E+02  0.45594000000E+02  0.51100000000E-03 0. -1.
    9900012    2    1    2    0    0 -0.40385222195E+02  0.32366504131E+01  0.34239331526E+01  0.50528863317E+02  0.30000010537E+02 0.  0.
         12    1    1    2    0    0  0.40385222195E+02 -0.32366504131E+01 -0.34239331526E+01  0.40659136683E+02  0.00000000000E+00 0. -1.
         11    1    3    3    0    0 -0.14946995814E+02 -0.32738532028E+01  0.51624084270E+01  0.16148723160E+02  0.51100000000E-03 0.  1.
        -11    1    3    3    0    0 -0.24113259385E+02 -0.26419887743E+01 -0.46202406658E+01  0.24693643047E+02  0.51100000000E-03 0. -1.
        -12    1    3    3    0    0 -0.13249669955E+01  0.91524923902E+01  0.28817653913E+01  0.96864971100E+01  0.00000000000E+00 0.  1.
</event>
<event>
 7    1  0.4836188E-013  0.5052885E+02  0.7816164E-02  0.1300439E+00
        -11   -1    0    0    0    0  0.00000000000E+00  0.00000000000E+00  0.45593999997E+02  0.45594000000E+02  0.51100000000E-03 0.  1.
         11   -1    0    0    0    0 -0.00000000000E+00 -0.00000000000E+00 -0.45593999997E+02  0.45594000000E+02  0.51100000000E-03 0. -1.
    9900012    2    1    2    0    0 -0.17930076367E+02  0.31351242241E+02  0.18675619844E+02  0.50528845986E+02  0.29999957858E+02 0.  0.
         12    1    1    2    0    0  0.17930076367E+02 -0.31351242241E+02 -0.18675619844E+02  0.40659154014E+02  0.00000000000E+00 0. -1.
         11    1    3    3    0    0 -0.14224756492E+02  0.43648486106E+01  0.71617229434E+01  0.16513203094E+02  0.51100000000E-03 0. -1.
        -11    1    3    3    0    0 -0.94644494627E+01  0.17394719103E+02  0.11353591366E+02  0.22826653137E+02  0.51100000000E-03 0.  1.
         12    1    3    3    0    0  0.57591295872E+01  0.95916745280E+01  0.16030553484E+00  0.11188989754E+02  0.00000000000E+00 0. -1.
</event>
<event>
 7    1  0.4836188E-013  0.5052886E+02  0.7816164E-02  0.1300439E+00
        -11   -1    0    0    0    0  0.00000000000E+00  0.00000000000E+00  0.45593999997E+02  0.45594000000E+02  0.51100000000E-03 0.  1.
         11   -1    0    0    0    0 -0.00000000000E+00 -0.00000000000E+00 -0.45593999997E+02  0.45594000000E+02  0.51100000000E-03 0. -1.
    9900012    2    1    2    0    0  0.21837177179E+01  0.20510779342E+02  0.35038615506E+02  0.50528864878E+02  0.30000015283E+02 0.  0.
         12    1    1    2    0    0 -0.21837177179E+01 -0.20510779342E+02 -0.35038615506E+02  0.40659135122E+02  0.00000000000E+00 0. -1.
         11    1    3    3    0    0 -0.59658131397E+01  0.43441082176E+01  0.50713928021E+01  0.89543971231E+01  0.51100000000E-03 0. -1.
        -11    1    3    3    0    0 -0.51825611458E+00  0.14185733896E+01  0.23086563717E+02  0.23135910710E+02  0.51100000000E-03 0.  1.
         12    1    3    3    0    0  0.86677869722E+01  0.14748097735E+02  0.68806589869E+01  0.18438557045E+02  0.00000000000E+00 0. -1.
</event>
<event>
 7    1  0.4836188E-013  0.5052886E+02  0.7816164E-02  0.1300439E+00
        -11   -1    0    0    0    0  0.00000000000E+00  0.00000000000E+00  0.45593999997E+02  0.45594000000E+02  0.51100000000E-03 0.  1.
         11   -1    0    0    0    0 -0.00000000000E+00 -0.00000000000E+00 -0.45593999997E+02  0.45594000000E+02  0.51100000000E-03 0. -1.
    9900012    2    1    2    0    0 -0.31696354300E+02 -0.91246662312E+01  0.23774925231E+02  0.50528862288E+02  0.30000007411E+02 0.  0.
         12    1    1    2    0    0  0.31696354300E+02  0.91246662312E+01 -0.23774925231E+02  0.40659137712E+02  0.00000000000E+00 0. -1.
         11    1    3    3    0    0 -0.19647153178E+02  0.29227251152E+01  0.44800532915E+01  0.20362313912E+02  0.51100000000E-03 0. -1.
        -11    1    3    3    0    0  0.18302113763E+01 -0.11572268959E+01 -0.16932166018E+01  0.27487870948E+01  0.51100000000E-03 0.  1.
        -12    1    3    3    0    0 -0.13879412498E+02 -0.10890164450E+02  0.20988088541E+02  0.27417761281E+02  0.00000000000E+00 0.  1.
</event>
<event>
 7    1  0.4836188E-013  0.5052884E+02  0.7816164E-02  0.1300439E+00
        -11   -1    0    0    0    0  0.00000000000E+00  0.00000000000E+00  0.45593999997E+02  0.45594000000E+02  0.51100000000E-03 0. -1.
         11   -1    0    0    0    0 -0.00000000000E+00 -0.00000000000E+00 -0.45593999997E+02  0.45594000000E+02  0.51100000000E-03 0.  1.
    9900012    2    1    2    0    0  0.62180247074E+01  0.35158465882E+02 -0.19452135543E+02  0.50528841970E+02  0.29999945653E+02 0.  0.
         12    1    1    2    0    0 -0.62180247074E+01 -0.35158465882E+02  0.19452135543E+02  0.40659158030E+02  0.00000000000E+00 0. -1.
         11    1    3    3    0    0  0.14605661414E+02  0.15839046194E+02 -0.15829125207E+02  0.26735031976E+02  0.51100000000E-03 0. -1.
        -11    1    3    3    0    0 -0.51189110811E+01  0.18877101843E+01 -0.25595016194E+01  0.60264209277E+01  0.51100000000E-03 0.  1.
        -12    1    3    3    0    0 -0.32687256255E+01  0.17431709504E+02 -0.10635087170E+01  0.17767389067E+02  0.00000000000E+00 0.  1.
</event>
<event>
 7    1  0.4836188E-013  0.5052886E+02  0.7816164E-02  0.1300439E+00
        -11   -1    0    0    0    0  0.00000000000E+00  0.00000000000E+00  0.45593999997E+02  0.45594000000E+02  0.51100000000E-03 0.  1.
         11   -1    0    0    0    0 -0.00000000000E+00 -0.00000000000E+00 -0.45593999997E+02  0.45594000000E+02  0.51100000000E-03 0. -1.
    9900012    2    1    2    0    0  0.39493892878E+02  0.56180060166E+01  0.78636033648E+01  0.50528858050E+02  0.29999994529E+02 0.  0.
         12    1    1    2    0    0 -0.39493892878E+02 -0.56180060166E+01 -0.78636033648E+01  0.40659141950E+02  0.00000000000E+00 0. -1.
         11    1    3    3    0    0  0.21439938947E+02  0.12291437649E+02 -0.17117897423E+01  0.24772578508E+02  0.51100000000E-03 0. -1.
        -11    1    3    3    0    0  0.11531489615E+02 -0.19102601505E+01 -0.17781371032E+01  0.11823117964E+02  0.51100000000E-03 0.  1.
         12    1    3    3    0    0  0.65224643154E+01 -0.47631714819E+01  0.11353530210E+02  0.13933161578E+02  0.00000000000E+00 0. -1.
</event>
<event>
 7    1  0.4836188E-013  0.5052886E+02  0.7816164E-02  0.1300439E+00
        -11   -1    0    0    0    0  0.00000000000E+00  0.00000000000E+00  0.45593999997E+02  0.45594000000E+02  0.51100000000E-03 0. -1.
         11   -1    0    0    0    0 -0.00000000000E+00 -0.00000000000E+00 -0.45593999997E+02  0.45594000000E+02  0.51100000000E-03 0.  1.
    9900012    2    1    2    0    0  0.37442253856E+02 -0.15552017428E+02  0.30623658943E+01  0.50528859518E+02  0.29999998991E+02 0.  0.
         12    1    1    2    0    0 -0.37442253856E+02  0.15552017428E+02 -0.30623658943E+01  0.40659140482E+02  0.00000000000E+00 0. -1.
         11    1    3    3    0    0  0.16820725697E+02 -0.14598241126E+02 -0.85499442757E+00  0.22288482960E+02  0.51100000000E-03 0.  1.
        -11    1    3    3    0    0 -0.27523875135E+01 -0.13579208041E+01  0.37715302664E+01  0.48625123903E+01  0.51100000000E-03 0. -1.
        -12    1    3    3    0    0  0.23373915673E+02  0.40414450216E+00  0.14583005555E+00  0.23377864168E+02  0.00000000000E+00 0.  1.
</event>
<event>
 7    1  0.4836188E-013  0.5052884E+02  0.7816164E-02  0.1300439E+00
        -11   -1    0    0    0    0  0.00000000000E+00  0.00000000000E+00  0.45593999997E+02  0.45594000000E+02  0.51100000000E-03 0. -1.
         11   -1    0    0    0    0 -0.00000000000E+00 -0.00000000000E+00 -0.45593999997E+02  0.45594000000E+02  0.51100000000E-03 0.  1.
    9900012    2    1    2    0    0 -0.15108651509E+01 -0.39554249095E+02 -0.92922396713E+01  0.50528842937E+02  0.29999948592E+02 0.  0.
         12    1    1    2    0    0  0.15108651509E+01  0.39554249095E+02  0.92922396713E+01  0.40659157063E+02  0.00000000000E+00 0. -1.
         11    1    3    3    0    0  0.75355456232E+01 -0.10139969019E+02 -0.37366224515E+01  0.13174436123E+02  0.51100000000E-03 0. -1.
        -11    1    3    3    0    0  0.37600566432E+01 -0.14340764080E+02 -0.89039396818E+01  0.17293804743E+02  0.51100000000E-03 0.  1.
         12    1    3    3    0    0 -0.12806467417E+02 -0.15073515996E+02  0.33483224620E+01  0.20060602072E+02  0.00000000000E+00 0. -1.
</event>
<event>
 7    1  0.4836188E-013  0.5052886E+02  0.7816164E-02  0.1300439E+00
        -11   -1    0    0    0    0  0.00000000000E+00  0.00000000000E+00  0.45593999997E+02  0.45594000000E+02  0.51100000000E-03 0. -1.
         11   -1    0    0    0    0 -0.00000000000E+00 -0.00000000000E+00 -0.45593999997E+02  0.45594000000E+02  0.51100000000E-03 0.  1.
    9900012    2    1    2    0    0 -0.16551424202E+02  0.34445363476E+02 -0.13882837090E+02  0.50528857439E+02  0.29999992673E+02 0.  0.
         12    1    1    2    0    0  0.16551424202E+02 -0.34445363476E+02  0.13882837090E+02  0.40659142561E+02  0.00000000000E+00 0. -1.
         11    1    3    3    0    0  0.21775986543E+01  0.14682088322E+02 -0.55706122321E+00  0.14853146834E+02  0.51100000000E-03 0. -1.
        -11    1    3    3    0    0 -0.56594774616E+01  0.16612440260E+02 -0.13641195251E+02  0.22228024309E+02  0.51100000000E-03 0.  1.
        -12    1    3    3    0    0 -0.13069545395E+02  0.31508348940E+01  0.31541938458E+00  0.13447686297E+02  0.00000000000E+00 0.  1.
</event>
<event>
 7    1  0.4836188E-013  0.5052886E+02  0.7816164E-02  0.1300439E+00
        -11   -1    0    0    0    0  0.00000000000E+00  0.00000000000E+00  0.45593999997E+02  0.45594000000E+02  0.51100000000E-03 0.  1.
         11   -1    0    0    0    0 -0.00000000000E+00 -0.00000000000E+00 -0.45593999997E+02  0.45594000000E+02  0.51100000000E-03 0. -1.
    9900012    2    1    2    0    0  0.92806663163E+01 -0.23190708447E+02  0.32081552557E+02  0.50528859084E+02  0.29999997671E+02 0.  0.
         12    1    1    2    0    0 -0.92806663163E+01  0.23190708447E+02 -0.32081552557E+02  0.40659140916E+02  0.00000000000E+00 0. -1.
         11    1    3    3    0    0  0.56938179578E+01 -0.45204589234E+01  0.17202936576E+01  0.74708448214E+01  0.51100000000E-03 0. -1.
        -11    1    3    3    0    0  0.54006607670E+01 -0.89746430906E+01  0.31436709267E+02  0.33135751766E+02  0.51100000000E-03 0.  1.
         12    1    3    3    0    0 -0.18138124086E+01 -0.96956064327E+01 -0.10754503670E+01  0.99222624962E+01  0.00000000000E+00 0. -1.
</event>
<event>
 7    1  0.4836188E-013  0.5052887E+02  0.7816164E-02  0.1300439E+00
        -11   -1    0    0    0    0  0.00000000000E+00  0.00000000000E+00  0.45593999997E+02  0.45594000000E+02  0.51100000000E-03 0.  1.
         11   -1    0    0    0    0 -0.00000000000E+00 -0.00000000000E+00 -0.45593999997E+02  0.45594000000E+02  0.51100000000E-03 0. -1.
    9900012    2    1    2    0    0  0.30153701448E+02  0.13324511307E+02  0.23798673622E+02  0.50528865986E+02  0.30000018652E+02 0.  0.
         12    1    1    2    0    0 -0.30153701448E+02 -0.13324511307E+02 -0.23798673622E+02  0.40659134014E+02  0.00000000000E+00 0. -1.
         11    1    3    3    0    0  0.13642988710E+02  0.13981719993E+02  0.11710636241E+01  0.19570156493E+02  0.51100000000E-03 0. -1.
        -11    1    3    3    0    0  0.93823643550E+01 -0.19825012981E+01  0.30205283154E+01  0.10053987460E+02  0.51100000000E-03 0.  1.
        -12    1    3    3    0    0  0.71283483833E+01  0.13252926121E+01  0.19607081682E+02  0.20904722033E+02  0.00000000000E+00 0.  1.
</event>
<event>
 7    1  0.4836188E-013  0.5052886E+02  0.7816164E-02  0.1300439E+00
        -11   -1    0    0    0    0  0.00000000000E+00  0.00000000000E+00  0.45593999997E+02  0.45594000000E+02  0.51100000000E-03 0.  1.
         11   -1    0    0    0    0 -0.00000000000E+00 -0.00000000000E+00 -0.45593999997E+02  0.45594000000E+02  0.51100000000E-03 0. -1.
    9900012    2    1    2    0    0 -0.20590594368E+02  0.10481890622E+02  0.33456286284E+02  0.50528859584E+02  0.29999999191E+02 0.  0.
         12    1    1    2    0    0  0.20590594368E+02 -0.10481890622E+02 -0.33456286284E+02  0.40659140416E+02  0.00000000000E+00 0. -1.
         11    1    3    3    0    0  0.12395774643E+01 -0.20853301671E+01 -0.19921459621E+01  0.31390762958E+01  0.51100000000E-03 0. -1.
        -11    1    3    3    0    0 -0.40306680999E+01  0.13032630615E+02  0.15765218702E+02  0.20847970335E+02  0.51100000000E-03 0.  1.
         12    1    3    3    0    0 -0.17799503732E+02 -0.46540982643E+00  0.19683213544E+02  0.26541812954E+02  0.00000000000E+00 0. -1.
</event>
<event>
 7    1  0.4836188E-013  0.5052884E+02  0.7816164E-02  0.1300439E+00
        -11   -1    0    0    0    0  0.00000000000E+00  0.00000000000E+00  0.45593999997E+02  0.45594000000E+02  0.51100000000E-03 0.  1.
         11   -1    0    0    0    0 -0.00000000000E+00 -0.00000000000E+00 -0.45593999997E+02  0.45594000000E+02  0.51100000000E-03 0. -1.
    9900012    2    1    2    0    0 -0.31787634777E+02 -0.24892954804E+02  0.48014626030E+01  0.50528843999E+02  0.29999951819E+02 0.  0.
         12    1    1    2    0    0  0.31787634777E+02  0.24892954804E+02 -0.48014626030E+01  0.40659156001E+02  0.00000000000E+00 0. -1.
         11    1    3    3    0    0 -0.20264304241E+02 -0.11125169386E+02 -0.10461428457E+01  0.23140999014E+02  0.51100000000E-03 0.  1.
        -11    1    3    3    0    0 -0.37491748980E+01 -0.15399789954E+02 -0.22919819753E+01  0.16014462985E+02  0.51100000000E-03 0. -1.
         12    1    3    3    0    0 -0.77741556384E+01  0.16320045364E+01  0.81395874240E+01  0.11373382001E+02  0.00000000000E+00 0. -1.
</event>
<event>
 7    1  0.4836188E-013  0.5052885E+02  0.7816164E-02  0.1300439E+00
        -11   -1    0    0    0    0  0.00000000000E+00  0.00000000000E+00  0.45593999997E+02  0.45594000000E+02  0.51100000000E-03 0. -1.
         11   -1    0    0    0    0 -0.00000000000E+00 -0.00000000000E+00 -0.45593999997E+02  0.45594000000E+02  0.51100000000E-03 0.  1.
    9900012    2    1    2    0    0  0.40480795296E+02  0.38040459788E+01 -0.34099132729E-01  0.50528847077E+02  0.29999961177E+02 0.  0.
         12    1    1    2    0    0 -0.40480795296E+02 -0.38040459788E+01  0.34099132729E-01  0.40659152923E+02  0.00000000000E+00 0. -1.
         11    1    3    3    0    0  0.21048943016E+02  0.11044914780E+02  0.61920601941E+01  0.24563993045E+02  0.51100000000E-03 0. -1.
        -11    1    3    3    0    0  0.33924539733E+01 -0.78707005045E+01  0.44448605356E+00  0.85822047579E+01  0.51100000000E-03 0.  1.
        -12    1    3    3    0    0  0.16039398307E+02  0.62983170317E+00 -0.66706453804E+01  0.17382649275E+02  0.00000000000E+00 0.  1.
</event>
<event>
 7    1  0.4836188E-013  0.5052877E+02  0.7816164E-02  0.1300439E+00
        -11   -1    0    0    0    0  0.00000000000E+00  0.00000000000E+00  0.45593999997E+02  0.45594000000E+02  0.51100000000E-03 0. -1.
         11   -1    0    0    0    0 -0.00000000000E+00 -0.00000000000E+00 -0.45593999997E+02  0.45594000000E+02  0.51100000000E-03 0.  1.
    9900012    2    1    2    0    0 -0.27728882934E+02  0.29436983857E+02 -0.42125931478E+01  0.50528770932E+02  0.29999729724E+02 0.  0.
         12    1    1    2    0    0  0.27728882934E+02 -0.29436983857E+02  0.42125931478E+01  0.40659229068E+02  0.00000000000E+00 0. -1.
         11    1    3    3    0    0 -0.40903964841E+01  0.19055895721E+02 -0.70061845414E+01  0.20710990493E+02  0.51100000000E-03 0. -1.
        -11    1    3    3    0    0  0.17294790099E+01 -0.70027787506E+00  0.89679678703E+00  0.20702008323E+01  0.51100000000E-03 0.  1.
        -12    1    3    3    0    0 -0.25367965460E+02  0.11081366011E+02  0.18967946065E+01  0.27747579607E+02  0.00000000000E+00 0.  1.
</event>
<event>
 7    1  0.4836188E-013  0.5052886E+02  0.7816164E-02  0.1300439E+00
        -11   -1    0    0    0    0  0.00000000000E+00  0.00000000000E+00  0.45593999997E+02  0.45594000000E+02  0.51100000000E-03 0.  1.
         11   -1    0    0    0    0 -0.00000000000E+00 -0.00000000000E+00 -0.45593999997E+02  0.45594000000E+02  0.51100000000E-03 0. -1.
    9900012    2    1    2    0    0  0.85336409232E+01 -0.34429266906E+02 -0.19873801951E+02  0.50528862637E+02  0.30000008473E+02 0.  0.
         12    1    1    2    0    0 -0.85336409232E+01  0.34429266906E+02  0.19873801951E+02  0.40659137363E+02  0.00000000000E+00 0. -1.
         11    1    3    3    0    0  0.15915673610E+01 -0.13054188582E+01  0.10069506544E+01  0.22915398625E+01  0.51100000000E-03 0.  1.
        -11    1    3    3    0    0  0.14006301288E+00 -0.58904554673E+01 -0.19237119212E+02  0.20119240520E+02  0.51100000000E-03 0. -1.
        -12    1    3    3    0    0  0.68020105494E+01 -0.27233392580E+02 -0.16436333933E+01  0.28118082255E+02  0.00000000000E+00 0.  1.
</event>
<event>
 7    1  0.4836188E-013  0.5052885E+02  0.7816164E-02  0.1300439E+00
        -11   -1    0    0    0    0  0.00000000000E+00  0.00000000000E+00  0.45593999997E+02  0.45594000000E+02  0.51100000000E-03 0. -1.
         11   -1    0    0    0    0 -0.00000000000E+00 -0.00000000000E+00 -0.45593999997E+02  0.45594000000E+02  0.51100000000E-03 0.  1.
    9900012    2    1    2    0    0 -0.19596746684E+02 -0.26727138024E+02  0.23554059200E+02  0.50528854752E+02  0.29999984503E+02 0.  0.
         12    1    1    2    0    0  0.19596746684E+02  0.26727138024E+02 -0.23554059200E+02  0.40659145248E+02  0.00000000000E+00 0. -1.
         11    1    3    3    0    0 -0.68299198078E+01 -0.16154253476E+02  0.29177341419E+01  0.17779788602E+02  0.51100000000E-03 0. -1.
        -11    1    3    3    0    0 -0.15182133781E+02 -0.98951003514E+01  0.79019505846E+01  0.19769952464E+02  0.51100000000E-03 0.  1.
         12    1    3    3    0    0  0.24153069050E+01 -0.67778419690E+00  0.12734374473E+02  0.12979113686E+02  0.00000000000E+00 0. -1.
</event>
<event>
 7    1  0.4836188E-013  0.5052887E+02  0.7816164E-02  0.1300439E+00
        -11   -1    0    0    0    0  0.00000000000E+00  0.00000000000E+00  0.45593999997E+02  0.45594000000E+02  0.51100000000E-03 0.  1.
         11   -1    0    0    0    0 -0.00000000000E+00 -0.00000000000E+00 -0.45593999997E+02  0.45594000000E+02  0.51100000000E-03 0. -1.
    9900012    2    1    2    0    0 -0.15398752266E+02 -0.18639623783E+02  0.32689571854E+02  0.50528865059E+02  0.30000015834E+02 0.  0.
         12    1    1    2    0    0  0.15398752266E+02  0.18639623783E+02 -0.32689571854E+02  0.40659134941E+02  0.00000000000E+00 0. -1.
         11    1    3    3    0    0  0.70616282683E+01 -0.11622768338E+02  0.10212248965E+02  0.17007215140E+02  0.51100000000E-03 0. -1.
        -11    1    3    3    0    0 -0.70656706229E+01  0.53535687510E+00  0.10251649854E+02  0.12462208204E+02  0.51100000000E-03 0.  1.
        -12    1    3    3    0    0 -0.15394709911E+02 -0.75522123202E+01  0.12225673035E+02  0.21059441715E+02  0.00000000000E+00 0.  1.
</event>
<event>
 7    1  0.4836188E-013  0.5052886E+02  0.7816164E-02  0.1300439E+00
        -11   -1    0    0    0    0  0.00000000000E+00  0.00000000000E+00  0.45593999997E+02  0.45594000000E+02  0.51100000000E-03 0.  1.
         11   -1    0    0    0    0 -0.00000000000E+00 -0.00000000000E+00 -0.45593999997E+02  0.45594000000E+02  0.51100000000E-03 0. -1.
    9900012    2    1    2    0    0 -0.28406692310E+02 -0.16996398465E+02  0.23608223512E+02  0.50528856549E+02  0.29999989967E+02 0.  0.
         12    1    1    2    0    0  0.28406692310E+02  0.16996398465E+02 -0.23608223512E+02  0.40659143451E+02  0.00000000000E+00 0. -1.
         11    1    3    3    0    0 -0.51871660008E+01 -0.45065345782E+00  0.13672917147E+02  0.14630736250E+02  0.51100000000E-03 0.  1.
        -11    1    3    3    0    0  0.27046922336E+01 -0.98937095729E+00 -0.18784648961E+01  0.34384365047E+01  0.51100000000E-03 0. -1.
         12    1    3    3    0    0 -0.25924218543E+02 -0.15556374050E+02  0.11813771261E+02  0.32459683794E+02  0.00000000000E+00 0. -1.
</event>
<event>
 7    1  0.4836188E-013  0.5052881E+02  0.7816164E-02  0.1300439E+00
        -11   -1    0    0    0    0  0.00000000000E+00  0.00000000000E+00  0.45593999997E+02  0.45594000000E+02  0.51100000000E-03 0. -1.
         11   -1    0    0    0    0 -0.00000000000E+00 -0.00000000000E+00 -0.45593999997E+02  0.45594000000E+02  0.51100000000E-03 0.  1.
    9900012    2    1    2    0    0  0.23366237543E+02 -0.25890951780E+02 -0.20900885534E+02  0.50528813374E+02  0.29999858731E+02 0.  0.
         12    1    1    2    0    0 -0.23366237543E+02  0.25890951780E+02  0.20900885534E+02  0.40659186626E+02  0.00000000000E+00 0. -1.
         11    1    3    3    0    0 -0.29562304930E+01  0.12626619390E+01 -0.32570894874E+01  0.45762698882E+01  0.51100000000E-03 0. -1.
        -11    1    3    3    0    0  0.12132103491E+02 -0.23415159409E+02 -0.55791704596E+01  0.26955236385E+02  0.51100000000E-03 0.  1.
         12    1    3    3    0    0  0.14190364545E+02 -0.37384543094E+01 -0.12064625587E+02  0.18997307101E+02  0.00000000000E+00 0. -1.
</event>
<event>
 7    1  0.4836188E-013  0.5052887E+02  0.7816164E-02  0.1300439E+00
        -11   -1    0    0    0    0  0.00000000000E+00  0.00000000000E+00  0.45593999997E+02  0.45594000000E+02  0.51100000000E-03 0.  1.
         11   -1    0    0    0    0 -0.00000000000E+00 -0.00000000000E+00 -0.45593999997E+02  0.45594000000E+02  0.51100000000E-03 0. -1.
    9900012    2    1    2    0    0  0.67412625312E+01  0.29787894384E+02  0.26840302658E+02  0.50528866720E+02  0.30000020881E+02 0.  0.
         12    1    1    2    0    0 -0.67412625312E+01 -0.29787894384E+02 -0.26840302658E+02  0.40659133280E+02  0.00000000000E+00 0. -1.
         11    1    3    3    0    0 -0.23890979874E+01  0.98204676209E+01 -0.18422381044E+01  0.10273422749E+02  0.51100000000E-03 0. -1.
        -11    1    3    3    0    0 -0.25939634742E+01  0.14914169947E+02  0.12425537177E+02  0.19584562444E+02  0.51100000000E-03 0.  1.
        -12    1    3    3    0    0  0.11724323993E+02  0.50532568163E+01  0.16257003585E+02  0.20670881527E+02  0.00000000000E+00 0.  1.
</event>
<event>
 7    1  0.4836188E-013  0.5052886E+02  0.7816164E-02  0.1300439E+00
        -11   -1    0    0    0    0  0.00000000000E+00  0.00000000000E+00  0.45593999997E+02  0.45594000000E+02  0.51100000000E-03 0.  1.
         11   -1    0    0    0    0 -0.00000000000E+00 -0.00000000000E+00 -0.45593999997E+02  0.45594000000E+02  0.51100000000E-03 0. -1.
    9900012    2    1    2    0    0  0.24139634814E+02 -0.12185470809E+02  0.30363762313E+02  0.50528859213E+02  0.29999998062E+02 0.  0.
         12    1    1    2    0    0 -0.24139634814E+02  0.12185470809E+02 -0.30363762313E+02  0.40659140787E+02  0.00000000000E+00 0. -1.
         11    1    3    3    0    0 -0.24961790649E+01 -0.50944715560E+01  0.45646795361E+01  0.72815417247E+01  0.51100000000E-03 0. -1.
        -11    1    3    3    0    0  0.17851052410E+02 -0.81460751292E+01  0.27942177738E+02  0.34143577861E+02  0.51100000000E-03 0.  1.
         12    1    3    3    0    0  0.87847614691E+01  0.10550758766E+01 -0.21430949615E+01  0.91037396266E+01  0.00000000000E+00 0. -1.
</event>
<event>
 7    1  0.4836188E-013  0.5052888E+02  0.7816164E-02  0.1300439E+00
        -11   -1    0    0    0    0  0.00000000000E+00  0.00000000000E+00  0.45593999997E+02  0.45594000000E+02  0.51100000000E-03 0.  1.
         11   -1    0    0    0    0 -0.00000000000E+00 -0.00000000000E+00 -0.45593999997E+02  0.45594000000E+02  0.51100000000E-03 0. -1.
    9900012    2    1    2    0    0  0.18430824014E+01  0.36988794306E+02  0.16780838030E+02  0.50528875785E+02  0.30000048436E+02 0.  0.
         12    1    1    2    0    0 -0.18430824014E+01 -0.36988794306E+02 -0.16780838030E+02  0.40659124215E+02  0.00000000000E+00 0. -1.
         11    1    3    3    0    0 -0.95032960861E+00 -0.86355741834E+00  0.26066001314E+01  0.29057223346E+01  0.51100000000E-03 0. -1.
        -11    1    3    3    0    0 -0.90148834391E+01  0.21069651357E+02  0.42301661244E+00  0.22921109812E+02  0.51100000000E-03 0.  1.
         12    1    3    3    0    0  0.11808295449E+02  0.16782700367E+02  0.13751221286E+02  0.24702043638E+02  0.00000000000E+00 0. -1.
</event>
<event>
 7    1  0.4836188E-013  0.5052886E+02  0.7816164E-02  0.1300439E+00
        -11   -1    0    0    0    0  0.00000000000E+00  0.00000000000E+00  0.45593999997E+02  0.45594000000E+02  0.51100000000E-03 0. -1.
         11   -1    0    0    0    0 -0.00000000000E+00 -0.00000000000E+00 -0.45593999997E+02  0.45594000000E+02  0.51100000000E-03 0.  1.
    9900012    2    1    2    0    0 -0.15396165905E+02  0.34802701630E+02 -0.14314171880E+02  0.50528862258E+02  0.30000007320E+02 0.  0.
         12    1    1    2    0    0  0.15396165905E+02 -0.34802701630E+02  0.14314171880E+02  0.40659137742E+02  0.00000000000E+00 0. -1.
         11    1    3    3    0    0 -0.77432103256E+01  0.19743994642E+02 -0.32327963332E+01  0.21453055796E+02  0.51100000000E-03 0. -1.
        -11    1    3    3    0    0 -0.74823187194E+01  0.10237045043E+02 -0.17146547882E+02  0.21325718960E+02  0.51100000000E-03 0.  1.
         12    1    3    3    0    0 -0.17063685985E+00  0.48216619447E+01  0.60651723349E+01  0.77500875027E+01  0.00000000000E+00 0. -1.
</event>
<event>
 7    1  0.4836188E-013  0.5052886E+02  0.7816164E-02  0.1300439E+00
        -11   -1    0    0    0    0  0.00000000000E+00  0.00000000000E+00  0.45593999997E+02  0.45594000000E+02  0.51100000000E-03 0.  1.
         11   -1    0    0    0    0 -0.00000000000E+00 -0.00000000000E+00 -0.45593999997E+02  0.45594000000E+02  0.51100000000E-03 0. -1.
    9900012    2    1    2    0    0 -0.45777078804E+01 -0.26149729813E+02 -0.30796131905E+02  0.50528861801E+02  0.30000005931E+02 0.  0.
         12    1    1    2    0    0  0.45777078804E+01  0.26149729813E+02  0.30796131905E+02  0.40659138199E+02  0.00000000000E+00 0. -1.
         11    1    3    3    0    0  0.66249276764E+01 -0.11509815196E+02 -0.95575652455E+01  0.16361924283E+02  0.51100000000E-03 0.  1.
        -11    1    3    3    0    0 -0.15000403381E+01 -0.55869587546E+01  0.30127657112E+01  0.65223451790E+01  0.51100000000E-03 0. -1.
         12    1    3    3    0    0 -0.97025952187E+01 -0.90529558624E+01 -0.24251332371E+02  0.27644592339E+02  0.00000000000E+00 0. -1.
</event>
<event>
 7    1  0.4836188E-013  0.5052886E+02  0.7816164E-02  0.1300439E+00
        -11   -1    0    0    0    0  0.00000000000E+00  0.00000000000E+00  0.45593999997E+02  0.45594000000E+02  0.51100000000E-03 0.  1.
         11   -1    0    0    0    0 -0.00000000000E+00 -0.00000000000E+00 -0.45593999997E+02  0.45594000000E+02  0.51100000000E-03 0. -1.
    9900012    2    1    2    0    0 -0.15135235695E+02 -0.28047347743E+01  0.37632752339E+02  0.50528856560E+02  0.29999989999E+02 0.  0.
         12    1    1    2    0    0  0.15135235695E+02  0.28047347743E+01 -0.37632752339E+02  0.40659143440E+02  0.00000000000E+00 0. -1.
         11    1    3    3    0    0 -0.58514797378E+01 -0.89516515937E+00  0.32669339246E+02  0.33201308149E+02  0.51100000000E-03 0.  1.
        -11    1    3    3    0    0  0.31797743328E+01 -0.81669637811E+00  0.33875255639E+01  0.47173390263E+01  0.51100000000E-03 0. -1.
         12    1    3    3    0    0 -0.12463530290E+02 -0.10928732368E+01  0.15758875287E+01  0.12610209384E+02  0.00000000000E+00 0. -1.
</event>
<event>
 7    1  0.4836188E-013  0.5052886E+02  0.7816164E-02  0.1300439E+00
        -11   -1    0    0    0    0  0.00000000000E+00  0.00000000000E+00  0.45593999997E+02  0.45594000000E+02  0.51100000000E-03 0. -1.
         11   -1    0    0    0    0 -0.00000000000E+00 -0.00000000000E+00 -0.45593999997E+02  0.45594000000E+02  0.51100000000E-03 0.  1.
    9900012    2    1    2    0    0  0.20373475863E+02 -0.31933097854E+02 -0.14777168951E+02  0.50528856139E+02  0.29999988720E+02 0.  0.
         12    1    1    2    0    0 -0.20373475863E+02  0.31933097854E+02  0.14777168951E+02  0.40659143861E+02  0.00000000000E+00 0. -1.
         11    1    3    3    0    0 -0.26952396655E+01 -0.50456840938E+01 -0.17898416362E+01  0.59938950752E+01  0.51100000000E-03 0. -1.
        -11    1    3    3    0    0  0.14961709601E+02 -0.19684785674E+02  0.33239008009E+01  0.24947782627E+02  0.51100000000E-03 0.  1.
        -12    1    3    3    0    0  0.81070059276E+01 -0.72026280862E+01 -0.16311228116E+02  0.19587178437E+02  0.00000000000E+00 0.  1.
</event>
<event>
 7    1  0.4836188E-013  0.5052888E+02  0.7816164E-02  0.1300439E+00
        -11   -1    0    0    0    0  0.00000000000E+00  0.00000000000E+00  0.45593999997E+02  0.45594000000E+02  0.51100000000E-03 0.  1.
         11   -1    0    0    0    0 -0.00000000000E+00 -0.00000000000E+00 -0.45593999997E+02  0.45594000000E+02  0.51100000000E-03 0. -1.
    9900012    2    1    2    0    0 -0.28276106750E+02 -0.78672362882E+01  0.28137738671E+02  0.50528881007E+02  0.30000064309E+02 0.  0.
         12    1    1    2    0    0  0.28276106750E+02  0.78672362882E+01 -0.28137738671E+02  0.40659118993E+02  0.00000000000E+00 0. -1.
         11    1    3    3    0    0 -0.11328696250E+02 -0.94910340200E+00  0.16461236407E+02  0.20005310803E+02  0.51100000000E-03 0. -1.
        -11    1    3    3    0    0 -0.21809388286E+02 -0.31555751848E+01  0.86800621082E+01  0.23684394665E+02  0.51100000000E-03 0.  1.
         12    1    3    3    0    0  0.48619777866E+01 -0.37625577014E+01  0.29964401553E+01  0.68391755394E+01  0.00000000000E+00 0. -1.
</event>
<event>
 7    1  0.4836188E-013  0.5052884E+02  0.7816164E-02  0.1300439E+00
        -11   -1    0    0    0    0  0.00000000000E+00  0.00000000000E+00  0.45593999997E+02  0.45594000000E+02  0.51100000000E-03 0. -1.
         11   -1    0    0    0    0 -0.00000000000E+00 -0.00000000000E+00 -0.45593999997E+02  0.45594000000E+02  0.51100000000E-03 0.  1.
    9900012    2    1    2    0    0  0.23943536289E+02 -0.19205257079E+02  0.26665196163E+02  0.50528837245E+02  0.29999931291E+02 0.  0.
         12    1    1    2    0    0 -0.23943536289E+02  0.19205257079E+02 -0.26665196163E+02  0.40659162755E+02  0.00000000000E+00 0. -1.
         11    1    3    3    0    0  0.51673974825E+01 -0.74060063463E+01  0.15539495513E+02  0.17972947666E+02  0.51100000000E-03 0. -1.
        -11    1    3    3    0    0  0.15354030982E+02 -0.17193338317E+01  0.14700988196E+02  0.21326542861E+02  0.51100000000E-03 0.  1.
        -12    1    3    3    0    0  0.34221078250E+01 -0.10079916901E+02 -0.35752875456E+01  0.11229346719E+02  0.00000000000E+00 0.  1.
</event>
<event>
 7    1  0.4836188E-013  0.5052886E+02  0.7816164E-02  0.1300439E+00
        -11   -1    0    0    0    0  0.00000000000E+00  0.00000000000E+00  0.45593999997E+02  0.45594000000E+02  0.51100000000E-03 0. -1.
         11   -1    0    0    0    0 -0.00000000000E+00 -0.00000000000E+00 -0.45593999997E+02  0.45594000000E+02  0.51100000000E-03 0.  1.
    9900012    2    1    2    0    0 -0.13172395355E+02  0.20331051162E+02 -0.32654280293E+02  0.50528860041E+02  0.30000000581E+02 0.  0.
         12    1    1    2    0    0  0.13172395355E+02 -0.20331051162E+02  0.32654280293E+02  0.40659139959E+02  0.00000000000E+00 0. -1.
         11    1    3    3    0    0 -0.11859641255E+02  0.21401106204E+02 -0.11805920463E+02  0.27166858407E+02  0.51100000000E-03 0. -1.
        -11    1    3    3    0    0  0.32680597774E+01  0.28637856808E+01 -0.67844235680E+01  0.80566672108E+01  0.51100000000E-03 0.  1.
        -12    1    3    3    0    0 -0.45808138771E+01 -0.39338407235E+01 -0.14063936263E+02  0.15305334424E+02  0.00000000000E+00 0.  1.
</event>
<event>
 7    1  0.4836188E-013  0.5052885E+02  0.7816164E-02  0.1300439E+00
        -11   -1    0    0    0    0  0.00000000000E+00  0.00000000000E+00  0.45593999997E+02  0.45594000000E+02  0.51100000000E-03 0.  1.
         11   -1    0    0    0    0 -0.00000000000E+00 -0.00000000000E+00 -0.45593999997E+02  0.45594000000E+02  0.51100000000E-03 0. -1.
    9900012    2    1    2    0    0  0.99096446210E+01  0.35814789204E+02  0.16500482777E+02  0.50528854483E+02  0.29999983688E+02 0.  0.
         12    1    1    2    0    0 -0.99096446210E+01 -0.35814789204E+02 -0.16500482777E+02  0.40659145517E+02  0.00000000000E+00 0. -1.
         11    1    3    3    0    0  0.17622929552E+02  0.26264048485E+02  0.96518333768E+01  0.33068501275E+02  0.51100000000E-03 0. -1.
        -11    1    3    3    0    0 -0.34476227771E+01  0.76540949224E+01  0.90111275969E+01  0.12315506190E+02  0.51100000000E-03 0.  1.
        -12    1    3    3    0    0 -0.42656621534E+01  0.18966457975E+01 -0.21624781969E+01  0.51448470182E+01  0.00000000000E+00 0.  1.
</event>
<event>
 7    1  0.4836188E-013  0.5052885E+02  0.7816164E-02  0.1300439E+00
        -11   -1    0    0    0    0  0.00000000000E+00  0.00000000000E+00  0.45593999997E+02  0.45594000000E+02  0.51100000000E-03 0.  1.
         11   -1    0    0    0    0 -0.00000000000E+00 -0.00000000000E+00 -0.45593999997E+02  0.45594000000E+02  0.51100000000E-03 0. -1.
    9900012    2    1    2    0    0 -0.23929653279E+02 -0.28698712685E+02  0.16028793804E+02  0.50528847935E+02  0.29999963784E+02 0.  0.
         12    1    1    2    0    0  0.23929653279E+02  0.28698712685E+02 -0.16028793804E+02  0.40659152065E+02  0.00000000000E+00 0. -1.
         11    1    3    3    0    0 -0.43354374365E+01  0.13039770954E+01  0.33746078722E-02  0.45272934166E+01  0.51100000000E-03 0. -1.
        -11    1    3    3    0    0 -0.24526885223E+02 -0.20540327492E+02  0.14836539339E+02  0.35264657266E+02  0.51100000000E-03 0.  1.
         12    1    3    3    0    0  0.49326693814E+01 -0.94623622883E+01  0.11888798567E+01  0.10736897253E+02  0.00000000000E+00 0. -1.
</event>
<event>
 7    1  0.4836188E-013  0.5052886E+02  0.7816164E-02  0.1300439E+00
        -11   -1    0    0    0    0  0.00000000000E+00  0.00000000000E+00  0.45593999997E+02  0.45594000000E+02  0.51100000000E-03 0.  1.
         11   -1    0    0    0    0 -0.00000000000E+00 -0.00000000000E+00 -0.45593999997E+02  0.45594000000E+02  0.51100000000E-03 0. -1.
    9900012    2    1    2    0    0  0.14166182974E+02  0.24451709359E+02  0.29233520498E+02  0.50528861404E+02  0.30000004724E+02 0.  0.
         12    1    1    2    0    0 -0.14166182974E+02 -0.24451709359E+02 -0.29233520498E+02  0.40659138596E+02  0.00000000000E+00 0. -1.
         11    1    3    3    0    0  0.75519898856E+01  0.75248945830E+01  0.11664892487E+00  0.10661622623E+02  0.51100000000E-03 0.  1.
        -11    1    3    3    0    0  0.37519789557E+00 -0.36815102375E+01  0.58909108607E-01  0.37010487208E+01  0.51100000000E-03 0. -1.
         12    1    3    3    0    0  0.62389951924E+01  0.20608325014E+02  0.29057962465E+02  0.36166190061E+02  0.00000000000E+00 0. -1.
</event>
<event>
 7    1  0.4836188E-013  0.5052887E+02  0.7816164E-02  0.1300439E+00
        -11   -1    0    0    0    0  0.00000000000E+00  0.00000000000E+00  0.45593999997E+02  0.45594000000E+02  0.51100000000E-03 0.  1.
         11   -1    0    0    0    0 -0.00000000000E+00 -0.00000000000E+00 -0.45593999997E+02  0.45594000000E+02  0.51100000000E-03 0. -1.
    9900012    2    1    2    0    0 -0.16336983785E+02  0.37005443951E+02  0.41067428747E+01  0.50528865009E+02  0.30000015680E+02 0.  0.
         12    1    1    2    0    0  0.16336983785E+02 -0.37005443951E+02 -0.41067428747E+01  0.40659134991E+02  0.00000000000E+00 0. -1.
         11    1    3    3    0    0 -0.90456931371E+01  0.18374786134E+02  0.46342783760E+01  0.20998425325E+02  0.51100000000E-03 0. -1.
        -11    1    3    3    0    0 -0.95808267615E+01  0.15427840341E+02  0.82225680906E+01  0.19935423881E+02  0.51100000000E-03 0.  1.
         12    1    3    3    0    0  0.22895361136E+01  0.32028174760E+01 -0.87501035919E+01  0.95950158034E+01  0.00000000000E+00 0. -1.
</event>
<event>
 7    1  0.4836188E-013  0.5052886E+02  0.7816164E-02  0.1300439E+00
        -11   -1    0    0    0    0  0.00000000000E+00  0.00000000000E+00  0.45593999997E+02  0.45594000000E+02  0.51100000000E-03 0.  1.
         11   -1    0    0    0    0 -0.00000000000E+00 -0.00000000000E+00 -0.45593999997E+02  0.45594000000E+02  0.51100000000E-03 0. -1.
    9900012    2    1    2    0    0  0.55700541949E+01 -0.17334019460E+02  0.36354807367E+02  0.50528858924E+02  0.29999997185E+02 0.  0.
         12    1    1    2    0    0 -0.55700541949E+01  0.17334019460E+02 -0.36354807367E+02  0.40659141076E+02  0.00000000000E+00 0. -1.
         11    1    3    3    0    0  0.21503388306E+01  0.12681726427E+00 -0.32901847624E+01  0.39326016499E+01  0.51100000000E-03 0. -1.
        -11    1    3    3    0    0  0.97526947572E+01 -0.68528310691E+01  0.16427424375E+02  0.20296221829E+02  0.51100000000E-03 0.  1.
         12    1    3    3    0    0 -0.63329793929E+01 -0.10608005655E+02  0.23217567755E+02  0.26300035445E+02  0.00000000000E+00 0. -1.
</event>
<event>
 7    1  0.4836188E-013  0.5052886E+02  0.7816164E-02  0.1300439E+00
        -11   -1    0    0    0    0  0.00000000000E+00  0.00000000000E+00  0.45593999997E+02  0.45594000000E+02  0.51100000000E-03 0.  1.
         11   -1    0    0    0    0 -0.00000000000E+00 -0.00000000000E+00 -0.45593999997E+02  0.45594000000E+02  0.51100000000E-03 0. -1.
    9900012    2    1    2    0    0  0.22428010891E+02 -0.10085676992E+02  0.32379457212E+02  0.50528858319E+02  0.29999995345E+02 0.  0.
         12    1    1    2    0    0 -0.22428010891E+02  0.10085676992E+02 -0.32379457212E+02  0.40659141681E+02  0.00000000000E+00 0. -1.
         11    1    3    3    0    0  0.61594299464E+01 -0.57926633311E+01  0.10917983218E+02  0.13809268031E+02  0.51100000000E-03 0. -1.
        -11    1    3    3    0    0  0.16968850999E+02  0.46396005153E+01  0.21473831126E+02  0.27759560887E+02  0.51100000000E-03 0.  1.
        -12    1    3    3    0    0 -0.70027005358E+00 -0.89326141762E+01 -0.12357132075E-01  0.89600294010E+01  0.00000000000E+00 0.  1.
</event>
<event>
 7    1  0.4836188E-013  0.5052886E+02  0.7816164E-02  0.1300439E+00
        -11   -1    0    0    0    0  0.00000000000E+00  0.00000000000E+00  0.45593999997E+02  0.45594000000E+02  0.51100000000E-03 0.  1.
         11   -1    0    0    0    0 -0.00000000000E+00 -0.00000000000E+00 -0.45593999997E+02  0.45594000000E+02  0.51100000000E-03 0. -1.
    9900012    2    1    2    0    0  0.98741938160E+01  0.15783798883E+02  0.36146059265E+02  0.50528860670E+02  0.30000002491E+02 0.  0.
         12    1    1    2    0    0 -0.98741938160E+01 -0.15783798883E+02 -0.36146059265E+02  0.40659139330E+02  0.00000000000E+00 0. -1.
         11    1    3    3    0    0  0.63913969463E+01  0.98740183349E+00  0.15561942710E+00  0.64690907377E+01  0.51100000000E-03 0. -1.
        -11    1    3    3    0    0  0.10678832256E+02  0.72670397020E+01  0.28314533613E+02  0.31121698835E+02  0.51100000000E-03 0.  1.
         12    1    3    3    0    0 -0.71960353860E+01  0.75293573472E+01  0.76759062249E+01  0.12938071097E+02  0.00000000000E+00 0. -1.
</event>
<event>
 7    1  0.4836188E-013  0.5052885E+02  0.7816164E-02  0.1300439E+00
        -11   -1    0    0    0    0  0.00000000000E+00  0.00000000000E+00  0.45593999997E+02  0.45594000000E+02  0.51100000000E-03 0.  1.
         11   -1    0    0    0    0 -0.00000000000E+00 -0.00000000000E+00 -0.45593999997E+02  0.45594000000E+02  0.51100000000E-03 0. -1.
    9900012    2    1    2    0    0  0.25134756951E+02  0.14382605572E+02  0.28540338562E+02  0.50528852502E+02  0.29999977666E+02 0.  0.
         12    1    1    2    0    0 -0.25134756951E+02 -0.14382605572E+02 -0.28540338562E+02  0.40659147498E+02  0.00000000000E+00 0. -1.
         11    1    3    3    0    0  0.35345307759E+01  0.59015690504E+01 -0.71652417665E-01  0.68794301648E+01  0.51100000000E-03 0. -1.
        -11    1    3    3    0    0  0.20413981166E+02 -0.95492085128E+00  0.10007340363E+02  0.22754985438E+02  0.51100000000E-03 0.  1.
        -12    1    3    3    0    0  0.11862450083E+01  0.94359573733E+01  0.18604650616E+02  0.20894436899E+02  0.00000000000E+00 0.  1.
</event>
<event>
 7    1  0.4836188E-013  0.5052885E+02  0.7816164E-02  0.1300439E+00
        -11   -1    0    0    0    0  0.00000000000E+00  0.00000000000E+00  0.45593999997E+02  0.45594000000E+02  0.51100000000E-03 0.  1.
         11   -1    0    0    0    0 -0.00000000000E+00 -0.00000000000E+00 -0.45593999997E+02  0.45594000000E+02  0.51100000000E-03 0. -1.
    9900012    2    1    2    0    0 -0.35058899692E+02  0.20513153181E+02  0.18028856530E+01  0.50528852225E+02  0.29999976825E+02 0.  0.
         12    1    1    2    0    0  0.35058899692E+02 -0.20513153181E+02 -0.18028856530E+01  0.40659147775E+02  0.00000000000E+00 0. -1.
         11    1    3    3    0    0  0.22860847842E+01  0.22718218134E+01 -0.33590541562E+01  0.46551695004E+01  0.51100000000E-03 0. -1.
        -11    1    3    3    0    0 -0.14157129336E+02  0.16856987896E+02 -0.28247289651E+00  0.22015043565E+02  0.51100000000E-03 0.  1.
        -12    1    3    3    0    0 -0.23187855140E+02  0.13843434717E+01  0.54444127057E+01  0.23858639160E+02  0.00000000000E+00 0.  1.
</event>
<event>
 7    1  0.4836188E-013  0.5052886E+02  0.7816164E-02  0.1300439E+00
        -11   -1    0    0    0    0  0.00000000000E+00  0.00000000000E+00  0.45593999997E+02  0.45594000000E+02  0.51100000000E-03 0.  1.
         11   -1    0    0    0    0 -0.00000000000E+00 -0.00000000000E+00 -0.45593999997E+02  0.45594000000E+02  0.51100000000E-03 0. -1.
    9900012    2    1    2    0    0 -0.39861617749E+02 -0.29479345601E+01 -0.74516279560E+01  0.50528860228E+02  0.30000001150E+02 0.  0.
         12    1    1    2    0    0  0.39861617749E+02  0.29479345601E+01  0.74516279560E+01  0.40659139772E+02  0.00000000000E+00 0. -1.
         11    1    3    3    0    0 -0.22961678652E+02  0.40301500369E-01  0.24752613305E+01  0.23094744633E+02  0.51100000000E-03 0. -1.
        -11    1    3    3    0    0 -0.80946709209E+01 -0.91008161000E+01  0.88168074204E+00  0.12211712091E+02  0.51100000000E-03 0.  1.
         12    1    3    3    0    0 -0.88052681764E+01  0.61125800396E+01 -0.10808570029E+02  0.15222403505E+02  0.00000000000E+00 0. -1.
</event>
<event>
 7    1  0.4836188E-013  0.5052887E+02  0.7816164E-02  0.1300439E+00
        -11   -1    0    0    0    0  0.00000000000E+00  0.00000000000E+00  0.45593999997E+02  0.45594000000E+02  0.51100000000E-03 0.  1.
         11   -1    0    0    0    0 -0.00000000000E+00 -0.00000000000E+00 -0.45593999997E+02  0.45594000000E+02  0.51100000000E-03 0. -1.
    9900012    2    1    2    0    0 -0.26864936932E+02 -0.19900158086E+02  0.23139232432E+02  0.50528865654E+02  0.30000017642E+02 0.  0.
         12    1    1    2    0    0  0.26864936932E+02  0.19900158086E+02 -0.23139232432E+02  0.40659134346E+02  0.00000000000E+00 0. -1.
         11    1    3    3    0    0 -0.28518695091E+01 -0.69296400932E+01 -0.42986344961E+01  0.86389426616E+01  0.51100000000E-03 0. -1.
        -11    1    3    3    0    0 -0.69985482907E+00  0.31915976446E+01  0.24132073790E+01  0.40619776491E+01  0.51100000000E-03 0.  1.
        -12    1    3    3    0    0 -0.23313212594E+02 -0.16162115638E+02  0.25024659549E+02  0.37827945343E+02  0.00000000000E+00 0.  1.
</event>
<event>
 7    1  0.4836188E-013  0.5052886E+02  0.7816164E-02  0.1300439E+00
        -11   -1    0    0    0    0  0.00000000000E+00  0.00000000000E+00  0.45593999997E+02  0.45594000000E+02  0.51100000000E-03 0.  1.
         11   -1    0    0    0    0 -0.00000000000E+00 -0.00000000000E+00 -0.45593999997E+02  0.45594000000E+02  0.51100000000E-03 0. -1.
    9900012    2    1    2    0    0  0.27827567819E+02  0.29622504392E+02  0.11398517537E+01  0.50528861308E+02  0.30000004432E+02 0.  0.
         12    1    1    2    0    0 -0.27827567819E+02 -0.29622504392E+02 -0.11398517537E+01  0.40659138692E+02  0.00000000000E+00 0. -1.
         11    1    3    3    0    0  0.16305553358E+02  0.19296038225E+02  0.70667737055E+01  0.26232564731E+02  0.51100000000E-03 0. -1.
        -11    1    3    3    0    0  0.52259181050E+01  0.14781291802E+02 -0.53354556838E+01  0.16560914679E+02  0.51100000000E-03 0.  1.
         12    1    3    3    0    0  0.62960963560E+01 -0.44548256358E+01 -0.59146626803E+00  0.77353818985E+01  0.00000000000E+00 0. -1.
</event>
<event>
 7    1  0.4836188E-013  0.5052885E+02  0.7816164E-02  0.1300439E+00
        -11   -1    0    0    0    0  0.00000000000E+00  0.00000000000E+00  0.45593999997E+02  0.45594000000E+02  0.51100000000E-03 0.  1.
         11   -1    0    0    0    0 -0.00000000000E+00 -0.00000000000E+00 -0.45593999997E+02  0.45594000000E+02  0.51100000000E-03 0. -1.
    9900012    2    1    2    0    0 -0.35344337089E+02 -0.19938543138E+02  0.25296358448E+01  0.50528846981E+02  0.29999960885E+02 0.  0.
         12    1    1    2    0    0  0.35344337089E+02  0.19938543138E+02 -0.25296358448E+01  0.40659153019E+02  0.00000000000E+00 0. -1.
         11    1    3    3    0    0 -0.66778712798E+01  0.12079092962E+01 -0.84750371474E+01  0.10857221772E+02  0.51100000000E-03 0. -1.
        -11    1    3    3    0    0 -0.96197470395E+01 -0.14938272503E+02  0.26411955777E+01  0.17962946107E+02  0.51100000000E-03 0.  1.
        -12    1    3    3    0    0 -0.19046718769E+02 -0.62081799302E+01  0.83634774145E+01  0.21708679103E+02  0.00000000000E+00 0.  1.
</event>
<event>
 7    1  0.4836188E-013  0.5052886E+02  0.7816164E-02  0.1300439E+00
        -11   -1    0    0    0    0  0.00000000000E+00  0.00000000000E+00  0.45593999997E+02  0.45594000000E+02  0.51100000000E-03 0.  1.
         11   -1    0    0    0    0 -0.00000000000E+00 -0.00000000000E+00 -0.45593999997E+02  0.45594000000E+02  0.51100000000E-03 0. -1.
    9900012    2    1    2    0    0 -0.39067117143E+02  0.87406986556E+01 -0.71081556864E+01  0.50528864100E+02  0.30000012920E+02 0.  0.
         12    1    1    2    0    0  0.39067117143E+02 -0.87406986556E+01  0.71081556864E+01  0.40659135900E+02  0.00000000000E+00 0. -1.
         11    1    3    3    0    0  0.44111482680E+00 -0.38950198667E-01 -0.36856866377E+01  0.37121941841E+01  0.51100000000E-03 0. -1.
        -11    1    3    3    0    0 -0.53241681369E+01  0.75449905005E+01  0.63912404960E+01  0.11230387497E+02  0.51100000000E-03 0.  1.
         12    1    3    3    0    0 -0.34184063833E+02  0.12346583538E+01 -0.98137095448E+01  0.35586282419E+02  0.00000000000E+00 0. -1.
</event>
<event>
 7    1  0.4836188E-013  0.5052886E+02  0.7816164E-02  0.1300439E+00
        -11   -1    0    0    0    0  0.00000000000E+00  0.00000000000E+00  0.45593999997E+02  0.45594000000E+02  0.51100000000E-03 0.  1.
         11   -1    0    0    0    0 -0.00000000000E+00 -0.00000000000E+00 -0.45593999997E+02  0.45594000000E+02  0.51100000000E-03 0. -1.
    9900012    2    1    2    0    0 -0.64667148706E+01  0.37063236206E+02  0.15416360717E+02  0.50528855186E+02  0.29999985824E+02 0.  0.
         12    1    1    2    0    0  0.64667148706E+01 -0.37063236206E+02 -0.15416360717E+02  0.40659144814E+02  0.00000000000E+00 0. -1.
         11    1    3    3    0    0  0.10335398614E+01  0.28598500850E+02  0.53248547564E+01  0.29108358489E+02  0.51100000000E-03 0. -1.
        -11    1    3    3    0    0  0.27817948221E+00  0.85196370006E+01  0.10627168206E+02  0.13623446802E+02  0.51100000000E-03 0.  1.
         12    1    3    3    0    0 -0.77784342142E+01 -0.54901644978E-01 -0.53566224532E+00  0.77970498945E+01  0.00000000000E+00 0. -1.
</event>
<event>
 7    1  0.4836188E-013  0.5052885E+02  0.7816164E-02  0.1300439E+00
        -11   -1    0    0    0    0  0.00000000000E+00  0.00000000000E+00  0.45593999997E+02  0.45594000000E+02  0.51100000000E-03 0.  1.
         11   -1    0    0    0    0 -0.00000000000E+00 -0.00000000000E+00 -0.45593999997E+02  0.45594000000E+02  0.51100000000E-03 0. -1.
    9900012    2    1    2    0    0 -0.43525153917E+01  0.15883766106E+02  0.37174298393E+02  0.50528845103E+02  0.29999955174E+02 0.  0.
         12    1    1    2    0    0  0.43525153917E+01 -0.15883766106E+02 -0.37174298393E+02  0.40659154897E+02  0.00000000000E+00 0. -1.
         11    1    3    3    0    0  0.47710797904E+01  0.59241874958E+01  0.14113608255E+02  0.16032876787E+02  0.51100000000E-03 0. -1.
        -11    1    3    3    0    0 -0.23167186163E+01 -0.10595589241E+01  0.21268512528E+02  0.21420538641E+02  0.51100000000E-03 0.  1.
         12    1    3    3    0    0 -0.68068765658E+01  0.11019137534E+02  0.17921776103E+01  0.13075429674E+02  0.00000000000E+00 0. -1.
</event>
<event>
 7    1  0.4836188E-013  0.5052884E+02  0.7816164E-02  0.1300439E+00
        -11   -1    0    0    0    0  0.00000000000E+00  0.00000000000E+00  0.45593999997E+02  0.45594000000E+02  0.51100000000E-03 0.  1.
         11   -1    0    0    0    0 -0.00000000000E+00 -0.00000000000E+00 -0.45593999997E+02  0.45594000000E+02  0.51100000000E-03 0. -1.
    9900012    2    1    2    0    0  0.20653421422E+02  0.34969856928E+02 -0.19269003695E+01  0.50528835534E+02  0.29999926090E+02 0.  0.
         12    1    1    2    0    0 -0.20653421422E+02 -0.34969856928E+02  0.19269003695E+01  0.40659164466E+02  0.00000000000E+00 0. -1.
         11    1    3    3    0    0  0.10111849313E+02  0.15247709424E+02  0.65893485027E+01  0.19446378922E+02  0.51100000000E-03 0. -1.
        -11    1    3    3    0    0  0.96026567730E+01  0.96932696774E+01  0.47303734213E+01  0.14441153940E+02  0.51100000000E-03 0.  1.
         12    1    3    3    0    0  0.93891533575E+00  0.10028877827E+02 -0.13246622294E+02  0.16641302673E+02  0.00000000000E+00 0. -1.
</event>
<event>
 7    1  0.4836188E-013  0.5052885E+02  0.7816164E-02  0.1300439E+00
        -11   -1    0    0    0    0  0.00000000000E+00  0.00000000000E+00  0.45593999997E+02  0.45594000000E+02  0.51100000000E-03 0. -1.
         11   -1    0    0    0    0 -0.00000000000E+00 -0.00000000000E+00 -0.45593999997E+02  0.45594000000E+02  0.51100000000E-03 0.  1.
    9900012    2    1    2    0    0  0.24208015382E+02 -0.17873307649E+02 -0.27343793238E+02  0.50528853874E+02  0.29999981836E+02 0.  0.
         12    1    1    2    0    0 -0.24208015382E+02  0.17873307649E+02  0.27343793238E+02  0.40659146126E+02  0.00000000000E+00 0. -1.
         11    1    3    3    0    0 -0.18837635795E+01 -0.10001893102E+01 -0.69242181242E+01  0.72452564325E+01  0.51100000000E-03 0. -1.
        -11    1    3    3    0    0  0.11549044565E+01 -0.12953813186E-01 -0.11960175998E+02  0.12015813841E+02  0.51100000000E-03 0.  1.
         12    1    3    3    0    0  0.24936874505E+02 -0.16860164525E+02 -0.84593991163E+01  0.31267783601E+02  0.00000000000E+00 0. -1.
</event>
<event>
 7    1  0.4836188E-013  0.5052889E+02  0.7816164E-02  0.1300439E+00
        -11   -1    0    0    0    0  0.00000000000E+00  0.00000000000E+00  0.45593999997E+02  0.45594000000E+02  0.51100000000E-03 0.  1.
         11   -1    0    0    0    0 -0.00000000000E+00 -0.00000000000E+00 -0.45593999997E+02  0.45594000000E+02  0.51100000000E-03 0. -1.
    9900012    2    1    2    0    0 -0.78965026558E+01 -0.21527145430E+01  0.39826802464E+02  0.50528891198E+02  0.30000095284E+02 0.  0.
         12    1    1    2    0    0  0.78965026558E+01  0.21527145430E+01 -0.39826802464E+02  0.40659108802E+02  0.00000000000E+00 0. -1.
         11    1    3    3    0    0 -0.92773780779E+01  0.18445912896E+01  0.39465118003E+01  0.10249254445E+02  0.51100000000E-03 0. -1.
        -11    1    3    3    0    0 -0.67658005213E+01 -0.41016935547E+01  0.27401252190E+02  0.28520669147E+02  0.51100000000E-03 0.  1.
         12    1    3    3    0    0  0.81466759434E+01  0.10438772217E+00  0.84790384735E+01  0.11758967606E+02  0.00000000000E+00 0. -1.
</event>
<event>
 7    1  0.4836188E-013  0.5052886E+02  0.7816164E-02  0.1300439E+00
        -11   -1    0    0    0    0  0.00000000000E+00  0.00000000000E+00  0.45593999997E+02  0.45594000000E+02  0.51100000000E-03 0.  1.
         11   -1    0    0    0    0 -0.00000000000E+00 -0.00000000000E+00 -0.45593999997E+02  0.45594000000E+02  0.51100000000E-03 0. -1.
    9900012    2    1    2    0    0  0.30625861985E+02  0.15511120238E+02  0.21785937391E+02  0.50528863986E+02  0.30000012572E+02 0.  0.
         12    1    1    2    0    0 -0.30625861985E+02 -0.15511120238E+02 -0.21785937391E+02  0.40659136014E+02  0.00000000000E+00 0. -1.
         11    1    3    3    0    0  0.95913812764E+01  0.12586838945E+02  0.37931206718E+00  0.15829307860E+02  0.51100000000E-03 0. -1.
        -11    1    3    3    0    0  0.46338868306E+01 -0.14193126375E+01 -0.24458887165E+01  0.54286027112E+01  0.51100000000E-03 0.  1.
         12    1    3    3    0    0  0.16400593879E+02  0.43435939312E+01  0.23852514040E+02  0.29270953415E+02  0.00000000000E+00 0. -1.
</event>
<event>
 7    1  0.4836188E-013  0.5052886E+02  0.7816164E-02  0.1300439E+00
        -11   -1    0    0    0    0  0.00000000000E+00  0.00000000000E+00  0.45593999997E+02  0.45594000000E+02  0.51100000000E-03 0. -1.
         11   -1    0    0    0    0 -0.00000000000E+00 -0.00000000000E+00 -0.45593999997E+02  0.45594000000E+02  0.51100000000E-03 0.  1.
    9900012    2    1    2    0    0 -0.15247191321E+01 -0.40623755633E+02 -0.74264966942E+00  0.50528858116E+02  0.29999994731E+02 0.  0.
         12    1    1    2    0    0  0.15247191321E+01  0.40623755633E+02  0.74264966942E+00  0.40659141884E+02  0.00000000000E+00 0. -1.
         11    1    3    3    0    0 -0.11141369771E+02 -0.21425884930E+02  0.21380067617E+01  0.24243962931E+02  0.51100000000E-03 0. -1.
        -11    1    3    3    0    0 -0.17943689725E+00 -0.14589028493E+02 -0.46541637912E+01  0.15314476512E+02  0.51100000000E-03 0.  1.
        -12    1    3    3    0    0  0.97960875360E+01 -0.46088422099E+01  0.17735073600E+01  0.10970418674E+02  0.00000000000E+00 0.  1.
</event>
<event>
 7    1  0.4836188E-013  0.5052886E+02  0.7816164E-02  0.1300439E+00
        -11   -1    0    0    0    0  0.00000000000E+00  0.00000000000E+00  0.45593999997E+02  0.45594000000E+02  0.51100000000E-03 0.  1.
         11   -1    0    0    0    0 -0.00000000000E+00 -0.00000000000E+00 -0.45593999997E+02  0.45594000000E+02  0.51100000000E-03 0. -1.
    9900012    2    1    2    0    0  0.47038254211E+01  0.39112057551E+02  0.10064129566E+02  0.50528859288E+02  0.29999998293E+02 0.  0.
         12    1    1    2    0    0 -0.47038254211E+01 -0.39112057551E+02 -0.10064129566E+02  0.40659140712E+02  0.00000000000E+00 0. -1.
         11    1    3    3    0    0 -0.54248643948E+01  0.63313804912E+01 -0.26634731942E+01  0.87526922912E+01  0.51100000000E-03 0. -1.
        -11    1    3    3    0    0 -0.54739133690E+01  0.13829329845E+02  0.20776262803E+01  0.15017677010E+02  0.51100000000E-03 0.  1.
         12    1    3    3    0    0  0.15602603185E+02  0.18951347215E+02  0.10649976480E+02  0.26758489988E+02  0.00000000000E+00 0. -1.
</event>
<event>
 7    1  0.4836188E-013  0.5052886E+02  0.7816164E-02  0.1300439E+00
        -11   -1    0    0    0    0  0.00000000000E+00  0.00000000000E+00  0.45593999997E+02  0.45594000000E+02  0.51100000000E-03 0.  1.
         11   -1    0    0    0    0 -0.00000000000E+00 -0.00000000000E+00 -0.45593999997E+02  0.45594000000E+02  0.51100000000E-03 0. -1.
    9900012    2    1    2    0    0  0.20598837053E+02 -0.34348836970E+02 -0.70007968130E+01  0.50528857791E+02  0.29999993742E+02 0.  0.
         12    1    1    2    0    0 -0.20598837053E+02  0.34348836970E+02  0.70007968130E+01  0.40659142209E+02  0.00000000000E+00 0. -1.
         11    1    3    3    0    0  0.32203440151E+01 -0.52739363181E+01  0.34755405564E+01  0.70897392253E+01  0.51100000000E-03 0.  1.
        -11    1    3    3    0    0 -0.60936135641E+01 -0.56033703661E+01 -0.53367863894E+01  0.98494251078E+01  0.51100000000E-03 0. -1.
         12    1    3    3    0    0  0.23472106602E+02 -0.23471530286E+02 -0.51395509799E+01  0.33589693458E+02  0.00000000000E+00 0. -1.
</event>
<event>
 7    1  0.4836188E-013  0.5052886E+02  0.7816164E-02  0.1300439E+00
        -11   -1    0    0    0    0  0.00000000000E+00  0.00000000000E+00  0.45593999997E+02  0.45594000000E+02  0.51100000000E-03 0. -1.
         11   -1    0    0    0    0 -0.00000000000E+00 -0.00000000000E+00 -0.45593999997E+02  0.45594000000E+02  0.51100000000E-03 0.  1.
    9900012    2    1    2    0    0  0.13292133753E+02 -0.99683951163E+01 -0.37109512653E+02  0.50528860188E+02  0.30000001028E+02 0.  0.
         12    1    1    2    0    0 -0.13292133753E+02  0.99683951163E+01  0.37109512653E+02  0.40659139812E+02  0.00000000000E+00 0. -1.
         11    1    3    3    0    0  0.13020220696E+01  0.62663522474E+00 -0.11034262990E+02  0.11128472185E+02  0.51100000000E-03 0. -1.
        -11    1    3    3    0    0  0.62962440208E+01  0.49393357305E+01  0.58469628498E+00  0.80238143196E+01  0.51100000000E-03 0.  1.
         12    1    3    3    0    0  0.56938676622E+01 -0.15534366072E+02 -0.26659945948E+02  0.31376573684E+02  0.00000000000E+00 0. -1.
</event>
<event>
 7    1  0.4836188E-013  0.5052886E+02  0.7816164E-02  0.1300439E+00
        -11   -1    0    0    0    0  0.00000000000E+00  0.00000000000E+00  0.45593999997E+02  0.45594000000E+02  0.51100000000E-03 0. -1.
         11   -1    0    0    0    0 -0.00000000000E+00 -0.00000000000E+00 -0.45593999997E+02  0.45594000000E+02  0.51100000000E-03 0.  1.
    9900012    2    1    2    0    0  0.29018840837E+02  0.26607404038E+02  0.10154744781E+02  0.50528856936E+02  0.29999991143E+02 0.  0.
         12    1    1    2    0    0 -0.29018840837E+02 -0.26607404038E+02 -0.10154744781E+02  0.40659143064E+02  0.00000000000E+00 0. -1.
         11    1    3    3    0    0  0.59147039755E+00 -0.18019922155E+01  0.74170105934E+01  0.76556553984E+01  0.51100000000E-03 0. -1.
        -11    1    3    3    0    0  0.16562014300E+01  0.54040543006E+01 -0.40178037252E+01  0.69346631567E+01  0.51100000000E-03 0.  1.
         12    1    3    3    0    0  0.26771169009E+02  0.23005341953E+02  0.67555379124E+01  0.35938538381E+02  0.00000000000E+00 0. -1.
</event>
<event>
 7    1  0.4836188E-013  0.5052886E+02  0.7816164E-02  0.1300439E+00
        -11   -1    0    0    0    0  0.00000000000E+00  0.00000000000E+00  0.45593999997E+02  0.45594000000E+02  0.51100000000E-03 0.  1.
         11   -1    0    0    0    0 -0.00000000000E+00 -0.00000000000E+00 -0.45593999997E+02  0.45594000000E+02  0.51100000000E-03 0. -1.
    9900012    2    1    2    0    0  0.31239107313E+02 -0.39823242454E+00  0.26021624882E+02  0.50528863557E+02  0.30000011268E+02 0.  0.
         12    1    1    2    0    0 -0.31239107313E+02  0.39823242454E+00 -0.26021624882E+02  0.40659136443E+02  0.00000000000E+00 0. -1.
         11    1    3    3    0    0  0.61832008047E+01  0.80304512949E+01  0.15084302710E+02  0.18172955420E+02  0.51100000000E-03 0. -1.
        -11    1    3    3    0    0 -0.16968777277E+00 -0.45345714487E+01 -0.12012011108E+00  0.45393348925E+01  0.51100000000E-03 0.  1.
         12    1    3    3    0    0  0.25225594281E+02 -0.38941122707E+01  0.11057442283E+02  0.27816573244E+02  0.00000000000E+00 0. -1.
</event>
<event>
 7    1  0.4836188E-013  0.5052886E+02  0.7816164E-02  0.1300439E+00
        -11   -1    0    0    0    0  0.00000000000E+00  0.00000000000E+00  0.45593999997E+02  0.45594000000E+02  0.51100000000E-03 0.  1.
         11   -1    0    0    0    0 -0.00000000000E+00 -0.00000000000E+00 -0.45593999997E+02  0.45594000000E+02  0.51100000000E-03 0. -1.
    9900012    2    1    2    0    0  0.25967617499E+02 -0.30344030273E+02  0.76215707006E+01  0.50528859924E+02  0.30000000226E+02 0.  0.
         12    1    1    2    0    0 -0.25967617499E+02  0.30344030273E+02 -0.76215707006E+01  0.40659140076E+02  0.00000000000E+00 0. -1.
         11    1    3    3    0    0  0.52375782988E+01  0.27076501095E+01  0.34686455779E-01  0.58961681593E+01  0.51100000000E-03 0.  1.
        -11    1    3    3    0    0 -0.20943990756E+01 -0.43230314644E+01 -0.38971201307E+01  0.61856813775E+01  0.51100000000E-03 0. -1.
        -12    1    3    3    0    0  0.22824438275E+02 -0.28728648918E+02  0.11484004375E+02  0.38447010387E+02  0.00000000000E+00 0.  1.
</event>
<event>
 7    1  0.4836188E-013  0.5052886E+02  0.7816164E-02  0.1300439E+00
        -11   -1    0    0    0    0  0.00000000000E+00  0.00000000000E+00  0.45593999997E+02  0.45594000000E+02  0.51100000000E-03 0.  1.
         11   -1    0    0    0    0 -0.00000000000E+00 -0.00000000000E+00 -0.45593999997E+02  0.45594000000E+02  0.51100000000E-03 0. -1.
    9900012    2    1    2    0    0 -0.17740983247E+02  0.35960967003E+02  0.67254701256E+01  0.50528861018E+02  0.30000003551E+02 0.  0.
         12    1    1    2    0    0  0.17740983247E+02 -0.35960967003E+02 -0.67254701256E+01  0.40659138982E+02  0.00000000000E+00 0. -1.
         11    1    3    3    0    0 -0.12544843297E+02  0.18338932178E+02 -0.42448489132E+01  0.22620969681E+02  0.51100000000E-03 0. -1.
        -11    1    3    3    0    0 -0.50831629905E+01  0.12488484447E+02 -0.23006098643E+01  0.13678216104E+02  0.51100000000E-03 0.  1.
        -12    1    3    3    0    0 -0.11297695919E+00  0.51335503776E+01  0.13270928903E+02  0.14229675233E+02  0.00000000000E+00 0.  1.
</event>
<event>
 7    1  0.4836188E-013  0.5052886E+02  0.7816164E-02  0.1300439E+00
        -11   -1    0    0    0    0  0.00000000000E+00  0.00000000000E+00  0.45593999997E+02  0.45594000000E+02  0.51100000000E-03 0.  1.
         11   -1    0    0    0    0 -0.00000000000E+00 -0.00000000000E+00 -0.45593999997E+02  0.45594000000E+02  0.51100000000E-03 0. -1.
    9900012    2    1    2    0    0 -0.36256091197E+02  0.18381300816E+02  0.88843297838E+00  0.50528859801E+02  0.29999999851E+02 0.  0.
         12    1    1    2    0    0  0.36256091197E+02 -0.18381300816E+02 -0.88843297838E+00  0.40659140199E+02  0.00000000000E+00 0. -1.
         11    1    3    3    0    0 -0.18220061363E+02  0.96735350304E+01  0.74661566625E+01  0.21938354807E+02  0.51100000000E-03 0. -1.
        -11    1    3    3    0    0 -0.13418305959E+02 -0.36699547230E+01 -0.18099136051E+00  0.13912306086E+02  0.51100000000E-03 0.  1.
         12    1    3    3    0    0 -0.46177238740E+01  0.12377720509E+02 -0.63967323236E+01  0.14678198908E+02  0.00000000000E+00 0. -1.
</event>
<event>
 7    1  0.4836188E-013  0.5052887E+02  0.7816164E-02  0.1300439E+00
        -11   -1    0    0    0    0  0.00000000000E+00  0.00000000000E+00  0.45593999997E+02  0.45594000000E+02  0.51100000000E-03 0.  1.
         11   -1    0    0    0    0 -0.00000000000E+00 -0.00000000000E+00 -0.45593999997E+02  0.45594000000E+02  0.51100000000E-03 0. -1.
    9900012    2    1    2    0    0 -0.18189466966E+02  0.22291747579E+02  0.28729531713E+02  0.50528871737E+02  0.30000036132E+02 0.  0.
         12    1    1    2    0    0  0.18189466966E+02 -0.22291747579E+02 -0.28729531713E+02  0.40659128263E+02  0.00000000000E+00 0. -1.
         11    1    3    3    0    0 -0.98241335046E+01  0.86698034101E+01  0.16993564575E+01  0.13212376884E+02  0.51100000000E-03 0. -1.
        -11    1    3    3    0    0 -0.14300917287E+02  0.88577880056E+01  0.12654244223E+02  0.21050095979E+02  0.51100000000E-03 0.  1.
         12    1    3    3    0    0  0.59355838252E+01  0.47641561637E+01  0.14375931033E+02  0.16266398875E+02  0.00000000000E+00 0. -1.
</event>
<event>
 7    1  0.4836188E-013  0.5052885E+02  0.7816164E-02  0.1300439E+00
        -11   -1    0    0    0    0  0.00000000000E+00  0.00000000000E+00  0.45593999997E+02  0.45594000000E+02  0.51100000000E-03 0.  1.
         11   -1    0    0    0    0 -0.00000000000E+00 -0.00000000000E+00 -0.45593999997E+02  0.45594000000E+02  0.51100000000E-03 0. -1.
    9900012    2    1    2    0    0 -0.33921738755E+02  0.20938820877E+02  0.80029690812E+01  0.50528854731E+02  0.29999984440E+02 0.  0.
         12    1    1    2    0    0  0.33921738755E+02 -0.20938820877E+02 -0.80029690812E+01  0.40659145269E+02  0.00000000000E+00 0. -1.
         11    1    3    3    0    0 -0.15418343954E+02  0.54870131953E+01  0.56723538866E+01  0.17320746028E+02  0.51100000000E-03 0. -1.
        -11    1    3    3    0    0 -0.13397541125E+02  0.18231398775E+02  0.90103373947E+01  0.24352909266E+02  0.51100000000E-03 0.  1.
         12    1    3    3    0    0 -0.51058536761E+01 -0.27795910926E+01 -0.66797222002E+01  0.88551994374E+01  0.00000000000E+00 0. -1.
</event>
<event>
 7    1  0.4836188E-013  0.5052885E+02  0.7816164E-02  0.1300439E+00
        -11   -1    0    0    0    0  0.00000000000E+00  0.00000000000E+00  0.45593999997E+02  0.45594000000E+02  0.51100000000E-03 0.  1.
         11   -1    0    0    0    0 -0.00000000000E+00 -0.00000000000E+00 -0.45593999997E+02  0.45594000000E+02  0.51100000000E-03 0. -1.
    9900012    2    1    2    0    0  0.35097002494E+02 -0.12393639960E+02  0.16363506594E+02  0.50528852891E+02  0.29999978849E+02 0.  0.
         12    1    1    2    0    0 -0.35097002494E+02  0.12393639960E+02 -0.16363506594E+02  0.40659147109E+02  0.00000000000E+00 0. -1.
         11    1    3    3    0    0  0.12879898305E+02 -0.13236404418E+02  0.15855117896E+01  0.18536667181E+02  0.51100000000E-03 0. -1.
        -11    1    3    3    0    0  0.14637695095E+02  0.35600030775E+01 -0.11178417395E+00  0.15064801212E+02  0.51100000000E-03 0.  1.
         12    1    3    3    0    0  0.75794090942E+01 -0.27172386191E+01  0.14889778978E+02  0.16927384498E+02  0.00000000000E+00 0. -1.
</event>
<event>
 7    1  0.4836188E-013  0.5052886E+02  0.7816164E-02  0.1300439E+00
        -11   -1    0    0    0    0  0.00000000000E+00  0.00000000000E+00  0.45593999997E+02  0.45594000000E+02  0.51100000000E-03 0.  1.
         11   -1    0    0    0    0 -0.00000000000E+00 -0.00000000000E+00 -0.45593999997E+02  0.45594000000E+02  0.51100000000E-03 0. -1.
    9900012    2    1    2    0    0 -0.24260755969E+02 -0.69889954544E+01  0.31870599059E+02  0.50528862994E+02  0.30000009556E+02 0.  0.
         12    1    1    2    0    0  0.24260755969E+02  0.69889954544E+01 -0.31870599059E+02  0.40659137006E+02  0.00000000000E+00 0. -1.
         11    1    3    3    0    0  0.44409224415E+01 -0.40974414693E+01  0.21418137937E+01  0.64107866377E+01  0.51100000000E-03 0. -1.
        -11    1    3    3    0    0 -0.78791085774E+01 -0.69627894148E+01  0.53431228759E+01  0.11794479672E+02  0.51100000000E-03 0.  1.
         12    1    3    3    0    0 -0.20822569834E+02  0.40712354298E+01  0.24385662390E+02  0.32323596684E+02  0.00000000000E+00 0. -1.
</event>
<event>
 7    1  0.4836188E-013  0.5052886E+02  0.7816164E-02  0.1300439E+00
        -11   -1    0    0    0    0  0.00000000000E+00  0.00000000000E+00  0.45593999997E+02  0.45594000000E+02  0.51100000000E-03 0. -1.
         11   -1    0    0    0    0 -0.00000000000E+00 -0.00000000000E+00 -0.45593999997E+02  0.45594000000E+02  0.51100000000E-03 0.  1.
    9900012    2    1    2    0    0  0.18571733636E+02  0.35909672021E+02 -0.43302918029E+01  0.50528864963E+02  0.30000015540E+02 0.  0.
         12    1    1    2    0    0 -0.18571733636E+02 -0.35909672021E+02  0.43302918029E+01  0.40659135037E+02  0.00000000000E+00 0. -1.
         11    1    3    3    0    0 -0.21396023841E+01 -0.89864282680E+00 -0.14372696190E+01  0.27296889037E+01  0.51100000000E-03 0. -1.
        -11    1    3    3    0    0  0.15541247155E+02  0.63692601682E+01 -0.76161094970E-01  0.16795941146E+02  0.51100000000E-03 0.  1.
        -12    1    3    3    0    0  0.51700888655E+01  0.30439054679E+02 -0.28168610890E+01  0.31003234913E+02  0.00000000000E+00 0.  1.
</event>
<event>
 7    1  0.4836188E-013  0.5052886E+02  0.7816164E-02  0.1300439E+00
        -11   -1    0    0    0    0  0.00000000000E+00  0.00000000000E+00  0.45593999997E+02  0.45594000000E+02  0.51100000000E-03 0. -1.
         11   -1    0    0    0    0 -0.00000000000E+00 -0.00000000000E+00 -0.45593999997E+02  0.45594000000E+02  0.51100000000E-03 0.  1.
    9900012    2    1    2    0    0  0.30718904361E+02  0.24074203947E+02 -0.11399456135E+02  0.50528856121E+02  0.29999988664E+02 0.  0.
         12    1    1    2    0    0 -0.30718904361E+02 -0.24074203947E+02  0.11399456135E+02  0.40659143879E+02  0.00000000000E+00 0. -1.
         11    1    3    3    0    0  0.11086330327E+01  0.30062250919E+01  0.30044168580E+01  0.43923771949E+01  0.51100000000E-03 0. -1.
        -11    1    3    3    0    0 -0.19747721533E+01  0.54706448083E+01 -0.86796024680E+01  0.10448118440E+02  0.51100000000E-03 0.  1.
        -12    1    3    3    0    0  0.31585043481E+02  0.15597334047E+02 -0.57242705252E+01  0.35688360486E+02  0.00000000000E+00 0.  1.
</event>
<event>
 7    1  0.4836188E-013  0.5052886E+02  0.7816164E-02  0.1300439E+00
        -11   -1    0    0    0    0  0.00000000000E+00  0.00000000000E+00  0.45593999997E+02  0.45594000000E+02  0.51100000000E-03 0.  1.
         11   -1    0    0    0    0 -0.00000000000E+00 -0.00000000000E+00 -0.45593999997E+02  0.45594000000E+02  0.51100000000E-03 0. -1.
    9900012    2    1    2    0    0 -0.10270492597E+02  0.37139813089E+02  0.12973701485E+02  0.50528860011E+02  0.30000000489E+02 0.  0.
         12    1    1    2    0    0  0.10270492597E+02 -0.37139813089E+02 -0.12973701485E+02  0.40659139989E+02  0.00000000000E+00 0. -1.
         11    1    3    3    0    0  0.15070399157E+00  0.56502191548E+01 -0.60796546106E+01  0.83011980241E+01  0.51100000000E-03 0. -1.
        -11    1    3    3    0    0 -0.15548056273E+02  0.23122826304E+02  0.13704605757E+02  0.31051946306E+02  0.51100000000E-03 0.  1.
         12    1    3    3    0    0  0.51268596847E+01  0.83667676302E+01  0.53487503382E+01  0.11175715681E+02  0.00000000000E+00 0. -1.
</event>
<event>
 7    1  0.4836188E-013  0.5052885E+02  0.7816164E-02  0.1300439E+00
        -11   -1    0    0    0    0  0.00000000000E+00  0.00000000000E+00  0.45593999997E+02  0.45594000000E+02  0.51100000000E-03 0.  1.
         11   -1    0    0    0    0 -0.00000000000E+00 -0.00000000000E+00 -0.45593999997E+02  0.45594000000E+02  0.51100000000E-03 0. -1.
    9900012    2    1    2    0    0 -0.78435163761E+01 -0.26256121684E+02  0.30037677546E+02  0.50528846696E+02  0.29999960016E+02 0.  0.
         12    1    1    2    0    0  0.78435163761E+01  0.26256121684E+02 -0.30037677546E+02  0.40659153304E+02  0.00000000000E+00 0. -1.
         11    1    3    3    0    0 -0.51987873471E+01 -0.14157008458E+02 -0.84541568692E+00  0.15105065584E+02  0.51100000000E-03 0. -1.
        -11    1    3    3    0    0  0.37889359938E+00 -0.11435575071E+02  0.13186642416E+02  0.17458621825E+02  0.51100000000E-03 0.  1.
        -12    1    3    3    0    0 -0.30236226284E+01 -0.66353815615E+00  0.17696450817E+02  0.17965159287E+02  0.00000000000E+00 0.  1.
</event>
<event>
 7    1  0.4836188E-013  0.5052889E+02  0.7816164E-02  0.1300439E+00
        -11   -1    0    0    0    0  0.00000000000E+00  0.00000000000E+00  0.45593999997E+02  0.45594000000E+02  0.51100000000E-03 0.  1.
         11   -1    0    0    0    0 -0.00000000000E+00 -0.00000000000E+00 -0.45593999997E+02  0.45594000000E+02  0.51100000000E-03 0. -1.
    9900012    2    1    2    0    0 -0.64775212217E+01  0.32683789499E+02  0.23301815890E+02  0.50528892767E+02  0.30000100054E+02 0.  0.
         12    1    1    2    0    0  0.64775212217E+01 -0.32683789499E+02 -0.23301815890E+02  0.40659107233E+02  0.00000000000E+00 0. -1.
         11    1    3    3    0    0 -0.30669665938E+01  0.24876835112E+01  0.67341775969E+01  0.78066639167E+01  0.51100000000E-03 0. -1.
        -11    1    3    3    0    0 -0.67729215879E+01  0.14753194502E+02  0.20776687714E+02  0.26366644979E+02  0.51100000000E-03 0.  1.
         12    1    3    3    0    0  0.33623669600E+01  0.15442911486E+02 -0.42090494202E+01  0.16355583871E+02  0.00000000000E+00 0. -1.
</event>
<event>
 7    1  0.4836188E-013  0.5052886E+02  0.7816164E-02  0.1300439E+00
        -11   -1    0    0    0    0  0.00000000000E+00  0.00000000000E+00  0.45593999997E+02  0.45594000000E+02  0.51100000000E-03 0.  1.
         11   -1    0    0    0    0 -0.00000000000E+00 -0.00000000000E+00 -0.45593999997E+02  0.45594000000E+02  0.51100000000E-03 0. -1.
    9900012    2    1    2    0    0  0.26564435302E+02 -0.23660255651E+02  0.19689805856E+02  0.50528863573E+02  0.30000011315E+02 0.  0.
         12    1    1    2    0    0 -0.26564435302E+02  0.23660255651E+02 -0.19689805856E+02  0.40659136427E+02  0.00000000000E+00 0. -1.
         11    1    3    3    0    0  0.34682810684E+00  0.27158760309E+01  0.81435247420E+01  0.85914648249E+01  0.51100000000E-03 0. -1.
        -11    1    3    3    0    0  0.10095442089E+02 -0.17544346341E+01 -0.20185556130E+00  0.10248743229E+02  0.51100000000E-03 0.  1.
         12    1    3    3    0    0  0.16122165106E+02 -0.24621697048E+02  0.11748136675E+02  0.31688655518E+02  0.00000000000E+00 0. -1.
</event>
<event>
 7    1  0.4836188E-013  0.5052886E+02  0.7816164E-02  0.1300439E+00
        -11   -1    0    0    0    0  0.00000000000E+00  0.00000000000E+00  0.45593999997E+02  0.45594000000E+02  0.51100000000E-03 0. -1.
         11   -1    0    0    0    0 -0.00000000000E+00 -0.00000000000E+00 -0.45593999997E+02  0.45594000000E+02  0.51100000000E-03 0.  1.
    9900012    2    1    2    0    0 -0.15386184528E+02 -0.47619428109E+01 -0.37333026918E+02  0.50528859914E+02  0.30000000195E+02 0.  0.
         12    1    1    2    0    0  0.15386184528E+02  0.47619428109E+01  0.37333026918E+02  0.40659140086E+02  0.00000000000E+00 0. -1.
         11    1    3    3    0    0 -0.39447637329E+01 -0.17225668624E+01 -0.31739601696E+01  0.53481231216E+01  0.51100000000E-03 0. -1.
        -11    1    3    3    0    0 -0.17625742524E+02 -0.95682784997E+01 -0.27278369253E+02  0.33857468635E+02  0.51100000000E-03 0.  1.
        -12    1    3    3    0    0  0.61843217283E+01  0.65289025512E+01 -0.68806974946E+01  0.11323268158E+02  0.00000000000E+00 0.  1.
</event>
<event>
 7    1  0.4836188E-013  0.5052885E+02  0.7816164E-02  0.1300439E+00
        -11   -1    0    0    0    0  0.00000000000E+00  0.00000000000E+00  0.45593999997E+02  0.45594000000E+02  0.51100000000E-03 0. -1.
         11   -1    0    0    0    0 -0.00000000000E+00 -0.00000000000E+00 -0.45593999997E+02  0.45594000000E+02  0.51100000000E-03 0.  1.
    9900012    2    1    2    0    0 -0.24571108505E+02  0.32216516352E+02  0.33945670471E+01  0.50528851160E+02  0.29999973585E+02 0.  0.
         12    1    1    2    0    0  0.24571108505E+02 -0.32216516352E+02 -0.33945670471E+01  0.40659148840E+02  0.00000000000E+00 0. -1.
         11    1    3    3    0    0 -0.17991987431E+01 -0.41619653015E+01 -0.19915797385E+01  0.49523187906E+01  0.51100000000E-03 0. -1.
        -11    1    3    3    0    0 -0.16907056316E+02  0.13938486436E+02  0.75452081742E+00  0.21924854830E+02  0.51100000000E-03 0.  1.
        -12    1    3    3    0    0 -0.58648534454E+01  0.22439995218E+02  0.46316259682E+01  0.23651677539E+02  0.00000000000E+00 0.  1.
</event>
<event>
 7    1  0.4836188E-013  0.5052886E+02  0.7816164E-02  0.1300439E+00
        -11   -1    0    0    0    0  0.00000000000E+00  0.00000000000E+00  0.45593999997E+02  0.45594000000E+02  0.51100000000E-03 0. -1.
         11   -1    0    0    0    0 -0.00000000000E+00 -0.00000000000E+00 -0.45593999997E+02  0.45594000000E+02  0.51100000000E-03 0.  1.
    9900012    2    1    2    0    0 -0.10971937213E+02 -0.39017731838E+02 -0.32246656255E+01  0.50528864835E+02  0.30000015151E+02 0.  0.
         12    1    1    2    0    0  0.10971937213E+02  0.39017731838E+02  0.32246656255E+01  0.40659135165E+02  0.00000000000E+00 0. -1.
         11    1    3    3    0    0 -0.61655700094E+01 -0.13904558516E+02  0.59776869678E+01  0.16342696926E+02  0.51100000000E-03 0. -1.
        -11    1    3    3    0    0  0.49206398691E+01 -0.12802601351E+02  0.33202259132E+01  0.14111810602E+02  0.51100000000E-03 0.  1.
        -12    1    3    3    0    0 -0.97270070727E+01 -0.12310571970E+02 -0.12522578506E+02  0.20074357307E+02  0.00000000000E+00 0.  1.
</event>
<event>
 7    1  0.4836188E-013  0.5052886E+02  0.7816164E-02  0.1300439E+00
        -11   -1    0    0    0    0  0.00000000000E+00  0.00000000000E+00  0.45593999997E+02  0.45594000000E+02  0.51100000000E-03 0.  1.
         11   -1    0    0    0    0 -0.00000000000E+00 -0.00000000000E+00 -0.45593999997E+02  0.45594000000E+02  0.51100000000E-03 0. -1.
    9900012    2    1    2    0    0 -0.21361294500E+02 -0.34595146100E+02 -0.19117768654E+00  0.50528860987E+02  0.30000003456E+02 0.  0.
         12    1    1    2    0    0  0.21361294500E+02  0.34595146100E+02  0.19117768654E+00  0.40659139013E+02  0.00000000000E+00 0. -1.
         11    1    3    3    0    0  0.23332416987E+01 -0.30280189134E+01 -0.78045864876E+01  0.86904824877E+01  0.51100000000E-03 0. -1.
        -11    1    3    3    0    0 -0.11421359174E+02 -0.20087053896E+02 -0.63931082548E+00  0.23115923044E+02  0.51100000000E-03 0.  1.
        -12    1    3    3    0    0 -0.12273177024E+02 -0.11480073291E+02  0.82527196266E+01  0.18722455455E+02  0.00000000000E+00 0.  1.
</event>
<event>
 7    1  0.4836188E-013  0.5052886E+02  0.7816164E-02  0.1300439E+00
        -11   -1    0    0    0    0  0.00000000000E+00  0.00000000000E+00  0.45593999997E+02  0.45594000000E+02  0.51100000000E-03 0. -1.
         11   -1    0    0    0    0 -0.00000000000E+00 -0.00000000000E+00 -0.45593999997E+02  0.45594000000E+02  0.51100000000E-03 0.  1.
    9900012    2    1    2    0    0 -0.24183205984E+02 -0.32377505483E+02 -0.44760426915E+01  0.50528864850E+02  0.30000015198E+02 0.  0.
         12    1    1    2    0    0  0.24183205984E+02  0.32377505483E+02  0.44760426915E+01  0.40659135150E+02  0.00000000000E+00 0. -1.
         11    1    3    3    0    0 -0.21635742621E+01  0.25444491411E+01 -0.24574737927E+01  0.41466194330E+01  0.51100000000E-03 0. -1.
        -11    1    3    3    0    0 -0.94926666208E+01 -0.11745714991E+02 -0.10850848295E+02  0.18596060045E+02  0.51100000000E-03 0.  1.
        -12    1    3    3    0    0 -0.12526965101E+02 -0.23176239633E+02  0.88322793964E+01  0.27786185372E+02  0.00000000000E+00 0.  1.
</event>
<event>
 7    1  0.4836188E-013  0.5052886E+02  0.7816164E-02  0.1300439E+00
        -11   -1    0    0    0    0  0.00000000000E+00  0.00000000000E+00  0.45593999997E+02  0.45594000000E+02  0.51100000000E-03 0.  1.
         11   -1    0    0    0    0 -0.00000000000E+00 -0.00000000000E+00 -0.45593999997E+02  0.45594000000E+02  0.51100000000E-03 0. -1.
    9900012    2    1    2    0    0  0.74514697386E+01 -0.28665599200E+01  0.39867585847E+02  0.50528856277E+02  0.29999989139E+02 0.  0.
         12    1    1    2    0    0 -0.74514697386E+01  0.28665599200E+01 -0.39867585847E+02  0.40659143723E+02  0.00000000000E+00 0. -1.
         11    1    3    3    0    0  0.39509802991E+01 -0.33031055727E+01 -0.30600556291E+01  0.59903833319E+01  0.51100000000E-03 0. -1.
        -11    1    3    3    0    0  0.51040894098E+01  0.27694155919E+01  0.10594062915E+02  0.12081206923E+02  0.51100000000E-03 0.  1.
        -12    1    3    3    0    0 -0.16035999703E+01 -0.23328699392E+01  0.32333578561E+02  0.32457266022E+02  0.00000000000E+00 0.  1.
</event>
<event>
 7    1  0.4836188E-013  0.5052882E+02  0.7816164E-02  0.1300439E+00
        -11   -1    0    0    0    0  0.00000000000E+00  0.00000000000E+00  0.45593999997E+02  0.45594000000E+02  0.51100000000E-03 0. -1.
         11   -1    0    0    0    0 -0.00000000000E+00 -0.00000000000E+00 -0.45593999997E+02  0.45594000000E+02  0.51100000000E-03 0.  1.
    9900012    2    1    2    0    0  0.11882485045E+02  0.24964373105E+02 -0.29811999943E+02  0.50528822488E+02  0.29999886434E+02 0.  0.
         12    1    1    2    0    0 -0.11882485045E+02 -0.24964373105E+02  0.29811999943E+02  0.40659177512E+02  0.00000000000E+00 0. -1.
         11    1    3    3    0    0  0.50908527594E+01  0.11036665330E+02 -0.21153996628E+02  0.24397055909E+02  0.51100000000E-03 0. -1.
        -11    1    3    3    0    0  0.94594123911E+01  0.11754493885E+02 -0.13463326727E+02  0.20221517651E+02  0.51100000000E-03 0.  1.
         12    1    3    3    0    0 -0.26677801052E+01  0.21732138893E+01  0.48053234118E+01  0.59102489279E+01  0.00000000000E+00 0. -1.
</event>
<event>
 7    1  0.4836188E-013  0.5052886E+02  0.7816164E-02  0.1300439E+00
        -11   -1    0    0    0    0  0.00000000000E+00  0.00000000000E+00  0.45593999997E+02  0.45594000000E+02  0.51100000000E-03 0.  1.
         11   -1    0    0    0    0 -0.00000000000E+00 -0.00000000000E+00 -0.45593999997E+02  0.45594000000E+02  0.51100000000E-03 0. -1.
    9900012    2    1    2    0    0  0.23158502182E+02  0.10246310794E+02  0.31809789343E+02  0.50528858270E+02  0.29999995197E+02 0.  0.
         12    1    1    2    0    0 -0.23158502182E+02 -0.10246310794E+02 -0.31809789343E+02  0.40659141730E+02  0.00000000000E+00 0. -1.
         11    1    3    3    0    0 -0.98433934017E-01  0.83848977197E+01  0.11136582046E+02  0.13940575990E+02  0.51100000000E-03 0. -1.
        -11    1    3    3    0    0  0.12676999951E+02  0.10345379599E+02  0.13691467308E+02  0.21335170121E+02  0.51100000000E-03 0.  1.
        -12    1    3    3    0    0  0.10579936165E+02 -0.84839665245E+01  0.69817399894E+01  0.15253112159E+02  0.00000000000E+00 0.  1.
</event>
<event>
 7    1  0.4836188E-013  0.5052885E+02  0.7816164E-02  0.1300439E+00
        -11   -1    0    0    0    0  0.00000000000E+00  0.00000000000E+00  0.45593999997E+02  0.45594000000E+02  0.51100000000E-03 0. -1.
         11   -1    0    0    0    0 -0.00000000000E+00 -0.00000000000E+00 -0.45593999997E+02  0.45594000000E+02  0.51100000000E-03 0.  1.
    9900012    2    1    2    0    0  0.70220650339E+00 -0.35881428041E+02 -0.19110125227E+02  0.50528845331E+02  0.29999955869E+02 0.  0.
         12    1    1    2    0    0 -0.70220650339E+00  0.35881428041E+02  0.19110125227E+02  0.40659154669E+02  0.00000000000E+00 0. -1.
         11    1    3    3    0    0  0.35495604663E+01 -0.17621807449E+01  0.16791094025E+01  0.43039597034E+01  0.51100000000E-03 0. -1.
        -11    1    3    3    0    0  0.89257167106E+01 -0.12534859792E+02 -0.13786773983E+02  0.20660742144E+02  0.51100000000E-03 0.  1.
        -12    1    3    3    0    0 -0.11773070673E+02 -0.21584387503E+02 -0.70024606464E+01  0.25564143484E+02  0.00000000000E+00 0.  1.
</event>
<event>
 7    1  0.4836188E-013  0.5052886E+02  0.7816164E-02  0.1300439E+00
        -11   -1    0    0    0    0  0.00000000000E+00  0.00000000000E+00  0.45593999997E+02  0.45594000000E+02  0.51100000000E-03 0. -1.
         11   -1    0    0    0    0 -0.00000000000E+00 -0.00000000000E+00 -0.45593999997E+02  0.45594000000E+02  0.51100000000E-03 0.  1.
    9900012    2    1    2    0    0 -0.31112191389E+02  0.12559292143E+02 -0.22966530094E+02  0.50528858633E+02  0.29999996300E+02 0.  0.
         12    1    1    2    0    0  0.31112191389E+02 -0.12559292143E+02  0.22966530094E+02  0.40659141367E+02  0.00000000000E+00 0. -1.
         11    1    3    3    0    0 -0.13434894137E+01 -0.53377307219E+01 -0.12614057699E+01  0.56468998435E+01  0.51100000000E-03 0. -1.
        -11    1    3    3    0    0  0.11701047292E+01  0.55629688922E+01 -0.13330443241E+01  0.58389019006E+01  0.51100000000E-03 0.  1.
        -12    1    3    3    0    0 -0.30938806704E+02  0.12334053973E+02 -0.20372080000E+02  0.39043056889E+02  0.00000000000E+00 0.  1.
</event>
<event>
 7    1  0.4836188E-013  0.5052887E+02  0.7816164E-02  0.1300439E+00
        -11   -1    0    0    0    0  0.00000000000E+00  0.00000000000E+00  0.45593999997E+02  0.45594000000E+02  0.51100000000E-03 0. -1.
         11   -1    0    0    0    0 -0.00000000000E+00 -0.00000000000E+00 -0.45593999997E+02  0.45594000000E+02  0.51100000000E-03 0.  1.
    9900012    2    1    2    0    0  0.11850381348E+02  0.32748553489E+02 -0.20982508864E+02  0.50528868530E+02  0.30000026383E+02 0.  0.
         12    1    1    2    0    0 -0.11850381348E+02 -0.32748553489E+02  0.20982508864E+02  0.40659131470E+02  0.00000000000E+00 0. -1.
         11    1    3    3    0    0  0.29961267598E+01  0.59918575242E+01 -0.12488228429E+02  0.14171625938E+02  0.51100000000E-03 0. -1.
        -11    1    3    3    0    0  0.27955034516E+01  0.27003369070E+02 -0.11626168130E+02  0.29532432449E+02  0.51100000000E-03 0.  1.
         12    1    3    3    0    0  0.60587511365E+01 -0.24667310578E+00  0.31318876956E+01  0.68248101434E+01  0.00000000000E+00 0. -1.
</event>
<event>
 7    1  0.4836188E-013  0.5052884E+02  0.7816164E-02  0.1300439E+00
        -11   -1    0    0    0    0  0.00000000000E+00  0.00000000000E+00  0.45593999997E+02  0.45594000000E+02  0.51100000000E-03 0.  1.
         11   -1    0    0    0    0 -0.00000000000E+00 -0.00000000000E+00 -0.45593999997E+02  0.45594000000E+02  0.51100000000E-03 0. -1.
    9900012    2    1    2    0    0 -0.34061851507E+01 -0.21785589903E+02  0.34160701618E+02  0.50528836706E+02  0.29999929652E+02 0.  0.
         12    1    1    2    0    0  0.34061851507E+01  0.21785589903E+02 -0.34160701618E+02  0.40659163294E+02  0.00000000000E+00 0. -1.
         11    1    3    3    0    0  0.28788782709E+01  0.41689955040E+01 -0.13892925800E+01  0.52534367556E+01  0.51100000000E-03 0. -1.
        -11    1    3    3    0    0 -0.55681927586E+01 -0.12871694584E+02  0.12623552401E+02  0.18869005473E+02  0.51100000000E-03 0.  1.
        -12    1    3    3    0    0 -0.71687066304E+00 -0.13082890823E+02  0.22926441797E+02  0.26406394478E+02  0.00000000000E+00 0.  1.
</event>
<event>
 7    1  0.4836188E-013  0.5052887E+02  0.7816164E-02  0.1300439E+00
        -11   -1    0    0    0    0  0.00000000000E+00  0.00000000000E+00  0.45593999997E+02  0.45594000000E+02  0.51100000000E-03 0.  1.
         11   -1    0    0    0    0 -0.00000000000E+00 -0.00000000000E+00 -0.45593999997E+02  0.45594000000E+02  0.51100000000E-03 0. -1.
    9900012    2    1    2    0    0 -0.42697106857E+01  0.13145927662E+01  0.40412945057E+02  0.50528871731E+02  0.30000036112E+02 0.  0.
         12    1    1    2    0    0  0.42697106857E+01 -0.13145927662E+01 -0.40412945057E+02  0.40659128269E+02  0.00000000000E+00 0. -1.
         11    1    3    3    0    0 -0.79206810455E-01 -0.18850971787E+01 -0.15062386686E+01  0.24142535658E+01  0.51100000000E-03 0. -1.
        -11    1    3    3    0    0 -0.11755289224E+02 -0.45717695125E+01  0.19735175349E+02  0.23421465529E+02  0.51100000000E-03 0.  1.
         12    1    3    3    0    0  0.75647853484E+01  0.77714594574E+01  0.22184008376E+02  0.24693152636E+02  0.00000000000E+00 0. -1.
</event>
<event>
 7    1  0.4836188E-013  0.5052886E+02  0.7816164E-02  0.1300439E+00
        -11   -1    0    0    0    0  0.00000000000E+00  0.00000000000E+00  0.45593999997E+02  0.45594000000E+02  0.51100000000E-03 0.  1.
         11   -1    0    0    0    0 -0.00000000000E+00 -0.00000000000E+00 -0.45593999997E+02  0.45594000000E+02  0.51100000000E-03 0. -1.
    9900012    2    1    2    0    0  0.25401229207E+02  0.71586013559E+01  0.30930528651E+02  0.50528860544E+02  0.30000002111E+02 0.  0.
         12    1    1    2    0    0 -0.25401229207E+02 -0.71586013559E+01 -0.30930528651E+02  0.40659139456E+02  0.00000000000E+00 0. -1.
         11    1    3    3    0    0  0.13656061836E+01  0.50273086606E+01 -0.24138620941E+01  0.57415540656E+01  0.51100000000E-03 0. -1.
        -11    1    3    3    0    0  0.18069872374E+02  0.93942420292E+01  0.20776022238E+02  0.29093215209E+02  0.51100000000E-03 0.  1.
         12    1    3    3    0    0  0.59657506502E+01 -0.72629493339E+01  0.12568368507E+02  0.15694091270E+02  0.00000000000E+00 0. -1.
</event>
<event>
 7    1  0.4836188E-013  0.5052886E+02  0.7816164E-02  0.1300439E+00
        -11   -1    0    0    0    0  0.00000000000E+00  0.00000000000E+00  0.45593999997E+02  0.45594000000E+02  0.51100000000E-03 0.  1.
         11   -1    0    0    0    0 -0.00000000000E+00 -0.00000000000E+00 -0.45593999997E+02  0.45594000000E+02  0.51100000000E-03 0. -1.
    9900012    2    1    2    0    0  0.23808013375E+02  0.39081392484E+01  0.32727216141E+02  0.50528859212E+02  0.29999998062E+02 0.  0.
         12    1    1    2    0    0 -0.23808013375E+02 -0.39081392484E+01 -0.32727216141E+02  0.40659140788E+02  0.00000000000E+00 0. -1.
         11    1    3    3    0    0  0.15188722410E+02  0.62185453713E+01  0.67891334625E+01  0.17761191638E+02  0.51100000000E-03 0. -1.
        -11    1    3    3    0    0  0.13902879302E+02 -0.26800976188E+01  0.22020872940E+02  0.26179988950E+02  0.51100000000E-03 0.  1.
         12    1    3    3    0    0 -0.52835883368E+01  0.36969149586E+00  0.39172097391E+01  0.65876786242E+01  0.00000000000E+00 0. -1.
</event>
<event>
 7    1  0.4836188E-013  0.5052883E+02  0.7816164E-02  0.1300439E+00
        -11   -1    0    0    0    0  0.00000000000E+00  0.00000000000E+00  0.45593999997E+02  0.45594000000E+02  0.51100000000E-03 0. -1.
         11   -1    0    0    0    0 -0.00000000000E+00 -0.00000000000E+00 -0.45593999997E+02  0.45594000000E+02  0.51100000000E-03 0.  1.
    9900012    2    1    2    0    0  0.24869837734E+01 -0.25998683120E+01 -0.40499679608E+02  0.50528825736E+02  0.29999896306E+02 0.  0.
         12    1    1    2    0    0 -0.24869837734E+01  0.25998683120E+01  0.40499679608E+02  0.40659174264E+02  0.00000000000E+00 0. -1.
         11    1    3    3    0    0  0.72188572054E+01  0.46880741888E+01 -0.11153224511E+02  0.14088447615E+02  0.51100000000E-03 0. -1.
        -11    1    3    3    0    0  0.57647931556E+01  0.27942378542E+01 -0.13387395567E+02  0.14841258896E+02  0.51100000000E-03 0.  1.
         12    1    3    3    0    0 -0.10496666588E+02 -0.10082180355E+02 -0.15959059530E+02  0.21599119224E+02  0.00000000000E+00 0. -1.
</event>
<event>
 7    1  0.4836188E-013  0.5052885E+02  0.7816164E-02  0.1300439E+00
        -11   -1    0    0    0    0  0.00000000000E+00  0.00000000000E+00  0.45593999997E+02  0.45594000000E+02  0.51100000000E-03 0.  1.
         11   -1    0    0    0    0 -0.00000000000E+00 -0.00000000000E+00 -0.45593999997E+02  0.45594000000E+02  0.51100000000E-03 0. -1.
    9900012    2    1    2    0    0 -0.89280637638E+01 -0.39620012780E+02  0.19262832620E+01  0.50528852168E+02  0.29999976649E+02 0.  0.
         12    1    1    2    0    0  0.89280637638E+01  0.39620012780E+02 -0.19262832620E+01  0.40659147832E+02  0.00000000000E+00 0. -1.
         11    1    3    3    0    0 -0.10475756507E+02 -0.27252564358E+02 -0.55723878948E+01  0.29723647919E+02  0.51100000000E-03 0. -1.
        -11    1    3    3    0    0 -0.37607128162E+01  0.12581662438E+01 -0.72044776880E+00  0.40305072176E+01  0.51100000000E-03 0.  1.
        -12    1    3    3    0    0  0.53084055590E+01 -0.13625614665E+02  0.82191189257E+01  0.16774697031E+02  0.00000000000E+00 0.  1.
</event>
<event>
 7    1  0.4836188E-013  0.5052885E+02  0.7816164E-02  0.1300439E+00
        -11   -1    0    0    0    0  0.00000000000E+00  0.00000000000E+00  0.45593999997E+02  0.45594000000E+02  0.51100000000E-03 0. -1.
         11   -1    0    0    0    0 -0.00000000000E+00 -0.00000000000E+00 -0.45593999997E+02  0.45594000000E+02  0.51100000000E-03 0.  1.
    9900012    2    1    2    0    0  0.39494451366E+02  0.31833480456E+01 -0.91225610396E+01  0.50528849573E+02  0.29999968764E+02 0.  0.
         12    1    1    2    0    0 -0.39494451366E+02 -0.31833480456E+01  0.91225610396E+01  0.40659150427E+02  0.00000000000E+00 0. -1.
         11    1    3    3    0    0  0.49986110846E+01  0.41961195594E+01 -0.13288139834E+01  0.66602761951E+01  0.51100000000E-03 0.  1.
        -11    1    3    3    0    0  0.76439588689E+01 -0.10614014874E+02  0.29263306015E+01  0.13403388750E+02  0.51100000000E-03 0. -1.
         12    1    3    3    0    0  0.26851881413E+02  0.96012433602E+01 -0.10720077658E+02  0.30465184628E+02  0.00000000000E+00 0. -1.
</event>
<event>
 7    1  0.4836188E-013  0.5052886E+02  0.7816164E-02  0.1300439E+00
        -11   -1    0    0    0    0  0.00000000000E+00  0.00000000000E+00  0.45593999997E+02  0.45594000000E+02  0.51100000000E-03 0.  1.
         11   -1    0    0    0    0 -0.00000000000E+00 -0.00000000000E+00 -0.45593999997E+02  0.45594000000E+02  0.51100000000E-03 0. -1.
    9900012    2    1    2    0    0  0.37552172113E+02 -0.12266141545E+02 -0.96198445508E+01  0.50528864889E+02  0.30000015317E+02 0.  0.
         12    1    1    2    0    0 -0.37552172113E+02  0.12266141545E+02  0.96198445508E+01  0.40659135111E+02  0.00000000000E+00 0. -1.
         11    1    3    3    0    0  0.21442673358E+02 -0.45369736008E+01 -0.55155225782E+01  0.22600738036E+02  0.51100000000E-03 0. -1.
        -11    1    3    3    0    0  0.20124293968E+02 -0.10466687511E+02 -0.41945590643E+01  0.23068009909E+02  0.51100000000E-03 0.  1.
        -12    1    3    3    0    0 -0.40147952128E+01  0.27375195669E+01  0.90237091778E-01  0.48601169443E+01  0.00000000000E+00 0.  1.
</event>
<event>
 7    1  0.4836188E-013  0.5052885E+02  0.7816164E-02  0.1300439E+00
        -11   -1    0    0    0    0  0.00000000000E+00  0.00000000000E+00  0.45593999997E+02  0.45594000000E+02  0.51100000000E-03 0.  1.
         11   -1    0    0    0    0 -0.00000000000E+00 -0.00000000000E+00 -0.45593999997E+02  0.45594000000E+02  0.51100000000E-03 0. -1.
    9900012    2    1    2    0    0 -0.25464235102E+02  0.20923869647E+02  0.23810302486E+02  0.50528854722E+02  0.29999984412E+02 0.  0.
         12    1    1    2    0    0  0.25464235102E+02 -0.20923869647E+02 -0.23810302486E+02  0.40659145278E+02  0.00000000000E+00 0. -1.
         11    1    3    3    0    0 -0.23654571841E+02  0.12536329236E+02  0.20728401337E+02  0.33858011488E+02  0.51100000000E-03 0. -1.
        -11    1    3    3    0    0 -0.14332950872E+01 -0.17177874228E+01  0.57857851459E+01  0.62032603083E+01  0.51100000000E-03 0.  1.
         12    1    3    3    0    0 -0.37636817335E+00  0.10105327833E+02 -0.27038839968E+01  0.10467582925E+02  0.00000000000E+00 0. -1.
</event>
<event>
 7    1  0.4836188E-013  0.5052887E+02  0.7816164E-02  0.1300439E+00
        -11   -1    0    0    0    0  0.00000000000E+00  0.00000000000E+00  0.45593999997E+02  0.45594000000E+02  0.51100000000E-03 0.  1.
         11   -1    0    0    0    0 -0.00000000000E+00 -0.00000000000E+00 -0.45593999997E+02  0.45594000000E+02  0.51100000000E-03 0. -1.
    9900012    2    1    2    0    0  0.24809049241E+01  0.29391148763E+02  0.27985183546E+02  0.50528868025E+02  0.30000024849E+02 0.  0.
         12    1    1    2    0    0 -0.24809049241E+01 -0.29391148763E+02 -0.27985183546E+02  0.40659131975E+02  0.00000000000E+00 0. -1.
         11    1    3    3    0    0 -0.36450548787E+01  0.22272615844E+01  0.18591903729E+02  0.19076320499E+02  0.51100000000E-03 0. -1.
        -11    1    3    3    0    0  0.42266793020E+01  0.45442195952E+01 -0.13314436573E+01  0.63472428759E+01  0.51100000000E-03 0.  1.
        -12    1    3    3    0    0  0.18992805009E+01  0.22619667583E+02  0.10724723474E+02  0.25105304650E+02  0.00000000000E+00 0.  1.
</event>
<event>
 7    1  0.4836188E-013  0.5052885E+02  0.7816164E-02  0.1300439E+00
        -11   -1    0    0    0    0  0.00000000000E+00  0.00000000000E+00  0.45593999997E+02  0.45594000000E+02  0.51100000000E-03 0.  1.
         11   -1    0    0    0    0 -0.00000000000E+00 -0.00000000000E+00 -0.45593999997E+02  0.45594000000E+02  0.51100000000E-03 0. -1.
    9900012    2    1    2    0    0 -0.46958176008E+01 -0.21538949661E+02  0.34164148497E+02  0.50528854682E+02  0.29999984291E+02 0.  0.
         12    1    1    2    0    0  0.46958176008E+01  0.21538949661E+02 -0.34164148497E+02  0.40659145318E+02  0.00000000000E+00 0. -1.
         11    1    3    3    0    0 -0.89283762979E+01 -0.42647674320E+01  0.29868054622E+01  0.10335625366E+02  0.51100000000E-03 0. -1.
        -11    1    3    3    0    0 -0.38149204156E+01 -0.16879269181E+02  0.21623933351E+02  0.27695809064E+02  0.51100000000E-03 0.  1.
         12    1    3    3    0    0  0.80474791128E+01 -0.39491304843E+00  0.95534096836E+01  0.12497420253E+02  0.00000000000E+00 0. -1.
</event>
<event>
 7    1  0.4903643E-013  0.5052886E+02  0.7816164E-02  0.1300439E+00
        -11   -1    0    0    0    0  0.00000000000E+00  0.00000000000E+00  0.45593999997E+02  0.45594000000E+02  0.51100000000E-03 0.  1.
         11   -1    0    0    0    0 -0.00000000000E+00 -0.00000000000E+00 -0.45593999997E+02  0.45594000000E+02  0.51100000000E-03 0. -1.
    9900012    2    1    2    0    0 -0.39113859121E+02  0.76242645843E+01 -0.80711001168E+01  0.50528855360E+02  0.29999986351E+02 0.  0.
         12    1    1    2    0    0  0.39113859121E+02 -0.76242645843E+01  0.80711001168E+01  0.40659144640E+02  0.00000000000E+00 0. -1.
         11    1    3    3    0    0 -0.10081090993E+02  0.10525769413E+02 -0.30607282711E+01  0.14892557710E+02  0.51100000000E-03 0.  1.
        -11    1    3    3    0    0 -0.26832428994E+02  0.43073169860E+01 -0.65253778607E+01  0.27948394978E+02  0.51100000000E-03 0. -1.
         12    1    3    3    0    0 -0.22003391339E+01 -0.72088218149E+01  0.15150060150E+01  0.76879026716E+01  0.00000000000E+00 0. -1.
</event>
<event>
 7    1  0.4836188E-013  0.5052886E+02  0.7816164E-02  0.1300439E+00
        -11   -1    0    0    0    0  0.00000000000E+00  0.00000000000E+00  0.45593999997E+02  0.45594000000E+02  0.51100000000E-03 0.  1.
         11   -1    0    0    0    0 -0.00000000000E+00 -0.00000000000E+00 -0.45593999997E+02  0.45594000000E+02  0.51100000000E-03 0. -1.
    9900012    2    1    2    0    0  0.28653547011E+02 -0.28752771234E+02  0.23276192205E+01  0.50528863005E+02  0.30000009591E+02 0.  0.
         12    1    1    2    0    0 -0.28653547011E+02  0.28752771234E+02 -0.23276192205E+01  0.40659136995E+02  0.00000000000E+00 0. -1.
         11    1    3    3    0    0  0.20129005459E+02 -0.11260508794E+02 -0.83660330308E+01  0.24535004137E+02  0.51100000000E-03 0. -1.
        -11    1    3    3    0    0  0.88560918150E+01 -0.12273306695E+02  0.12341815409E+01  0.15185111912E+02  0.51100000000E-03 0.  1.
         12    1    3    3    0    0 -0.33155026249E+00 -0.52189557445E+01  0.94594707103E+01  0.10808746956E+02  0.00000000000E+00 0. -1.
</event>
<event>
 7    1  0.4836188E-013  0.5052886E+02  0.7816164E-02  0.1300439E+00
        -11   -1    0    0    0    0  0.00000000000E+00  0.00000000000E+00  0.45593999997E+02  0.45594000000E+02  0.51100000000E-03 0.  1.
         11   -1    0    0    0    0 -0.00000000000E+00 -0.00000000000E+00 -0.45593999997E+02  0.45594000000E+02  0.51100000000E-03 0. -1.
    9900012    2    1    2    0    0 -0.89744291141E+01 -0.23095220315E+02  0.32237180777E+02  0.50528863219E+02  0.30000010241E+02 0.  0.
         12    1    1    2    0    0  0.89744291141E+01  0.23095220315E+02 -0.32237180777E+02  0.40659136781E+02  0.00000000000E+00 0. -1.
         11    1    3    3    0    0 -0.31398435035E+01 -0.51012689046E+01 -0.29497886560E+01  0.66770363965E+01  0.51100000000E-03 0. -1.
        -11    1    3    3    0    0 -0.10701362645E+02 -0.17003302931E+02  0.22166631350E+02  0.29916400497E+02  0.51100000000E-03 0.  1.
         12    1    3    3    0    0  0.48667770341E+01 -0.99064847997E+00  0.13020338082E+02  0.13935426326E+02  0.00000000000E+00 0. -1.
</event>
<event>
 7    1  0.4836188E-013  0.5052886E+02  0.7816164E-02  0.1300439E+00
        -11   -1    0    0    0    0  0.00000000000E+00  0.00000000000E+00  0.45593999997E+02  0.45594000000E+02  0.51100000000E-03 0.  1.
         11   -1    0    0    0    0 -0.00000000000E+00 -0.00000000000E+00 -0.45593999997E+02  0.45594000000E+02  0.51100000000E-03 0. -1.
    9900012    2    1    2    0    0  0.29072193585E+02 -0.28207388205E+02  0.35094834533E+01  0.50528860028E+02  0.30000000541E+02 0.  0.
         12    1    1    2    0    0 -0.29072193585E+02  0.28207388205E+02 -0.35094834533E+01  0.40659139972E+02  0.00000000000E+00 0. -1.
         11    1    3    3    0    0 -0.10577276685E+01  0.55631502158E-02  0.11984098921E+01  0.15984383941E+01  0.51100000000E-03 0. -1.
        -11    1    3    3    0    0  0.25756261759E+02 -0.11251227422E+02 -0.71782607473E+01  0.29008663635E+02  0.51100000000E-03 0.  1.
        -12    1    3    3    0    0  0.43736594948E+01 -0.16961723932E+02  0.94893343085E+01  0.19921757999E+02  0.00000000000E+00 0.  1.
</event>
<event>
 7    1  0.4836188E-013  0.5052885E+02  0.7816164E-02  0.1300439E+00
        -11   -1    0    0    0    0  0.00000000000E+00  0.00000000000E+00  0.45593999997E+02  0.45594000000E+02  0.51100000000E-03 0.  1.
         11   -1    0    0    0    0 -0.00000000000E+00 -0.00000000000E+00 -0.45593999997E+02  0.45594000000E+02  0.51100000000E-03 0. -1.
    9900012    2    1    2    0    0  0.25699738021E+02  0.89304120239E+01  0.30214853184E+02  0.50528854090E+02  0.29999982491E+02 0.  0.
         12    1    1    2    0    0 -0.25699738021E+02 -0.89304120239E+01 -0.30214853184E+02  0.40659145910E+02  0.00000000000E+00 0. -1.
         11    1    3    3    0    0  0.87627774715E+01  0.37576365965E+01  0.24403684448E+00  0.95375917322E+01  0.51100000000E-03 0. -1.
        -11    1    3    3    0    0  0.34616139136E+01  0.11773015345E+02  0.90581910587E+01  0.15252458383E+02  0.51100000000E-03 0.  1.
        -12    1    3    3    0    0  0.13475346636E+02 -0.66002399177E+01  0.20912625280E+02  0.25738803975E+02  0.00000000000E+00 0.  1.
</event>
<event>
 7    1  0.4836188E-013  0.5052885E+02  0.7816164E-02  0.1300439E+00
        -11   -1    0    0    0    0  0.00000000000E+00  0.00000000000E+00  0.45593999997E+02  0.45594000000E+02  0.51100000000E-03 0. -1.
         11   -1    0    0    0    0 -0.00000000000E+00 -0.00000000000E+00 -0.45593999997E+02  0.45594000000E+02  0.51100000000E-03 0.  1.
    9900012    2    1    2    0    0  0.33555458152E+02  0.87699261883E+01 -0.21219951187E+02  0.50528847211E+02  0.29999961583E+02 0.  0.
         12    1    1    2    0    0 -0.33555458152E+02 -0.87699261883E+01  0.21219951187E+02  0.40659152789E+02  0.00000000000E+00 0. -1.
         11    1    3    3    0    0  0.21158009244E+02 -0.31105508840E+01 -0.14435246706E+02  0.25801419142E+02  0.51100000000E-03 0. -1.
        -11    1    3    3    0    0  0.14637288778E+02  0.82690968844E+01 -0.10661818591E+00  0.16811887276E+02  0.51100000000E-03 0.  1.
         12    1    3    3    0    0 -0.22398398707E+01  0.36113801879E+01 -0.66780862945E+01  0.79155407942E+01  0.00000000000E+00 0. -1.
</event>
<event>
 7    1  0.4836188E-013  0.5052885E+02  0.7816164E-02  0.1300439E+00
        -11   -1    0    0    0    0  0.00000000000E+00  0.00000000000E+00  0.45593999997E+02  0.45594000000E+02  0.51100000000E-03 0.  1.
         11   -1    0    0    0    0 -0.00000000000E+00 -0.00000000000E+00 -0.45593999997E+02  0.45594000000E+02  0.51100000000E-03 0. -1.
    9900012    2    1    2    0    0  0.18577762789E+02  0.25963885411E+02  0.25177569309E+02  0.50528848359E+02  0.29999965072E+02 0.  0.
         12    1    1    2    0    0 -0.18577762789E+02 -0.25963885411E+02 -0.25177569309E+02  0.40659151641E+02  0.00000000000E+00 0. -1.
         11    1    3    3    0    0 -0.67142539421E+01  0.88279366813E+01  0.89398526135E+01  0.14245512875E+02  0.51100000000E-03 0. -1.
        -11    1    3    3    0    0  0.48649390442E+01  0.85764513754E+01  0.78385953421E+01  0.12596298158E+02  0.51100000000E-03 0.  1.
         12    1    3    3    0    0  0.20427077687E+02  0.85594973543E+01  0.83991213531E+01  0.23687037326E+02  0.00000000000E+00 0. -1.
</event>
<event>
 7    1  0.4836188E-013  0.5052887E+02  0.7816164E-02  0.1300439E+00
        -11   -1    0    0    0    0  0.00000000000E+00  0.00000000000E+00  0.45593999997E+02  0.45594000000E+02  0.51100000000E-03 0. -1.
         11   -1    0    0    0    0 -0.00000000000E+00 -0.00000000000E+00 -0.45593999997E+02  0.45594000000E+02  0.51100000000E-03 0.  1.
    9900012    2    1    2    0    0 -0.12726260043E+02 -0.32569177382E+02 -0.20747435931E+02  0.50528866859E+02  0.30000021305E+02 0.  0.
         12    1    1    2    0    0  0.12726260043E+02  0.32569177382E+02  0.20747435931E+02  0.40659133141E+02  0.00000000000E+00 0. -1.
         11    1    3    3    0    0 -0.61080160661E+01 -0.46141984268E+01 -0.12989904782E+01  0.77644100812E+01  0.51100000000E-03 0. -1.
        -11    1    3    3    0    0 -0.43908012959E+01 -0.28357165815E+02 -0.62429043918E+01  0.29366338631E+02  0.51100000000E-03 0.  1.
        -12    1    3    3    0    0 -0.22274426813E+01  0.40218685966E+00 -0.13205541061E+02  0.13398118147E+02  0.00000000000E+00 0.  1.
</event>
<event>
 7    1  0.4836188E-013  0.5052889E+02  0.7816164E-02  0.1300439E+00
        -11   -1    0    0    0    0  0.00000000000E+00  0.00000000000E+00  0.45593999997E+02  0.45594000000E+02  0.51100000000E-03 0.  1.
         11   -1    0    0    0    0 -0.00000000000E+00 -0.00000000000E+00 -0.45593999997E+02  0.45594000000E+02  0.51100000000E-03 0. -1.
    9900012    2    1    2    0    0 -0.85737300230E+00  0.19530470022E+02  0.35650933584E+02  0.50528887699E+02  0.30000084648E+02 0.  0.
         12    1    1    2    0    0  0.85737300230E+00 -0.19530470022E+02 -0.35650933584E+02  0.40659112301E+02  0.00000000000E+00 0. -1.
         11    1    3    3    0    0  0.14449550897E+01 -0.29045840648E+01  0.21847166805E+01  0.39112007154E+01  0.51100000000E-03 0. -1.
        -11    1    3    3    0    0 -0.41187493336E+01  0.17698173936E+02  0.66874975371E+01  0.19362646521E+02  0.51100000000E-03 0.  1.
         12    1    3    3    0    0  0.18164212416E+01  0.47368801513E+01  0.26778719366E+02  0.27255040462E+02  0.00000000000E+00 0. -1.
</event>
<event>
 7    1  0.4836188E-013  0.5052886E+02  0.7816164E-02  0.1300439E+00
        -11   -1    0    0    0    0  0.00000000000E+00  0.00000000000E+00  0.45593999997E+02  0.45594000000E+02  0.51100000000E-03 0.  1.
         11   -1    0    0    0    0 -0.00000000000E+00 -0.00000000000E+00 -0.45593999997E+02  0.45594000000E+02  0.51100000000E-03 0. -1.
    9900012    2    1    2    0    0 -0.16083290896E+01  0.30794262757E+02 -0.26500795369E+02  0.50528862080E+02  0.30000006778E+02 0.  0.
         12    1    1    2    0    0  0.16083290896E+01 -0.30794262757E+02  0.26500795369E+02  0.40659137920E+02  0.00000000000E+00 0. -1.
         11    1    3    3    0    0  0.48613090865E+01  0.18999138917E+02 -0.25766545453E+02  0.32380773160E+02  0.51100000000E-03 0. -1.
        -11    1    3    3    0    0  0.35986001873E+01  0.22497366293E+01 -0.48923663367E+00  0.42720710381E+01  0.51100000000E-03 0.  1.
        -12    1    3    3    0    0 -0.10068238363E+02  0.95453872101E+01 -0.24501328302E+00  0.13876017881E+02  0.00000000000E+00 0.  1.
</event>
<event>
 7    1  0.4836188E-013  0.5052886E+02  0.7816164E-02  0.1300439E+00
        -11   -1    0    0    0    0  0.00000000000E+00  0.00000000000E+00  0.45593999997E+02  0.45594000000E+02  0.51100000000E-03 0. -1.
         11   -1    0    0    0    0 -0.00000000000E+00 -0.00000000000E+00 -0.45593999997E+02  0.45594000000E+02  0.51100000000E-03 0.  1.
    9900012    2    1    2    0    0 -0.39158707082E+02  0.99293290385E+01  0.46010681956E+01  0.50528859034E+02  0.29999997521E+02 0.  0.
         12    1    1    2    0    0  0.39158707082E+02 -0.99293290385E+01 -0.46010681956E+01  0.40659140966E+02  0.00000000000E+00 0. -1.
         11    1    3    3    0    0 -0.51449751605E+01  0.82243065573E+01 -0.50555443525E+01  0.10939310614E+02  0.51100000000E-03 0. -1.
        -11    1    3    3    0    0 -0.22238325482E+02  0.39949460848E+01  0.14285343234E+02  0.26731512229E+02  0.51100000000E-03 0.  1.
         12    1    3    3    0    0 -0.11775406440E+02 -0.22899236037E+01 -0.46287306860E+01  0.12858036191E+02  0.00000000000E+00 0. -1.
</event>
<event>
 7    1  0.4836188E-013  0.5052885E+02  0.7816164E-02  0.1300439E+00
        -11   -1    0    0    0    0  0.00000000000E+00  0.00000000000E+00  0.45593999997E+02  0.45594000000E+02  0.51100000000E-03 0. -1.
         11   -1    0    0    0    0 -0.00000000000E+00 -0.00000000000E+00 -0.45593999997E+02  0.45594000000E+02  0.51100000000E-03 0.  1.
    9900012    2    1    2    0    0 -0.27988777425E+02 -0.22130874072E+02 -0.19494072732E+02  0.50528854404E+02  0.29999983446E+02 0.  0.
         12    1    1    2    0    0  0.27988777425E+02  0.22130874072E+02  0.19494072732E+02  0.40659145596E+02  0.00000000000E+00 0. -1.
         11    1    3    3    0    0 -0.99703501619E+01 -0.19965614507E+02 -0.12633279544E+02  0.25644363850E+02  0.51100000000E-03 0.  1.
        -11    1    3    3    0    0 -0.11054265683E+02 -0.45535835301E+01  0.32387260922E+01  0.12386333587E+02  0.51100000000E-03 0. -1.
         12    1    3    3    0    0 -0.69641615797E+01  0.23883239656E+01 -0.10099519280E+02  0.12498156967E+02  0.00000000000E+00 0. -1.
</event>
<event>
 7    1  0.4836188E-013  0.5052886E+02  0.7816164E-02  0.1300439E+00
        -11   -1    0    0    0    0  0.00000000000E+00  0.00000000000E+00  0.45593999997E+02  0.45594000000E+02  0.51100000000E-03 0.  1.
         11   -1    0    0    0    0 -0.00000000000E+00 -0.00000000000E+00 -0.45593999997E+02  0.45594000000E+02  0.51100000000E-03 0. -1.
    9900012    2    1    2    0    0 -0.25603671455E+02  0.33178035052E+01  0.31410340621E+02  0.50528864372E+02  0.30000013745E+02 0.  0.
         12    1    1    2    0    0  0.25603671455E+02 -0.33178035052E+01 -0.31410340621E+02  0.40659135628E+02  0.00000000000E+00 0. -1.
         11    1    3    3    0    0 -0.77150666358E+01  0.25944259055E+01  0.28015717908E+02  0.29174196632E+02  0.51100000000E-03 0. -1.
        -11    1    3    3    0    0 -0.86240208844E+01  0.85716613825E+00  0.72693314146E+01  0.11311571486E+02  0.51100000000E-03 0.  1.
         12    1    3    3    0    0 -0.92645839347E+01 -0.13378853854E+00 -0.38747087009E+01  0.10043096254E+02  0.00000000000E+00 0. -1.
</event>
<event>
 7    1  0.4836188E-013  0.5052892E+02  0.7816164E-02  0.1300439E+00
        -11   -1    0    0    0    0  0.00000000000E+00  0.00000000000E+00  0.45593999997E+02  0.45594000000E+02  0.51100000000E-03 0.  1.
         11   -1    0    0    0    0 -0.00000000000E+00 -0.00000000000E+00 -0.45593999997E+02  0.45594000000E+02  0.51100000000E-03 0. -1.
    9900012    2    1    2    0    0 -0.94021006794E+01 -0.32254951914E+02  0.22899327024E+02  0.50528922313E+02  0.30000189863E+02 0.  0.
         12    1    1    2    0    0  0.94021006794E+01  0.32254951914E+02 -0.22899327024E+02  0.40659077687E+02  0.00000000000E+00 0. -1.
         11    1    3    3    0    0 -0.94808020659E+00  0.11032654879E+01 -0.20016204765E+01  0.24743758017E+01  0.51100000000E-03 0. -1.
        -11    1    3    3    0    0  0.33669539882E+01 -0.24440569830E+02  0.88349657322E+01  0.26205618721E+02  0.51100000000E-03 0.  1.
         12    1    3    3    0    0 -0.11820974461E+02 -0.89176475716E+01  0.16065981769E+02  0.21848927791E+02  0.00000000000E+00 0. -1.
</event>
<event>
 7    1  0.4836188E-013  0.5052883E+02  0.7816164E-02  0.1300439E+00
        -11   -1    0    0    0    0  0.00000000000E+00  0.00000000000E+00  0.45593999997E+02  0.45594000000E+02  0.51100000000E-03 0. -1.
         11   -1    0    0    0    0 -0.00000000000E+00 -0.00000000000E+00 -0.45593999997E+02  0.45594000000E+02  0.51100000000E-03 0.  1.
    9900012    2    1    2    0    0 -0.30507685768E+02  0.15581439709E+02  0.21901314601E+02  0.50528834545E+02  0.29999923081E+02 0.  0.
         12    1    1    2    0    0  0.30507685768E+02 -0.15581439709E+02 -0.21901314601E+02  0.40659165455E+02  0.00000000000E+00 0. -1.
         11    1    3    3    0    0 -0.72323503217E+01 -0.22226489675E+01  0.10936127569E+02  0.13298343734E+02  0.51100000000E-03 0. -1.
        -11    1    3    3    0    0 -0.69814550459E+00  0.11651870746E+02  0.66544445408E+01  0.13436336236E+02  0.51100000000E-03 0.  1.
        -12    1    3    3    0    0 -0.22577189941E+02  0.61522179300E+01  0.43107424915E+01  0.23794154575E+02  0.00000000000E+00 0.  1.
</event>
<event>
 7    1  0.4836188E-013  0.5052885E+02  0.7816164E-02  0.1300439E+00
        -11   -1    0    0    0    0  0.00000000000E+00  0.00000000000E+00  0.45593999997E+02  0.45594000000E+02  0.51100000000E-03 0. -1.
         11   -1    0    0    0    0 -0.00000000000E+00 -0.00000000000E+00 -0.45593999997E+02  0.45594000000E+02  0.51100000000E-03 0.  1.
    9900012    2    1    2    0    0  0.40485614964E+02 -0.26767626506E+00 -0.37429955644E+01  0.50528847459E+02  0.29999962335E+02 0.  0.
         12    1    1    2    0    0 -0.40485614964E+02  0.26767626506E+00  0.37429955644E+01  0.40659152541E+02  0.00000000000E+00 0. -1.
         11    1    3    3    0    0  0.33335453861E+02  0.11122884279E+02 -0.78672269652E+01  0.36012002155E+02  0.51100000000E-03 0.  1.
        -11    1    3    3    0    0  0.21189482958E+01 -0.41595607341E+01  0.31993698307E+01  0.56593157674E+01  0.51100000000E-03 0. -1.
        -12    1    3    3    0    0  0.50312128072E+01 -0.72309998103E+01  0.92486157007E+00  0.88575295366E+01  0.00000000000E+00 0.  1.
</event>
<event>
 7    1  0.4836188E-013  0.5052886E+02  0.7816164E-02  0.1300439E+00
        -11   -1    0    0    0    0  0.00000000000E+00  0.00000000000E+00  0.45593999997E+02  0.45594000000E+02  0.51100000000E-03 0. -1.
         11   -1    0    0    0    0 -0.00000000000E+00 -0.00000000000E+00 -0.45593999997E+02  0.45594000000E+02  0.51100000000E-03 0.  1.
    9900012    2    1    2    0    0 -0.29363660399E+02 -0.28011813480E+02 -0.25058203371E+01  0.50528863486E+02  0.30000011053E+02 0.  0.
         12    1    1    2    0    0  0.29363660399E+02  0.28011813480E+02  0.25058203371E+01  0.40659136514E+02  0.00000000000E+00 0. -1.
         11    1    3    3    0    0 -0.41795121101E+01 -0.12780056180E+02 -0.10093686818E+02  0.16813110102E+02  0.51100000000E-03 0. -1.
        -11    1    3    3    0    0 -0.10726616497E+02 -0.20074512709E+01 -0.31691028740E+01  0.11363686698E+02  0.51100000000E-03 0.  1.
         12    1    3    3    0    0 -0.14457531793E+02 -0.13224306029E+02  0.10756969355E+02  0.22352066687E+02  0.00000000000E+00 0. -1.
</event>
<event>
 7    1  0.4836188E-013  0.5052886E+02  0.7816164E-02  0.1300439E+00
        -11   -1    0    0    0    0  0.00000000000E+00  0.00000000000E+00  0.45593999997E+02  0.45594000000E+02  0.51100000000E-03 0.  1.
         11   -1    0    0    0    0 -0.00000000000E+00 -0.00000000000E+00 -0.45593999997E+02  0.45594000000E+02  0.51100000000E-03 0. -1.
    9900012    2    1    2    0    0 -0.33224542327E+02 -0.17405295504E+02  0.15695565626E+02  0.50528864437E+02  0.30000013941E+02 0.  0.
         12    1    1    2    0    0  0.33224542327E+02  0.17405295504E+02 -0.15695565626E+02  0.40659135563E+02  0.00000000000E+00 0. -1.
         11    1    3    3    0    0 -0.80538100070E+01 -0.15582811671E+02  0.67349200006E+01  0.18789545574E+02  0.51100000000E-03 0. -1.
        -11    1    3    3    0    0  0.11415537696E+01  0.34976567146E+00  0.48801193484E+01  0.50240467901E+01  0.51100000000E-03 0.  1.
         12    1    3    3    0    0 -0.26312286090E+02 -0.21722495042E+01  0.40805262769E+01  0.26715272072E+02  0.00000000000E+00 0. -1.
</event>
<event>
 7    1  0.4836188E-013  0.5052886E+02  0.7816164E-02  0.1300439E+00
        -11   -1    0    0    0    0  0.00000000000E+00  0.00000000000E+00  0.45593999997E+02  0.45594000000E+02  0.51100000000E-03 0.  1.
         11   -1    0    0    0    0 -0.00000000000E+00 -0.00000000000E+00 -0.45593999997E+02  0.45594000000E+02  0.51100000000E-03 0. -1.
    9900012    2    1    2    0    0 -0.25929814660E+02 -0.89705997823E+01  0.30005647613E+02  0.50528857886E+02  0.29999994032E+02 0.  0.
         12    1    1    2    0    0  0.25929814660E+02  0.89705997823E+01 -0.30005647613E+02  0.40659142114E+02  0.00000000000E+00 0. -1.
         11    1    3    3    0    0  0.21610017466E+00  0.15458911424E+01  0.29463200362E+00  0.15884857532E+01  0.51100000000E-03 0. -1.
        -11    1    3    3    0    0 -0.67168539500E+01 -0.15925367131E+02  0.20369054415E+02  0.26713888210E+02  0.51100000000E-03 0.  1.
         12    1    3    3    0    0 -0.19429060884E+02  0.54088762061E+01  0.93419611940E+01  0.22226483924E+02  0.00000000000E+00 0. -1.
</event>
<event>
 7    1  0.4836188E-013  0.5052887E+02  0.7816164E-02  0.1300439E+00
        -11   -1    0    0    0    0  0.00000000000E+00  0.00000000000E+00  0.45593999997E+02  0.45594000000E+02  0.51100000000E-03 0. -1.
         11   -1    0    0    0    0 -0.00000000000E+00 -0.00000000000E+00 -0.45593999997E+02  0.45594000000E+02  0.51100000000E-03 0.  1.
    9900012    2    1    2    0    0  0.32441867623E+02 -0.20917413047E+02 -0.12773104451E+02  0.50528866453E+02  0.30000020071E+02 0.  0.
         12    1    1    2    0    0 -0.32441867623E+02  0.20917413047E+02  0.12773104451E+02  0.40659133547E+02  0.00000000000E+00 0. -1.
         11    1    3    3    0    0 -0.40047546044E+00  0.10351819769E+01 -0.23219356481E+01  0.25735904365E+01  0.51100000000E-03 0. -1.
        -11    1    3    3    0    0  0.35379304057E+02 -0.18073300258E+02 -0.13994276525E+02  0.42121005609E+02  0.51100000000E-03 0.  1.
         12    1    3    3    0    0 -0.25369609735E+01 -0.38792947662E+01  0.35431077218E+01  0.58342704079E+01  0.00000000000E+00 0. -1.
</event>
<event>
 7    1  0.4836188E-013  0.5052887E+02  0.7816164E-02  0.1300439E+00
        -11   -1    0    0    0    0  0.00000000000E+00  0.00000000000E+00  0.45593999997E+02  0.45594000000E+02  0.51100000000E-03 0.  1.
         11   -1    0    0    0    0 -0.00000000000E+00 -0.00000000000E+00 -0.45593999997E+02  0.45594000000E+02  0.51100000000E-03 0. -1.
    9900012    2    1    2    0    0  0.11400087156E+02  0.26875387116E+02  0.28300470912E+02  0.50528867279E+02  0.30000022581E+02 0.  0.
         12    1    1    2    0    0 -0.11400087156E+02 -0.26875387116E+02 -0.28300470912E+02  0.40659132721E+02  0.00000000000E+00 0. -1.
         11    1    3    3    0    0  0.19832557351E+01  0.10010249334E+02  0.14045174890E+02  0.17361029145E+02  0.51100000000E-03 0.  1.
        -11    1    3    3    0    0 -0.83192361121E+00 -0.41315820559E+01 -0.20398537566E+01  0.46822078968E+01  0.51100000000E-03 0. -1.
         12    1    3    3    0    0  0.10248755032E+02  0.20996719839E+02  0.16295149779E+02  0.28485630237E+02  0.00000000000E+00 0. -1.
</event>
<event>
 7    1  0.4836188E-013  0.5052886E+02  0.7816164E-02  0.1300439E+00
        -11   -1    0    0    0    0  0.00000000000E+00  0.00000000000E+00  0.45593999997E+02  0.45594000000E+02  0.51100000000E-03 0.  1.
         11   -1    0    0    0    0 -0.00000000000E+00 -0.00000000000E+00 -0.45593999997E+02  0.45594000000E+02  0.51100000000E-03 0. -1.
    9900012    2    1    2    0    0 -0.14113460341E+02  0.34708965771E+02  0.15788086449E+02  0.50528859067E+02  0.29999997620E+02 0.  0.
         12    1    1    2    0    0  0.14113460341E+02 -0.34708965771E+02 -0.15788086449E+02  0.40659140933E+02  0.00000000000E+00 0. -1.
         11    1    3    3    0    0  0.12789073073E+01  0.21559703698E+01  0.62807355847E+01  0.67625033739E+01  0.51100000000E-03 0. -1.
        -11    1    3    3    0    0 -0.19301117630E+02  0.24600878274E+02  0.13486296469E+02  0.34053142973E+02  0.51100000000E-03 0.  1.
         12    1    3    3    0    0  0.39087499814E+01  0.79521171268E+01 -0.39789456050E+01  0.97132127199E+01  0.00000000000E+00 0. -1.
</event>
<event>
 7    1  0.4836188E-013  0.5052886E+02  0.7816164E-02  0.1300439E+00
        -11   -1    0    0    0    0  0.00000000000E+00  0.00000000000E+00  0.45593999997E+02  0.45594000000E+02  0.51100000000E-03 0.  1.
         11   -1    0    0    0    0 -0.00000000000E+00 -0.00000000000E+00 -0.45593999997E+02  0.45594000000E+02  0.51100000000E-03 0. -1.
    9900012    2    1    2    0    0 -0.46763675742E+01 -0.13511394482E+02  0.38062305438E+02  0.50528864621E+02  0.30000014502E+02 0.  0.
         12    1    1    2    0    0  0.46763675742E+01  0.13511394482E+02 -0.38062305438E+02  0.40659135379E+02  0.00000000000E+00 0. -1.
         11    1    3    3    0    0 -0.72240289571E+01 -0.60472353323E+01  0.94214933585E+01  0.13323670174E+02  0.51100000000E-03 0. -1.
        -11    1    3    3    0    0 -0.82067902434E+01 -0.95379311645E+01  0.17768835132E+02  0.21772805038E+02  0.51100000000E-03 0.  1.
         12    1    3    3    0    0  0.10754451626E+02  0.20737720148E+01  0.10871976947E+02  0.15432389409E+02  0.00000000000E+00 0. -1.
</event>
<event>
 7    1  0.4836188E-013  0.5052885E+02  0.7816164E-02  0.1300439E+00
        -11   -1    0    0    0    0  0.00000000000E+00  0.00000000000E+00  0.45593999997E+02  0.45594000000E+02  0.51100000000E-03 0.  1.
         11   -1    0    0    0    0 -0.00000000000E+00 -0.00000000000E+00 -0.45593999997E+02  0.45594000000E+02  0.51100000000E-03 0. -1.
    9900012    2    1    2    0    0  0.53993286990E+01  0.31139094271E+02  0.25580664441E+02  0.50528851760E+02  0.29999975409E+02 0.  0.
         12    1    1    2    0    0 -0.53993286990E+01 -0.31139094271E+02 -0.25580664441E+02  0.40659148240E+02  0.00000000000E+00 0. -1.
         11    1    3    3    0    0  0.24920542796E+00  0.67338683724E+01  0.12382909388E+02  0.14097642773E+02  0.51100000000E-03 0.  1.
        -11    1    3    3    0    0  0.54664437862E+01  0.26336569959E+02  0.17234091912E+02  0.31945435498E+02  0.51100000000E-03 0. -1.
        -12    1    3    3    0    0 -0.31632051506E+00 -0.19313440603E+01 -0.40363368593E+01  0.44857734885E+01  0.00000000000E+00 0.  1.
</event>
<event>
 7    1  0.4836188E-013  0.5052886E+02  0.7816164E-02  0.1300439E+00
        -11   -1    0    0    0    0  0.00000000000E+00  0.00000000000E+00  0.45593999997E+02  0.45594000000E+02  0.51100000000E-03 0.  1.
         11   -1    0    0    0    0 -0.00000000000E+00 -0.00000000000E+00 -0.45593999997E+02  0.45594000000E+02  0.51100000000E-03 0. -1.
    9900012    2    1    2    0    0  0.10282526015E+02 -0.24150015614E+02  0.31051759212E+02  0.50528863935E+02  0.30000012416E+02 0.  0.
         12    1    1    2    0    0 -0.10282526015E+02  0.24150015614E+02 -0.31051759212E+02  0.40659136065E+02  0.00000000000E+00 0. -1.
         11    1    3    3    0    0  0.12723644860E+02 -0.10435913944E+02  0.19342855670E+02  0.25395777289E+02  0.51100000000E-03 0. -1.
        -11    1    3    3    0    0 -0.78399940290E-01 -0.10820339788E+02  0.16080824179E+02  0.19382435508E+02  0.51100000000E-03 0.  1.
         12    1    3    3    0    0 -0.23627189043E+01 -0.28937618815E+01 -0.43719206373E+01  0.57506511376E+01  0.00000000000E+00 0. -1.
</event>
<event>
 7    1  0.4836188E-013  0.5052886E+02  0.7816164E-02  0.1300439E+00
        -11   -1    0    0    0    0  0.00000000000E+00  0.00000000000E+00  0.45593999997E+02  0.45594000000E+02  0.51100000000E-03 0.  1.
         11   -1    0    0    0    0 -0.00000000000E+00 -0.00000000000E+00 -0.45593999997E+02  0.45594000000E+02  0.51100000000E-03 0. -1.
    9900012    2    1    2    0    0 -0.29027848570E+02  0.14109401951E+02  0.24728006148E+02  0.50528861986E+02  0.30000006493E+02 0.  0.
         12    1    1    2    0    0  0.29027848570E+02 -0.14109401951E+02 -0.24728006148E+02  0.40659138014E+02  0.00000000000E+00 0. -1.
         11    1    3    3    0    0 -0.85500759930E+01  0.14894311016E+02  0.16936006951E+01  0.17257247280E+02  0.51100000000E-03 0. -1.
        -11    1    3    3    0    0 -0.74644651491E+01 -0.39246018734E+01  0.25673440080E+01  0.88154407345E+01  0.51100000000E-03 0.  1.
        -12    1    3    3    0    0 -0.13013307428E+02  0.31396928085E+01  0.20467061445E+02  0.24456173971E+02  0.00000000000E+00 0.  1.
</event>
<event>
 7    1  0.4836188E-013  0.5052886E+02  0.7816164E-02  0.1300439E+00
        -11   -1    0    0    0    0  0.00000000000E+00  0.00000000000E+00  0.45593999997E+02  0.45594000000E+02  0.51100000000E-03 0.  1.
         11   -1    0    0    0    0 -0.00000000000E+00 -0.00000000000E+00 -0.45593999997E+02  0.45594000000E+02  0.51100000000E-03 0. -1.
    9900012    2    1    2    0    0  0.21460733858E+02 -0.14812038150E+02  0.31196252016E+02  0.50528859432E+02  0.29999998730E+02 0.  0.
         12    1    1    2    0    0 -0.21460733858E+02  0.14812038150E+02 -0.31196252016E+02  0.40659140568E+02  0.00000000000E+00 0. -1.
         11    1    3    3    0    0  0.97449891465E+01 -0.57702788098E+01  0.25532318670E+01  0.11609475623E+02  0.51100000000E-03 0. -1.
        -11    1    3    3    0    0  0.16552850425E+02 -0.90635096124E+01  0.28371373196E+02  0.34074607569E+02  0.51100000000E-03 0.  1.
        -12    1    3    3    0    0 -0.48371057133E+01  0.21750272256E-01  0.27164695318E+00  0.48447762408E+01  0.00000000000E+00 0.  1.
</event>
<event>
 7    1  0.4836188E-013  0.5052886E+02  0.7816164E-02  0.1300439E+00
        -11   -1    0    0    0    0  0.00000000000E+00  0.00000000000E+00  0.45593999997E+02  0.45594000000E+02  0.51100000000E-03 0.  1.
         11   -1    0    0    0    0 -0.00000000000E+00 -0.00000000000E+00 -0.45593999997E+02  0.45594000000E+02  0.51100000000E-03 0. -1.
    9900012    2    1    2    0    0  0.14603858193E+01 -0.32442658802E+02  0.24464393013E+02  0.50528863728E+02  0.30000011788E+02 0.  0.
         12    1    1    2    0    0 -0.14603858193E+01  0.32442658802E+02 -0.24464393013E+02  0.40659136272E+02  0.00000000000E+00 0. -1.
         11    1    3    3    0    0 -0.32740148588E+01  0.63617469620E+00  0.47413546931E+01  0.57969247129E+01  0.51100000000E-03 0. -1.
        -11    1    3    3    0    0 -0.20028176375E+01  0.27010998060E+01  0.35593400715E+01  0.48965417038E+01  0.51100000000E-03 0.  1.
        -12    1    3    3    0    0  0.67372183157E+01 -0.35779933304E+02  0.16163698248E+02  0.39835397311E+02  0.00000000000E+00 0.  1.
</event>
<event>
 7    1  0.4836188E-013  0.5052883E+02  0.7816164E-02  0.1300439E+00
        -11   -1    0    0    0    0  0.00000000000E+00  0.00000000000E+00  0.45593999997E+02  0.45594000000E+02  0.51100000000E-03 0.  1.
         11   -1    0    0    0    0 -0.00000000000E+00 -0.00000000000E+00 -0.45593999997E+02  0.45594000000E+02  0.51100000000E-03 0. -1.
    9900012    2    1    2    0    0  0.15216641422E+02 -0.25288304571E+02  0.27966472372E+02  0.50528830048E+02  0.29999909414E+02 0.  0.
         12    1    1    2    0    0 -0.15216641422E+02  0.25288304571E+02 -0.27966472372E+02  0.40659169952E+02  0.00000000000E+00 0. -1.
         11    1    3    3    0    0  0.54544410247E+01  0.97035871722E+00 -0.40993086936E+01  0.68917962070E+01  0.51100000000E-03 0. -1.
        -11    1    3    3    0    0 -0.17553103707E+01 -0.39403795864E+01  0.64817237830E+01  0.77859135136E+01  0.51100000000E-03 0.  1.
        -12    1    3    3    0    0  0.11517510768E+02 -0.22318283702E+02  0.25584057282E+02  0.35851120327E+02  0.00000000000E+00 0.  1.
</event>
<event>
 7    1  0.4836188E-013  0.5052887E+02  0.7816164E-02  0.1300439E+00
        -11   -1    0    0    0    0  0.00000000000E+00  0.00000000000E+00  0.45593999997E+02  0.45594000000E+02  0.51100000000E-03 0.  1.
         11   -1    0    0    0    0 -0.00000000000E+00 -0.00000000000E+00 -0.45593999997E+02  0.45594000000E+02  0.51100000000E-03 0. -1.
    9900012    2    1    2    0    0  0.12163830988E+02 -0.30515052209E+02  0.23959091207E+02  0.50528865146E+02  0.30000016096E+02 0.  0.
         12    1    1    2    0    0 -0.12163830988E+02  0.30515052209E+02 -0.23959091207E+02  0.40659134854E+02  0.00000000000E+00 0. -1.
         11    1    3    3    0    0  0.29868635215E+01 -0.49166225035E+01 -0.39632722839E+01  0.69858469776E+01  0.51100000000E-03 0. -1.
        -11    1    3    3    0    0  0.26536059614E+01 -0.19011194248E+02  0.66101499668E+01  0.20301753968E+02  0.51100000000E-03 0.  1.
         12    1    3    3    0    0  0.65233615055E+01 -0.65872354576E+01  0.21312213524E+02  0.23241264200E+02  0.00000000000E+00 0. -1.
</event>
<event>
 7    1  0.4836188E-013  0.5052887E+02  0.7816164E-02  0.1300439E+00
        -11   -1    0    0    0    0  0.00000000000E+00  0.00000000000E+00  0.45593999997E+02  0.45594000000E+02  0.51100000000E-03 0.  1.
         11   -1    0    0    0    0 -0.00000000000E+00 -0.00000000000E+00 -0.45593999997E+02  0.45594000000E+02  0.51100000000E-03 0. -1.
    9900012    2    1    2    0    0  0.14649921040E+02 -0.31927437892E+02  0.20473963366E+02  0.50528872455E+02  0.30000038313E+02 0.  0.
         12    1    1    2    0    0 -0.14649921040E+02  0.31927437892E+02 -0.20473963366E+02  0.40659127545E+02  0.00000000000E+00 0. -1.
         11    1    3    3    0    0  0.16730370379E+02 -0.30674447026E+02  0.14686476381E+02  0.37901445648E+02  0.51100000000E-03 0. -1.
        -11    1    3    3    0    0  0.45103228005E+01 -0.44776740442E+00  0.17636104457E+01  0.48635202763E+01  0.51100000000E-03 0.  1.
         12    1    3    3    0    0 -0.65907721396E+01 -0.80522346093E+00  0.40238765392E+01  0.77639065309E+01  0.00000000000E+00 0. -1.
</event>
<event>
 7    1  0.4836188E-013  0.5052886E+02  0.7816164E-02  0.1300439E+00
        -11   -1    0    0    0    0  0.00000000000E+00  0.00000000000E+00  0.45593999997E+02  0.45594000000E+02  0.51100000000E-03 0.  1.
         11   -1    0    0    0    0 -0.00000000000E+00 -0.00000000000E+00 -0.45593999997E+02  0.45594000000E+02  0.51100000000E-03 0. -1.
    9900012    2    1    2    0    0  0.53621060071E+01 -0.65766899022E+01  0.39763811851E+02  0.50528858791E+02  0.29999996782E+02 0.  0.
         12    1    1    2    0    0 -0.53621060071E+01  0.65766899022E+01 -0.39763811851E+02  0.40659141209E+02  0.00000000000E+00 0. -1.
         11    1    3    3    0    0  0.45816890548E+01 -0.29266474909E+01  0.40880875930E+01  0.68021761635E+01  0.51100000000E-03 0. -1.
        -11    1    3    3    0    0  0.10537840517E+02 -0.35153574373E+01  0.62962134178E+01  0.12768951576E+02  0.51100000000E-03 0.  1.
        -12    1    3    3    0    0 -0.97574235652E+01 -0.13468497411E+00  0.29379510840E+02  0.30957731052E+02  0.00000000000E+00 0.  1.
</event>
<event>
 7    1  0.4836188E-013  0.5052889E+02  0.7816164E-02  0.1300439E+00
        -11   -1    0    0    0    0  0.00000000000E+00  0.00000000000E+00  0.45593999997E+02  0.45594000000E+02  0.51100000000E-03 0.  1.
         11   -1    0    0    0    0 -0.00000000000E+00 -0.00000000000E+00 -0.45593999997E+02  0.45594000000E+02  0.51100000000E-03 0. -1.
    9900012    2    1    2    0    0  0.22800982802E+02  0.15201653212E+02  0.30036450751E+02  0.50528887235E+02  0.30000083240E+02 0.  0.
         12    1    1    2    0    0 -0.22800982802E+02 -0.15201653212E+02 -0.30036450751E+02  0.40659112765E+02  0.00000000000E+00 0. -1.
         11    1    3    3    0    0  0.95379394631E+01  0.12975250312E+02  0.50363311577E+01  0.16872878879E+02  0.51100000000E-03 0. -1.
        -11    1    3    3    0    0  0.16500432774E+02  0.53232957875E+01  0.22859558480E+02  0.28690785523E+02  0.51100000000E-03 0.  1.
         12    1    3    3    0    0 -0.32373894346E+01 -0.30968928873E+01  0.21405611128E+01  0.49652228333E+01  0.00000000000E+00 0. -1.
</event>
<event>
 7    1  0.4836188E-013  0.5052889E+02  0.7816164E-02  0.1300439E+00
        -11   -1    0    0    0    0  0.00000000000E+00  0.00000000000E+00  0.45593999997E+02  0.45594000000E+02  0.51100000000E-03 0.  1.
         11   -1    0    0    0    0 -0.00000000000E+00 -0.00000000000E+00 -0.45593999997E+02  0.45594000000E+02  0.51100000000E-03 0. -1.
    9900012    2    1    2    0    0 -0.25880182134E+02  0.17168786560E+02  0.26241427344E+02  0.50528885791E+02  0.30000078851E+02 0.  0.
         12    1    1    2    0    0  0.25880182134E+02 -0.17168786560E+02 -0.26241427344E+02  0.40659114209E+02  0.00000000000E+00 0. -1.
         11    1    3    3    0    0  0.39704539420E+01  0.65182775532E+00  0.35284814933E+01  0.53515947005E+01  0.51100000000E-03 0. -1.
        -11    1    3    3    0    0 -0.97970777544E+01  0.14054924104E+02  0.17104362851E+02  0.24209148124E+02  0.51100000000E-03 0.  1.
         12    1    3    3    0    0 -0.20053558321E+02  0.24620347006E+01  0.56085829995E+01  0.20968142967E+02  0.00000000000E+00 0. -1.
</event>
<event>
 7    1  0.4836188E-013  0.5052885E+02  0.7816164E-02  0.1300439E+00
        -11   -1    0    0    0    0  0.00000000000E+00  0.00000000000E+00  0.45593999997E+02  0.45594000000E+02  0.51100000000E-03 0.  1.
         11   -1    0    0    0    0 -0.00000000000E+00 -0.00000000000E+00 -0.45593999997E+02  0.45594000000E+02  0.51100000000E-03 0. -1.
    9900012    2    1    2    0    0  0.30637184469E+01 -0.20298472827E+01  0.40492711365E+02  0.50528851898E+02  0.29999975829E+02 0.  0.
         12    1    1    2    0    0 -0.30637184469E+01  0.20298472827E+01 -0.40492711365E+02  0.40659148102E+02  0.00000000000E+00 0. -1.
         11    1    3    3    0    0 -0.36629482930E+01  0.64800681298E+01  0.62568823487E+01  0.97240449480E+01  0.51100000000E-03 0. -1.
        -11    1    3    3    0    0  0.10187513386E+02  0.26424647215E+01  0.16377713472E+02  0.19467859349E+02  0.51100000000E-03 0.  1.
         12    1    3    3    0    0 -0.34608466457E+01 -0.11152380134E+02  0.17858115544E+02  0.21336947601E+02  0.00000000000E+00 0. -1.
</event>
<event>
 7    1  0.4836188E-013  0.5052880E+02  0.7816164E-02  0.1300439E+00
        -11   -1    0    0    0    0  0.00000000000E+00  0.00000000000E+00  0.45593999997E+02  0.45594000000E+02  0.51100000000E-03 0.  1.
         11   -1    0    0    0    0 -0.00000000000E+00 -0.00000000000E+00 -0.45593999997E+02  0.45594000000E+02  0.51100000000E-03 0. -1.
    9900012    2    1    2    0    0  0.23550588224E+02  0.14377732192E+02  0.29863378225E+02  0.50528797503E+02  0.29999810489E+02 0.  0.
         12    1    1    2    0    0 -0.23550588224E+02 -0.14377732192E+02 -0.29863378225E+02  0.40659202497E+02  0.00000000000E+00 0. -1.
         11    1    3    3    0    0  0.19255296647E+02  0.35555531595E+01  0.70872283297E+01  0.20823957666E+02  0.51100000000E-03 0. -1.
        -11    1    3    3    0    0  0.10620688469E+01  0.83904034816E+01  0.22055904400E+01  0.87402225526E+01  0.51100000000E-03 0.  1.
        -12    1    3    3    0    0  0.32332227302E+01  0.24317755506E+01  0.20570559456E+02  0.20964617284E+02  0.00000000000E+00 0.  1.
</event>
<event>
 7    1  0.4836188E-013  0.5052873E+02  0.7816164E-02  0.1300439E+00
        -11   -1    0    0    0    0  0.00000000000E+00  0.00000000000E+00  0.45593999997E+02  0.45594000000E+02  0.51100000000E-03 0. -1.
         11   -1    0    0    0    0 -0.00000000000E+00 -0.00000000000E+00 -0.45593999997E+02  0.45594000000E+02  0.51100000000E-03 0.  1.
    9900012    2    1    2    0    0 -0.27428412348E+02  0.29308277882E+02  0.64717403204E+01  0.50528728252E+02  0.29999599991E+02 0.  0.
         12    1    1    2    0    0  0.27428412348E+02 -0.29308277882E+02 -0.64717403204E+01  0.40659271748E+02  0.00000000000E+00 0. -1.
         11    1    3    3    0    0 -0.10088155681E+02  0.11543429480E+02  0.13771127081E+02  0.20607415911E+02  0.51100000000E-03 0. -1.
        -11    1    3    3    0    0 -0.35381445631E+01  0.62282929205E+01  0.44525209710E+01  0.84341592890E+01  0.51100000000E-03 0.  1.
         12    1    3    3    0    0 -0.13802112104E+02  0.11536555481E+02 -0.11751907732E+02  0.21487153051E+02  0.00000000000E+00 0. -1.
</event>
<event>
 7    1  0.4836188E-013  0.5052885E+02  0.7816164E-02  0.1300439E+00
        -11   -1    0    0    0    0  0.00000000000E+00  0.00000000000E+00  0.45593999997E+02  0.45594000000E+02  0.51100000000E-03 0.  1.
         11   -1    0    0    0    0 -0.00000000000E+00 -0.00000000000E+00 -0.45593999997E+02  0.45594000000E+02  0.51100000000E-03 0. -1.
    9900012    2    1    2    0    0  0.20252693809E+02  0.28577383327E+02  0.20647707371E+02  0.50528852640E+02  0.29999978084E+02 0.  0.
         12    1    1    2    0    0 -0.20252693809E+02 -0.28577383327E+02 -0.20647707371E+02  0.40659147360E+02  0.00000000000E+00 0. -1.
         11    1    3    3    0    0  0.99524281478E+01  0.25337636717E+02  0.19174869707E+02  0.33297481722E+02  0.51100000000E-03 0. -1.
        -11    1    3    3    0    0  0.82032928874E+01  0.41854318772E+01  0.67874124787E+01  0.11440315669E+02  0.51100000000E-03 0.  1.
         12    1    3    3    0    0  0.20969727735E+01 -0.94568526729E+00 -0.53145748144E+01  0.57910552488E+01  0.00000000000E+00 0. -1.
</event>
<event>
 7    1  0.4836188E-013  0.5052886E+02  0.7816164E-02  0.1300439E+00
        -11   -1    0    0    0    0  0.00000000000E+00  0.00000000000E+00  0.45593999997E+02  0.45594000000E+02  0.51100000000E-03 0.  1.
         11   -1    0    0    0    0 -0.00000000000E+00 -0.00000000000E+00 -0.45593999997E+02  0.45594000000E+02  0.51100000000E-03 0. -1.
    9900012    2    1    2    0    0  0.39495353045E+02 -0.39615452284E+01  0.88084781161E+01  0.50528855402E+02  0.29999986480E+02 0.  0.
         12    1    1    2    0    0 -0.39495353045E+02  0.39615452284E+01 -0.88084781161E+01  0.40659144598E+02  0.00000000000E+00 0. -1.
         11    1    3    3    0    0  0.19360958939E+02  0.11645883935E+02  0.85949738010E+01  0.24173268677E+02  0.51100000000E-03 0.  1.
        -11    1    3    3    0    0  0.90003900854E+01 -0.88356426327E+01  0.31441220777E+01  0.12998504003E+02  0.51100000000E-03 0. -1.
        -12    1    3    3    0    0  0.11134004021E+02 -0.67717865306E+01 -0.29306177626E+01  0.13357082721E+02  0.00000000000E+00 0.  1.
</event>
<event>
 7    1  0.4836188E-013  0.5052887E+02  0.7816164E-02  0.1300439E+00
        -11   -1    0    0    0    0  0.00000000000E+00  0.00000000000E+00  0.45593999997E+02  0.45594000000E+02  0.51100000000E-03 0.  1.
         11   -1    0    0    0    0 -0.00000000000E+00 -0.00000000000E+00 -0.45593999997E+02  0.45594000000E+02  0.51100000000E-03 0. -1.
    9900012    2    1    2    0    0 -0.36268124336E+02  0.26604663480E+01  0.18185426814E+02  0.50528872213E+02  0.30000037577E+02 0.  0.
         12    1    1    2    0    0  0.36268124336E+02 -0.26604663480E+01 -0.18185426814E+02  0.40659127787E+02  0.00000000000E+00 0. -1.
         11    1    3    3    0    0 -0.89682353411E+01  0.14009386378E+02  0.91737386637E+01  0.18996042566E+02  0.51100000000E-03 0. -1.
        -11    1    3    3    0    0 -0.35949326663E+01 -0.19885154390E+01  0.36354751061E+01  0.54858375873E+01  0.51100000000E-03 0.  1.
         12    1    3    3    0    0 -0.23704956329E+02 -0.93604045911E+01  0.53762130437E+01  0.26046992060E+02  0.00000000000E+00 0. -1.
</event>
<event>
 7    1  0.4836188E-013  0.5052886E+02  0.7816164E-02  0.1300439E+00
        -11   -1    0    0    0    0  0.00000000000E+00  0.00000000000E+00  0.45593999997E+02  0.45594000000E+02  0.51100000000E-03 0. -1.
         11   -1    0    0    0    0 -0.00000000000E+00 -0.00000000000E+00 -0.45593999997E+02  0.45594000000E+02  0.51100000000E-03 0.  1.
    9900012    2    1    2    0    0  0.26663068373E+02 -0.10056379550E+01  0.30679553121E+02  0.50528862005E+02  0.30000006551E+02 0.  0.
         12    1    1    2    0    0 -0.26663068373E+02  0.10056379550E+01 -0.30679553121E+02  0.40659137995E+02  0.00000000000E+00 0. -1.
         11    1    3    3    0    0 -0.28669212600E+01 -0.28837131376E+01  0.41699753116E+01  0.58244084104E+01  0.51100000000E-03 0. -1.
        -11    1    3    3    0    0  0.12699295219E+02  0.89899348913E+01  0.47022124819E+01  0.16254286539E+02  0.51100000000E-03 0.  1.
         12    1    3    3    0    0  0.16830694414E+02 -0.71118597087E+01  0.21807365327E+02  0.28450167056E+02  0.00000000000E+00 0. -1.
</event>
<event>
 7    1  0.4836188E-013  0.5052886E+02  0.7816164E-02  0.1300439E+00
        -11   -1    0    0    0    0  0.00000000000E+00  0.00000000000E+00  0.45593999997E+02  0.45594000000E+02  0.51100000000E-03 0.  1.
         11   -1    0    0    0    0 -0.00000000000E+00 -0.00000000000E+00 -0.45593999997E+02  0.45594000000E+02  0.51100000000E-03 0. -1.
    9900012    2    1    2    0    0  0.10568547085E+02  0.17647426946E+01  0.39221896445E+02  0.50528860006E+02  0.30000000476E+02 0.  0.
         12    1    1    2    0    0 -0.10568547085E+02 -0.17647426946E+01 -0.39221896445E+02  0.40659139994E+02  0.00000000000E+00 0. -1.
         11    1    3    3    0    0  0.10745086149E+02 -0.22037304943E+00  0.45315155240E+01  0.11663621814E+02  0.51100000000E-03 0. -1.
        -11    1    3    3    0    0  0.43565936132E+01  0.72405204570E+01  0.93999453985E+01  0.12639779197E+02  0.51100000000E-03 0.  1.
        -12    1    3    3    0    0 -0.45331326771E+01 -0.52554047130E+01  0.25290435523E+02  0.26225458995E+02  0.00000000000E+00 0.  1.
</event>
<event>
 7    1  0.4836188E-013  0.5052887E+02  0.7816164E-02  0.1300439E+00
        -11   -1    0    0    0    0  0.00000000000E+00  0.00000000000E+00  0.45593999997E+02  0.45594000000E+02  0.51100000000E-03 0. -1.
         11   -1    0    0    0    0 -0.00000000000E+00 -0.00000000000E+00 -0.45593999997E+02  0.45594000000E+02  0.51100000000E-03 0.  1.
    9900012    2    1    2    0    0  0.25007628959E+02 -0.32042271490E+02 -0.10373310545E+01  0.50528871577E+02  0.30000035646E+02 0.  0.
         12    1    1    2    0    0 -0.25007628959E+02  0.32042271490E+02  0.10373310545E+01  0.40659128423E+02  0.00000000000E+00 0. -1.
         11    1    3    3    0    0 -0.34563147765E+01 -0.13965317103E+01  0.32142365801E+01  0.49221671757E+01  0.51100000000E-03 0. -1.
        -11    1    3    3    0    0  0.13501542834E+02 -0.25881982700E+02 -0.60161683145E+01  0.29805418447E+02  0.51100000000E-03 0.  1.
         12    1    3    3    0    0  0.14962400901E+02 -0.47637570797E+01  0.17646006799E+01  0.15801285954E+02  0.00000000000E+00 0. -1.
</event>
<event>
 7    1  0.4836188E-013  0.5052880E+02  0.7816164E-02  0.1300439E+00
        -11   -1    0    0    0    0  0.00000000000E+00  0.00000000000E+00  0.45593999997E+02  0.45594000000E+02  0.51100000000E-03 0.  1.
         11   -1    0    0    0    0 -0.00000000000E+00 -0.00000000000E+00 -0.45593999997E+02  0.45594000000E+02  0.51100000000E-03 0. -1.
    9900012    2    1    2    0    0  0.19103288899E+02 -0.56506448080E+01  0.35444391655E+02  0.50528802598E+02  0.29999825978E+02 0.  0.
         12    1    1    2    0    0 -0.19103288899E+02  0.56506448080E+01 -0.35444391655E+02  0.40659197402E+02  0.00000000000E+00 0. -1.
         11    1    3    3    0    0  0.28430505132E+01  0.79651622253E+01  0.99863370366E+01  0.13086392672E+02  0.51100000000E-03 0. -1.
        -11    1    3    3    0    0  0.12142664016E+02  0.91927225517E+00  0.13455651398E+02  0.18147834738E+02  0.51100000000E-03 0.  1.
        -12    1    3    3    0    0  0.41175743701E+01 -0.14535079288E+02  0.12002403221E+02  0.19294575188E+02  0.00000000000E+00 0.  1.
</event>
<event>
 7    1  0.4836188E-013  0.5052886E+02  0.7816164E-02  0.1300439E+00
        -11   -1    0    0    0    0  0.00000000000E+00  0.00000000000E+00  0.45593999997E+02  0.45594000000E+02  0.51100000000E-03 0.  1.
         11   -1    0    0    0    0 -0.00000000000E+00 -0.00000000000E+00 -0.45593999997E+02  0.45594000000E+02  0.51100000000E-03 0. -1.
    9900012    2    1    2    0    0  0.12088640153E+02 -0.30447795202E+02  0.24082409462E+02  0.50528857130E+02  0.29999991731E+02 0.  0.
         12    1    1    2    0    0 -0.12088640153E+02  0.30447795202E+02 -0.24082409462E+02  0.40659142870E+02  0.00000000000E+00 0. -1.
         11    1    3    3    0    0 -0.15898079381E+01 -0.95334553209E+01 -0.89732590850E+00  0.97066705766E+01  0.51100000000E-03 0. -1.
        -11    1    3    3    0    0  0.49926254551E+01 -0.22616884037E+02  0.15596805121E+02  0.27923289253E+02  0.51100000000E-03 0.  1.
        -12    1    3    3    0    0  0.86858226362E+01  0.17025441559E+01  0.93829302502E+01  0.12898897300E+02  0.00000000000E+00 0.  1.
</event>
<event>
 7    1  0.4836188E-013  0.5052888E+02  0.7816164E-02  0.1300439E+00
        -11   -1    0    0    0    0  0.00000000000E+00  0.00000000000E+00  0.45593999997E+02  0.45594000000E+02  0.51100000000E-03 0.  1.
         11   -1    0    0    0    0 -0.00000000000E+00 -0.00000000000E+00 -0.45593999997E+02  0.45594000000E+02  0.51100000000E-03 0. -1.
    9900012    2    1    2    0    0  0.11608694400E+02 -0.29323222984E+02  0.25662246047E+02  0.50528879695E+02  0.30000060320E+02 0.  0.
         12    1    1    2    0    0 -0.11608694400E+02  0.29323222984E+02 -0.25662246047E+02  0.40659120305E+02  0.00000000000E+00 0. -1.
         11    1    3    3    0    0  0.58699872368E+01 -0.22302308357E+02  0.85801131465E+01  0.24606260384E+02  0.51100000000E-03 0. -1.
        -11    1    3    3    0    0  0.99301626136E+01 -0.99779342671E+01  0.10417917258E+02  0.17512861046E+02  0.51100000000E-03 0.  1.
         12    1    3    3    0    0 -0.41914554504E+01  0.29570196402E+01  0.66642156425E+01  0.84097582650E+01  0.00000000000E+00 0. -1.
</event>
<event>
 7    1  0.4836188E-013  0.5052885E+02  0.7816164E-02  0.1300439E+00
        -11   -1    0    0    0    0  0.00000000000E+00  0.00000000000E+00  0.45593999997E+02  0.45594000000E+02  0.51100000000E-03 0.  1.
         11   -1    0    0    0    0 -0.00000000000E+00 -0.00000000000E+00 -0.45593999997E+02  0.45594000000E+02  0.51100000000E-03 0. -1.
    9900012    2    1    2    0    0  0.33936617500E+02 -0.21806858307E+02 -0.50924675308E+01  0.50528852172E+02  0.29999976661E+02 0.  0.
         12    1    1    2    0    0 -0.33936617500E+02  0.21806858307E+02  0.50924675308E+01  0.40659147828E+02  0.00000000000E+00 0. -1.
         11    1    3    3    0    0  0.31269773048E+01  0.35525470208E+01 -0.38011713720E+01  0.60702126371E+01  0.51100000000E-03 0. -1.
        -11    1    3    3    0    0  0.13916194933E+02 -0.14546219826E+01 -0.52003689540E+01  0.14927164635E+02  0.51100000000E-03 0.  1.
        -12    1    3    3    0    0  0.16893445262E+02 -0.23904783346E+02  0.39090727952E+01  0.29531474899E+02  0.00000000000E+00 0.  1.
</event>
<event>
 7    1  0.4836188E-013  0.5052886E+02  0.7816164E-02  0.1300439E+00
        -11   -1    0    0    0    0  0.00000000000E+00  0.00000000000E+00  0.45593999997E+02  0.45594000000E+02  0.51100000000E-03 0.  1.
         11   -1    0    0    0    0 -0.00000000000E+00 -0.00000000000E+00 -0.45593999997E+02  0.45594000000E+02  0.51100000000E-03 0. -1.
    9900012    2    1    2    0    0 -0.28825140171E+01 -0.68361841819E+01  0.39976538711E+02  0.50528856519E+02  0.29999989876E+02 0.  0.
         12    1    1    2    0    0  0.28825140171E+01  0.68361841819E+01 -0.39976538711E+02  0.40659143481E+02  0.00000000000E+00 0. -1.
         11    1    3    3    0    0  0.21988033488E+01  0.27738320756E+01  0.35511605754E+01  0.50139427842E+01  0.51100000000E-03 0. -1.
        -11    1    3    3    0    0 -0.83885941042E+01  0.27128104471E+01  0.29922682699E+02  0.31194467326E+02  0.51100000000E-03 0.  1.
         12    1    3    3    0    0  0.33072767384E+01 -0.12322826705E+02  0.65026954368E+01  0.14320446409E+02  0.00000000000E+00 0. -1.
</event>
<event>
 7    1  0.4836188E-013  0.5052886E+02  0.7816164E-02  0.1300439E+00
        -11   -1    0    0    0    0  0.00000000000E+00  0.00000000000E+00  0.45593999997E+02  0.45594000000E+02  0.51100000000E-03 0.  1.
         11   -1    0    0    0    0 -0.00000000000E+00 -0.00000000000E+00 -0.45593999997E+02  0.45594000000E+02  0.51100000000E-03 0. -1.
    9900012    2    1    2    0    0  0.12623126224E+02  0.12476136856E+02  0.36580983824E+02  0.50528859772E+02  0.29999999763E+02 0.  0.
         12    1    1    2    0    0 -0.12623126224E+02 -0.12476136856E+02 -0.36580983824E+02  0.40659140228E+02  0.00000000000E+00 0. -1.
         11    1    3    3    0    0  0.66965442306E+01 -0.13377849321E+01  0.17990203848E+02  0.19242681932E+02  0.51100000000E-03 0. -1.
        -11    1    3    3    0    0 -0.63884967188E+01  0.43766887817E+00  0.20982119534E+01  0.67384670390E+01  0.51100000000E-03 0.  1.
        -12    1    3    3    0    0  0.12315078712E+02  0.13376252910E+02  0.16492568023E+02  0.24547710801E+02  0.00000000000E+00 0.  1.
</event>
<event>
 7    1  0.4836188E-013  0.5052880E+02  0.7816164E-02  0.1300439E+00
        -11   -1    0    0    0    0  0.00000000000E+00  0.00000000000E+00  0.45593999997E+02  0.45594000000E+02  0.51100000000E-03 0.  1.
         11   -1    0    0    0    0 -0.00000000000E+00 -0.00000000000E+00 -0.45593999997E+02  0.45594000000E+02  0.51100000000E-03 0. -1.
    9900012    2    1    2    0    0  0.13280955879E+01  0.16261959169E+02  0.37241855420E+02  0.50528795028E+02  0.29999802966E+02 0.  0.
         12    1    1    2    0    0 -0.13280955879E+01 -0.16261959169E+02 -0.37241855420E+02  0.40659204972E+02  0.00000000000E+00 0. -1.
         11    1    3    3    0    0  0.10535370457E+02  0.12849930207E+02  0.22116737518E+02  0.27663420173E+02  0.51100000000E-03 0. -1.
        -11    1    3    3    0    0  0.24284941715E+01 -0.29201779700E+01  0.23769949681E+01  0.44805277208E+01  0.51100000000E-03 0.  1.
         12    1    3    3    0    0 -0.11635769041E+02  0.63322069320E+01  0.12748122934E+02  0.18384847134E+02  0.00000000000E+00 0. -1.
</event>
<event>
 7    1  0.4836188E-013  0.5052880E+02  0.7816164E-02  0.1300439E+00
        -11   -1    0    0    0    0  0.00000000000E+00  0.00000000000E+00  0.45593999997E+02  0.45594000000E+02  0.51100000000E-03 0.  1.
         11   -1    0    0    0    0 -0.00000000000E+00 -0.00000000000E+00 -0.45593999997E+02  0.45594000000E+02  0.51100000000E-03 0. -1.
    9900012    2    1    2    0    0  0.18105317860E+02 -0.91656345121E+01  0.35232922313E+02  0.50528804170E+02  0.29999830754E+02 0.  0.
         12    1    1    2    0    0 -0.18105317860E+02  0.91656345121E+01 -0.35232922313E+02  0.40659195830E+02  0.00000000000E+00 0. -1.
         11    1    3    3    0    0  0.17336169218E+01 -0.68265613442E+01  0.15583066593E+01  0.72135765972E+01  0.51100000000E-03 0. -1.
        -11    1    3    3    0    0 -0.16423546233E+01 -0.61488992067E+01  0.19885411550E+01  0.66678771996E+01  0.51100000000E-03 0.  1.
        -12    1    3    3    0    0  0.18014055562E+02  0.38098260388E+01  0.31686074499E+02  0.36647350373E+02  0.00000000000E+00 0.  1.
</event>
<event>
 7    1  0.4836188E-013  0.5052887E+02  0.7816164E-02  0.1300439E+00
        -11   -1    0    0    0    0  0.00000000000E+00  0.00000000000E+00  0.45593999997E+02  0.45594000000E+02  0.51100000000E-03 0.  1.
         11   -1    0    0    0    0 -0.00000000000E+00 -0.00000000000E+00 -0.45593999997E+02  0.45594000000E+02  0.51100000000E-03 0. -1.
    9900012    2    1    2    0    0  0.37942928605E+02 -0.14610329422E+02  0.19352330491E+00  0.50528868083E+02  0.30000025026E+02 0.  0.
         12    1    1    2    0    0 -0.37942928605E+02  0.14610329422E+02 -0.19352330491E+00  0.40659131917E+02  0.00000000000E+00 0. -1.
         11    1    3    3    0    0  0.24143110360E+02 -0.85722998047E+01 -0.65401434931E+01  0.26441398960E+02  0.51100000000E-03 0. -1.
        -11    1    3    3    0    0  0.14990901175E+02  0.46272444748E+00  0.50597150044E+00  0.15006573205E+02  0.51100000000E-03 0.  1.
         12    1    3    3    0    0 -0.11910829293E+01 -0.65007540650E+01  0.62276952976E+01  0.90808959182E+01  0.00000000000E+00 0. -1.
</event>
<event>
 7    1  0.4836188E-013  0.5052886E+02  0.7816164E-02  0.1300439E+00
        -11   -1    0    0    0    0  0.00000000000E+00  0.00000000000E+00  0.45593999997E+02  0.45594000000E+02  0.51100000000E-03 0.  1.
         11   -1    0    0    0    0 -0.00000000000E+00 -0.00000000000E+00 -0.45593999997E+02  0.45594000000E+02  0.51100000000E-03 0. -1.
    9900012    2    1    2    0    0  0.30407046901E+02  0.14210942164E+02  0.22948338962E+02  0.50528860320E+02  0.30000001429E+02 0.  0.
         12    1    1    2    0    0 -0.30407046901E+02 -0.14210942164E+02 -0.22948338962E+02  0.40659139680E+02  0.00000000000E+00 0. -1.
         11    1    3    3    0    0  0.81211343778E+01  0.14778962724E+02  0.10091867954E+01  0.16893460895E+02  0.51100000000E-03 0. -1.
        -11    1    3    3    0    0  0.90765821920E+01  0.58208586095E+01  0.10222050848E+02  0.14857895646E+02  0.51100000000E-03 0.  1.
        -12    1    3    3    0    0  0.13209330331E+02 -0.63888791697E+01  0.11717101319E+02  0.18777503779E+02  0.00000000000E+00 0.  1.
</event>
<event>
 7    1  0.4836188E-013  0.5052886E+02  0.7816164E-02  0.1300439E+00
        -11   -1    0    0    0    0  0.00000000000E+00  0.00000000000E+00  0.45593999997E+02  0.45594000000E+02  0.51100000000E-03 0.  1.
         11   -1    0    0    0    0 -0.00000000000E+00 -0.00000000000E+00 -0.45593999997E+02  0.45594000000E+02  0.51100000000E-03 0. -1.
    9900012    2    1    2    0    0 -0.33747650477E+02  0.14319510570E+02  0.17584454019E+02  0.50528864264E+02  0.30000013415E+02 0.  0.
         12    1    1    2    0    0  0.33747650477E+02 -0.14319510570E+02 -0.17584454019E+02  0.40659135736E+02  0.00000000000E+00 0. -1.
         11    1    3    3    0    0 -0.38880697622E+01  0.62339816890E+01  0.63156107170E+01  0.96884752755E+01  0.51100000000E-03 0. -1.
        -11    1    3    3    0    0 -0.27312435895E+02  0.15479303583E+02  0.97588366223E+01  0.32875718797E+02  0.51100000000E-03 0.  1.
         12    1    3    3    0    0 -0.25471448200E+01 -0.73937747020E+01  0.15100066793E+01  0.79646701909E+01  0.00000000000E+00 0. -1.
</event>
<event>
 7    1  0.4836188E-013  0.5052886E+02  0.7816164E-02  0.1300439E+00
        -11   -1    0    0    0    0  0.00000000000E+00  0.00000000000E+00  0.45593999997E+02  0.45594000000E+02  0.51100000000E-03 0.  1.
         11   -1    0    0    0    0 -0.00000000000E+00 -0.00000000000E+00 -0.45593999997E+02  0.45594000000E+02  0.51100000000E-03 0. -1.
    9900012    2    1    2    0    0  0.35012976102E+02  0.98802600873E+01  0.18155932008E+02  0.50528857092E+02  0.29999991617E+02 0.  0.
         12    1    1    2    0    0 -0.35012976102E+02 -0.98802600873E+01 -0.18155932008E+02  0.40659142908E+02  0.00000000000E+00 0. -1.
         11    1    3    3    0    0  0.12124301117E+02  0.10272621080E+02  0.15294993687E+02  0.22055889317E+02  0.51100000000E-03 0. -1.
        -11    1    3    3    0    0  0.84815781646E+01  0.77444425563E+01 -0.84692144461E+00  0.11516546134E+02  0.51100000000E-03 0.  1.
        -12    1    3    3    0    0  0.14407096821E+02 -0.81368035492E+01  0.37078597654E+01  0.16956421640E+02  0.00000000000E+00 0.  1.
</event>
<event>
 7    1  0.4836188E-013  0.5052886E+02  0.7816164E-02  0.1300439E+00
        -11   -1    0    0    0    0  0.00000000000E+00  0.00000000000E+00  0.45593999997E+02  0.45594000000E+02  0.51100000000E-03 0. -1.
         11   -1    0    0    0    0 -0.00000000000E+00 -0.00000000000E+00 -0.45593999997E+02  0.45594000000E+02  0.51100000000E-03 0.  1.
    9900012    2    1    2    0    0  0.81071302434E+00 -0.40031239208E+02 -0.70716498419E+01  0.50528860810E+02  0.30000002919E+02 0.  0.
         12    1    1    2    0    0 -0.81071302434E+00  0.40031239208E+02  0.70716498419E+01  0.40659139190E+02  0.00000000000E+00 0. -1.
         11    1    3    3    0    0 -0.35689245052E+01 -0.30217161759E+02 -0.10139620506E+02  0.32072199662E+02  0.51100000000E-03 0. -1.
        -11    1    3    3    0    0  0.75705985404E+01 -0.99561581720E+01 -0.17978648315E+01  0.12636113565E+02  0.51100000000E-03 0.  1.
         12    1    3    3    0    0 -0.31909610109E+01  0.14208072259E+00  0.48658354955E+01  0.58205475837E+01  0.00000000000E+00 0. -1.
</event>
<event>
 7    1  0.4836188E-013  0.5052888E+02  0.7816164E-02  0.1300439E+00
        -11   -1    0    0    0    0  0.00000000000E+00  0.00000000000E+00  0.45593999997E+02  0.45594000000E+02  0.51100000000E-03 0.  1.
         11   -1    0    0    0    0 -0.00000000000E+00 -0.00000000000E+00 -0.45593999997E+02  0.45594000000E+02  0.51100000000E-03 0. -1.
    9900012    2    1    2    0    0 -0.21597892124E+02 -0.18575169107E+01  0.34398329972E+02  0.50528875340E+02  0.30000047082E+02 0.  0.
         12    1    1    2    0    0  0.21597892124E+02  0.18575169107E+01 -0.34398329972E+02  0.40659124660E+02  0.00000000000E+00 0. -1.
         11    1    3    3    0    0  0.56064122168E+00 -0.33773438468E+01  0.79065795768E+01  0.86159602428E+01  0.51100000000E-03 0. -1.
        -11    1    3    3    0    0 -0.24786151293E+02  0.18210422257E+01  0.29051899474E+02  0.38231954620E+02  0.51100000000E-03 0.  1.
         12    1    3    3    0    0  0.26276179475E+01 -0.30121528962E+00 -0.25601490788E+01  0.36809604772E+01  0.00000000000E+00 0. -1.
</event>
<event>
 7    1  0.4836188E-013  0.5052887E+02  0.7816164E-02  0.1300439E+00
        -11   -1    0    0    0    0  0.00000000000E+00  0.00000000000E+00  0.45593999997E+02  0.45594000000E+02  0.51100000000E-03 0.  1.
         11   -1    0    0    0    0 -0.00000000000E+00 -0.00000000000E+00 -0.45593999997E+02  0.45594000000E+02  0.51100000000E-03 0. -1.
    9900012    2    1    2    0    0  0.88390644310E+01  0.23766895009E+02  0.31783185103E+02  0.50528865556E+02  0.30000017345E+02 0.  0.
         12    1    1    2    0    0 -0.88390644310E+01 -0.23766895009E+02 -0.31783185103E+02  0.40659134444E+02  0.00000000000E+00 0. -1.
         11    1    3    3    0    0 -0.69896625060E+01  0.44903458912E+01  0.16439331248E+01  0.84688313568E+01  0.51100000000E-03 0. -1.
        -11    1    3    3    0    0  0.19175314936E+01 -0.11817063477E+01  0.97328064361E+01  0.99900389542E+01  0.51100000000E-03 0.  1.
        -12    1    3    3    0    0  0.13911195443E+02  0.20458255466E+02  0.20406445542E+02  0.32069995245E+02  0.00000000000E+00 0.  1.
</event>
<event>
 7    1  0.4836188E-013  0.5052886E+02  0.7816164E-02  0.1300439E+00
        -11   -1    0    0    0    0  0.00000000000E+00  0.00000000000E+00  0.45593999997E+02  0.45594000000E+02  0.51100000000E-03 0.  1.
         11   -1    0    0    0    0 -0.00000000000E+00 -0.00000000000E+00 -0.45593999997E+02  0.45594000000E+02  0.51100000000E-03 0. -1.
    9900012    2    1    2    0    0 -0.24719204764E+02 -0.17833729042E+02  0.26908823603E+02  0.50528858797E+02  0.29999996799E+02 0.  0.
         12    1    1    2    0    0  0.24719204764E+02  0.17833729042E+02 -0.26908823603E+02  0.40659141203E+02  0.00000000000E+00 0. -1.
         11    1    3    3    0    0  0.26156841321E+01 -0.10777089021E+02  0.15925545608E+02  0.19406453938E+02  0.51100000000E-03 0. -1.
        -11    1    3    3    0    0 -0.80382571950E+01 -0.54865414247E+01  0.43139535052E+01  0.10645464323E+02  0.51100000000E-03 0.  1.
        -12    1    3    3    0    0 -0.19296631701E+02 -0.15700985960E+01  0.66693244889E+01  0.20476940537E+02  0.00000000000E+00 0.  1.
</event>
<event>
 7    1  0.4836188E-013  0.5052886E+02  0.7816164E-02  0.1300439E+00
        -11   -1    0    0    0    0  0.00000000000E+00  0.00000000000E+00  0.45593999997E+02  0.45594000000E+02  0.51100000000E-03 0.  1.
         11   -1    0    0    0    0 -0.00000000000E+00 -0.00000000000E+00 -0.45593999997E+02  0.45594000000E+02  0.51100000000E-03 0. -1.
    9900012    2    1    2    0    0  0.29677147780E+02  0.27714013999E+02 -0.20894490388E+01  0.50528862410E+02  0.30000007781E+02 0.  0.
         12    1    1    2    0    0 -0.29677147780E+02 -0.27714013999E+02  0.20894490388E+01  0.40659137590E+02  0.00000000000E+00 0. -1.
         11    1    3    3    0    0  0.40950909768E+00  0.18745983908E+01 -0.33037146792E+01  0.38205166890E+01  0.51100000000E-03 0. -1.
        -11    1    3    3    0    0  0.27951091328E+02  0.17301852304E+02 -0.82523204074E+01  0.33892748368E+02  0.51100000000E-03 0.  1.
        -12    1    3    3    0    0  0.13165473541E+01  0.85375633038E+01  0.94665860478E+01  0.12815597353E+02  0.00000000000E+00 0.  1.
</event>
<event>
 7    1  0.4836188E-013  0.5052887E+02  0.7816164E-02  0.1300439E+00
        -11   -1    0    0    0    0  0.00000000000E+00  0.00000000000E+00  0.45593999997E+02  0.45594000000E+02  0.51100000000E-03 0.  1.
         11   -1    0    0    0    0 -0.00000000000E+00 -0.00000000000E+00 -0.45593999997E+02  0.45594000000E+02  0.51100000000E-03 0. -1.
    9900012    2    1    2    0    0  0.53896303909E+01  0.11263551270E+02  0.38694308094E+02  0.50528865948E+02  0.30000018537E+02 0.  0.
         12    1    1    2    0    0 -0.53896303909E+01 -0.11263551270E+02 -0.38694308094E+02  0.40659134052E+02  0.00000000000E+00 0. -1.
         11    1    3    3    0    0  0.81946011180E+01 -0.15291113989E+01  0.64323922434E+01  0.10529261104E+02  0.51100000000E-03 0. -1.
        -11    1    3    3    0    0  0.53287564392E+00  0.15551554252E+02  0.32092332809E+02  0.35665846710E+02  0.51100000000E-03 0.  1.
         12    1    3    3    0    0 -0.33378463711E+01 -0.27588915836E+01  0.16958304113E+00  0.43337581352E+01  0.00000000000E+00 0. -1.
</event>
<event>
 7    1  0.4836188E-013  0.5052887E+02  0.7816164E-02  0.1300439E+00
        -11   -1    0    0    0    0  0.00000000000E+00  0.00000000000E+00  0.45593999997E+02  0.45594000000E+02  0.51100000000E-03 0.  1.
         11   -1    0    0    0    0 -0.00000000000E+00 -0.00000000000E+00 -0.45593999997E+02  0.45594000000E+02  0.51100000000E-03 0. -1.
    9900012    2    1    2    0    0 -0.22942481612E+02 -0.17439976642E+02  0.28681956931E+02  0.50528869399E+02  0.30000029026E+02 0.  0.
         12    1    1    2    0    0  0.22942481612E+02  0.17439976642E+02 -0.28681956931E+02  0.40659130601E+02  0.00000000000E+00 0. -1.
         11    1    3    3    0    0 -0.39703072610E+01 -0.73312333178E+01  0.10597905014E+02  0.13484283913E+02  0.51100000000E-03 0. -1.
        -11    1    3    3    0    0  0.55167727811E+01 -0.21556278601E+01  0.67015413682E+00  0.59607566816E+01  0.51100000000E-03 0.  1.
         12    1    3    3    0    0 -0.24488947132E+02 -0.79531154639E+01  0.17413897781E+02  0.31083828804E+02  0.00000000000E+00 0. -1.
</event>
<event>
 7    1  0.4836188E-013  0.5052886E+02  0.7816164E-02  0.1300439E+00
        -11   -1    0    0    0    0  0.00000000000E+00  0.00000000000E+00  0.45593999997E+02  0.45594000000E+02  0.51100000000E-03 0. -1.
         11   -1    0    0    0    0 -0.00000000000E+00 -0.00000000000E+00 -0.45593999997E+02  0.45594000000E+02  0.51100000000E-03 0.  1.
    9900012    2    1    2    0    0 -0.18779784654E+02 -0.34042885642E+02 -0.11898190934E+02  0.50528864225E+02  0.30000013298E+02 0.  0.
         12    1    1    2    0    0  0.18779784654E+02  0.34042885642E+02  0.11898190934E+02  0.40659135775E+02  0.00000000000E+00 0. -1.
         11    1    3    3    0    0 -0.18217663481E+02 -0.23645673155E+02 -0.23625007652E+01  0.29942988023E+02  0.51100000000E-03 0. -1.
        -11    1    3    3    0    0  0.18339197048E+00 -0.13179901214E+02 -0.31087450366E+01  0.13542810809E+02  0.51100000000E-03 0.  1.
         12    1    3    3    0    0 -0.74551314404E+00  0.27826887270E+01 -0.64269451318E+01  0.70430653928E+01  0.00000000000E+00 0. -1.
</event>
<event>
 7    1  0.4836188E-013  0.5052884E+02  0.7816164E-02  0.1300439E+00
        -11   -1    0    0    0    0  0.00000000000E+00  0.00000000000E+00  0.45593999997E+02  0.45594000000E+02  0.51100000000E-03 0.  1.
         11   -1    0    0    0    0 -0.00000000000E+00 -0.00000000000E+00 -0.45593999997E+02  0.45594000000E+02  0.51100000000E-03 0. -1.
    9900012    2    1    2    0    0 -0.37702087341E+02  0.14343805621E+02  0.50965560873E+01  0.50528843177E+02  0.29999949322E+02 0.  0.
         12    1    1    2    0    0  0.37702087341E+02 -0.14343805621E+02 -0.50965560873E+01  0.40659156823E+02  0.00000000000E+00 0. -1.
         11    1    3    3    0    0 -0.28406109364E+02  0.13876449344E+02 -0.12375057346E+01  0.31638494217E+02  0.51100000000E-03 0. -1.
        -11    1    3    3    0    0 -0.13458015984E+02  0.76000570137E+00  0.37842266464E+01  0.14000577648E+02  0.51100000000E-03 0.  1.
        -12    1    3    3    0    0  0.41620380076E+01 -0.29264942455E+00  0.25498351755E+01  0.48897713121E+01  0.00000000000E+00 0.  1.
</event>
<event>
 7    1  0.4836188E-013  0.5052889E+02  0.7816164E-02  0.1300439E+00
        -11   -1    0    0    0    0  0.00000000000E+00  0.00000000000E+00  0.45593999997E+02  0.45594000000E+02  0.51100000000E-03 0.  1.
         11   -1    0    0    0    0 -0.00000000000E+00 -0.00000000000E+00 -0.45593999997E+02  0.45594000000E+02  0.51100000000E-03 0. -1.
    9900012    2    1    2    0    0 -0.38445426672E+02  0.44075734521E+01 -0.12477412309E+02  0.50528888430E+02  0.30000086871E+02 0.  0.
         12    1    1    2    0    0  0.38445426672E+02 -0.44075734521E+01  0.12477412309E+02  0.40659111570E+02  0.00000000000E+00 0. -1.
         11    1    3    3    0    0  0.83671877924E+00 -0.33713965907E+01  0.34180852016E+01  0.48733684443E+01  0.51100000000E-03 0. -1.
        -11    1    3    3    0    0 -0.15556113986E+02  0.51462490337E+01 -0.14270864182E+02  0.21728647593E+02  0.51100000000E-03 0.  1.
        -12    1    3    3    0    0 -0.23726031466E+02  0.26327210091E+01 -0.16246333279E+01  0.23926872392E+02  0.00000000000E+00 0.  1.
</event>
<event>
 7    1  0.4836188E-013  0.5052884E+02  0.7816164E-02  0.1300439E+00
        -11   -1    0    0    0    0  0.00000000000E+00  0.00000000000E+00  0.45593999997E+02  0.45594000000E+02  0.51100000000E-03 0.  1.
         11   -1    0    0    0    0 -0.00000000000E+00 -0.00000000000E+00 -0.45593999997E+02  0.45594000000E+02  0.51100000000E-03 0. -1.
    9900012    2    1    2    0    0  0.19312280431E+02 -0.29825934857E+02  0.19764025667E+02  0.50528840195E+02  0.29999940256E+02 0.  0.
         12    1    1    2    0    0 -0.19312280431E+02  0.29825934857E+02 -0.19764025667E+02  0.40659159805E+02  0.00000000000E+00 0. -1.
         11    1    3    3    0    0  0.39944701362E-01 -0.39151258274E+01  0.14407787404E+02  0.14930309573E+02  0.51100000000E-03 0.  1.
        -11    1    3    3    0    0  0.35255586142E+01 -0.91346163099E+01 -0.42385496547E+01  0.10669399332E+02  0.51100000000E-03 0. -1.
        -12    1    3    3    0    0  0.15746777115E+02 -0.16776192719E+02  0.95947879176E+01  0.24929131290E+02  0.00000000000E+00 0.  1.
</event>
<event>
 7    1  0.4836188E-013  0.5052883E+02  0.7816164E-02  0.1300439E+00
        -11   -1    0    0    0    0  0.00000000000E+00  0.00000000000E+00  0.45593999997E+02  0.45594000000E+02  0.51100000000E-03 0. -1.
         11   -1    0    0    0    0 -0.00000000000E+00 -0.00000000000E+00 -0.45593999997E+02  0.45594000000E+02  0.51100000000E-03 0.  1.
    9900012    2    1    2    0    0  0.19062115040E+02  0.33119701066E+02  0.13888443940E+02  0.50528834938E+02  0.29999924276E+02 0.  0.
         12    1    1    2    0    0 -0.19062115040E+02 -0.33119701066E+02 -0.13888443940E+02  0.40659165062E+02  0.00000000000E+00 0. -1.
         11    1    3    3    0    0  0.67334339079E+01  0.12365307566E+02  0.11704126557E+02  0.18309192831E+02  0.51100000000E-03 0. -1.
        -11    1    3    3    0    0  0.13627219458E+02  0.24373630673E+02  0.35281237507E+01  0.28146449862E+02  0.51100000000E-03 0.  1.
        -12    1    3    3    0    0 -0.12985383263E+01 -0.36192371736E+01 -0.13438063681E+01  0.40731922443E+01  0.00000000000E+00 0.  1.
</event>
<event>
 7    1  0.4836188E-013  0.5052885E+02  0.7816164E-02  0.1300439E+00
        -11   -1    0    0    0    0  0.00000000000E+00  0.00000000000E+00  0.45593999997E+02  0.45594000000E+02  0.51100000000E-03 0.  1.
         11   -1    0    0    0    0 -0.00000000000E+00 -0.00000000000E+00 -0.45593999997E+02  0.45594000000E+02  0.51100000000E-03 0. -1.
    9900012    2    1    2    0    0  0.51662545857E+01 -0.39508311033E+02  0.80975235664E+01  0.50528847094E+02  0.29999961228E+02 0.  0.
         12    1    1    2    0    0 -0.51662545857E+01  0.39508311033E+02 -0.80975235664E+01  0.40659152906E+02  0.00000000000E+00 0. -1.
         11    1    3    3    0    0  0.10687926371E-01  0.30462074226E+01  0.18626431057E+01  0.35705648704E+01  0.51100000000E-03 0. -1.
        -11    1    3    3    0    0  0.75247202513E+01 -0.66796117569E+01 -0.15269106250E+01  0.10176938852E+02  0.51100000000E-03 0.  1.
        -12    1    3    3    0    0 -0.23691535920E+01 -0.35874906699E+02  0.77617910857E+01  0.36781343372E+02  0.00000000000E+00 0.  1.
</event>
<event>
 7    1  0.4836188E-013  0.5052886E+02  0.7816164E-02  0.1300439E+00
        -11   -1    0    0    0    0  0.00000000000E+00  0.00000000000E+00  0.45593999997E+02  0.45594000000E+02  0.51100000000E-03 0.  1.
         11   -1    0    0    0    0 -0.00000000000E+00 -0.00000000000E+00 -0.45593999997E+02  0.45594000000E+02  0.51100000000E-03 0. -1.
    9900012    2    1    2    0    0 -0.45105471400E+01  0.35293811287E+02  0.19676569978E+02  0.50528861338E+02  0.30000004522E+02 0.  0.
         12    1    1    2    0    0  0.45105471400E+01 -0.35293811287E+02 -0.19676569978E+02  0.40659138662E+02  0.00000000000E+00 0. -1.
         11    1    3    3    0    0  0.56121501779E+01  0.37479632086E+01  0.80042671073E+01  0.10469563029E+02  0.51100000000E-03 0. -1.
        -11    1    3    3    0    0 -0.15288216511E+01  0.25847380081E+02  0.14076033131E+02  0.29471326092E+02  0.51100000000E-03 0.  1.
         12    1    3    3    0    0 -0.85938756668E+01  0.56984679973E+01 -0.24037302597E+01  0.10587972216E+02  0.00000000000E+00 0. -1.
</event>
<event>
 7    1  0.4836188E-013  0.5052886E+02  0.7816164E-02  0.1300439E+00
        -11   -1    0    0    0    0  0.00000000000E+00  0.00000000000E+00  0.45593999997E+02  0.45594000000E+02  0.51100000000E-03 0. -1.
         11   -1    0    0    0    0 -0.00000000000E+00 -0.00000000000E+00 -0.45593999997E+02  0.45594000000E+02  0.51100000000E-03 0.  1.
    9900012    2    1    2    0    0  0.16870248221E+02 -0.10362499158E+02 -0.35513085529E+02  0.50528857023E+02  0.29999991406E+02 0.  0.
         12    1    1    2    0    0 -0.16870248221E+02  0.10362499158E+02  0.35513085529E+02  0.40659142977E+02  0.00000000000E+00 0. -1.
         11    1    3    3    0    0 -0.51812547320E+01 -0.15837619675E+01 -0.23217399215E+01  0.58944193176E+01  0.51100000000E-03 0. -1.
        -11    1    3    3    0    0  0.42337753032E+01 -0.86151554654E+01 -0.39254086951E+01  0.10370852940E+02  0.51100000000E-03 0.  1.
         12    1    3    3    0    0  0.17817727650E+02 -0.16358172523E+00 -0.29265936913E+02  0.34263584765E+02  0.00000000000E+00 0. -1.
</event>
<event>
 7    1  0.4836188E-013  0.5052886E+02  0.7816164E-02  0.1300439E+00
        -11   -1    0    0    0    0  0.00000000000E+00  0.00000000000E+00  0.45593999997E+02  0.45594000000E+02  0.51100000000E-03 0. -1.
         11   -1    0    0    0    0 -0.00000000000E+00 -0.00000000000E+00 -0.45593999997E+02  0.45594000000E+02  0.51100000000E-03 0.  1.
    9900012    2    1    2    0    0 -0.31631648878E+02 -0.25031886409E+02  0.50999419002E+01  0.50528856437E+02  0.29999989625E+02 0.  0.
         12    1    1    2    0    0  0.31631648878E+02  0.25031886409E+02 -0.50999419002E+01  0.40659143563E+02  0.00000000000E+00 0. -1.
         11    1    3    3    0    0 -0.69709753825E+00 -0.89812321305E+01  0.29356013886E+01  0.94745042790E+01  0.51100000000E-03 0. -1.
        -11    1    3    3    0    0 -0.50747913850E+00  0.36871650642E+01  0.29938361355E+01  0.47765862657E+01  0.51100000000E-03 0.  1.
        -12    1    3    3    0    0 -0.30427072201E+02 -0.19737819343E+02 -0.82949562382E+00  0.36277765892E+02  0.00000000000E+00 0.  1.
</event>
<event>
 7    1  0.4836188E-013  0.5052888E+02  0.7816164E-02  0.1300439E+00
        -11   -1    0    0    0    0  0.00000000000E+00  0.00000000000E+00  0.45593999997E+02  0.45594000000E+02  0.51100000000E-03 0. -1.
         11   -1    0    0    0    0 -0.00000000000E+00 -0.00000000000E+00 -0.45593999997E+02  0.45594000000E+02  0.51100000000E-03 0.  1.
    9900012    2    1    2    0    0  0.25170336104E+01  0.38176637431E+02 -0.13761288363E+02  0.50528878500E+02  0.30000056689E+02 0.  0.
         12    1    1    2    0    0 -0.25170336104E+01 -0.38176637431E+02  0.13761288363E+02  0.40659121500E+02  0.00000000000E+00 0. -1.
         11    1    3    3    0    0  0.42236917930E+01  0.13406551628E+02  0.96828857985E+00  0.14089456411E+02  0.51100000000E-03 0. -1.
        -11    1    3    3    0    0  0.24172028154E+01 -0.36321785060E+01 -0.45854769249E+00  0.43870099610E+01  0.51100000000E-03 0.  1.
        -12    1    3    3    0    0 -0.41238609981E+01  0.28402264309E+02 -0.14271029250E+02  0.32052412128E+02  0.00000000000E+00 0.  1.
</event>
<event>
 7    1  0.4836188E-013  0.5052885E+02  0.7816164E-02  0.1300439E+00
        -11   -1    0    0    0    0  0.00000000000E+00  0.00000000000E+00  0.45593999997E+02  0.45594000000E+02  0.51100000000E-03 0. -1.
         11   -1    0    0    0    0 -0.00000000000E+00 -0.00000000000E+00 -0.45593999997E+02  0.45594000000E+02  0.51100000000E-03 0.  1.
    9900012    2    1    2    0    0  0.15560923041E+02 -0.73999114541E+01 -0.36827515083E+02  0.50528845033E+02  0.29999954963E+02 0.  0.
         12    1    1    2    0    0 -0.15560923041E+02  0.73999114541E+01  0.36827515083E+02  0.40659154967E+02  0.00000000000E+00 0. -1.
         11    1    3    3    0    0 -0.17429199544E+01  0.76496479936E+00 -0.36980070235E+01  0.41591101595E+01  0.51100000000E-03 0. -1.
        -11    1    3    3    0    0  0.49895796330E+01 -0.15583208264E+02 -0.24928793848E+02  0.29819071879E+02  0.51100000000E-03 0.  1.
        -12    1    3    3    0    0  0.12314263363E+02  0.74183320110E+01 -0.82007142115E+01  0.16550662995E+02  0.00000000000E+00 0.  1.
</event>
<event>
 7    1  0.4836188E-013  0.5052874E+02  0.7816164E-02  0.1300439E+00
        -11   -1    0    0    0    0  0.00000000000E+00  0.00000000000E+00  0.45593999997E+02  0.45594000000E+02  0.51100000000E-03 0.  1.
         11   -1    0    0    0    0 -0.00000000000E+00 -0.00000000000E+00 -0.45593999997E+02  0.45594000000E+02  0.51100000000E-03 0. -1.
    9900012    2    1    2    0    0 -0.13183602435E+02  0.17062063112E+02  0.34471061558E+02  0.50528739607E+02  0.29999634506E+02 0.  0.
         12    1    1    2    0    0  0.13183602435E+02 -0.17062063112E+02 -0.34471061558E+02  0.40659260393E+02  0.00000000000E+00 0. -1.
         11    1    3    3    0    0 -0.14643298868E+02  0.13905881779E+02  0.18416560838E+02  0.27330742089E+02  0.51100000000E-03 0. -1.
        -11    1    3    3    0    0 -0.57976905367E+01 -0.15668669994E+01  0.12442185465E+02  0.13815797739E+02  0.51100000000E-03 0.  1.
         12    1    3    3    0    0  0.72573869699E+01  0.47230483329E+01  0.36123152550E+01  0.93821997787E+01  0.00000000000E+00 0. -1.
</event>
<event>
 7    1  0.4836188E-013  0.5052886E+02  0.7816164E-02  0.1300439E+00
        -11   -1    0    0    0    0  0.00000000000E+00  0.00000000000E+00  0.45593999997E+02  0.45594000000E+02  0.51100000000E-03 0.  1.
         11   -1    0    0    0    0 -0.00000000000E+00 -0.00000000000E+00 -0.45593999997E+02  0.45594000000E+02  0.51100000000E-03 0. -1.
    9900012    2    1    2    0    0 -0.20758905740E+02  0.32842144470E+02  0.11984450362E+02  0.50528859928E+02  0.30000000237E+02 0.  0.
         12    1    1    2    0    0  0.20758905740E+02 -0.32842144470E+02 -0.11984450362E+02  0.40659140072E+02  0.00000000000E+00 0. -1.
         11    1    3    3    0    0  0.39802035803E+01  0.13534457174E+02  0.78230593523E+01  0.16131454040E+02  0.51100000000E-03 0. -1.
        -11    1    3    3    0    0  0.71302643920E+00  0.26848318455E+01 -0.19443861917E+01  0.33907767053E+01  0.51100000000E-03 0.  1.
        -12    1    3    3    0    0 -0.25452135760E+02  0.16622855450E+02  0.61057772009E+01  0.31006629183E+02  0.00000000000E+00 0.  1.
</event>
<event>
 7    1  0.4836188E-013  0.5052886E+02  0.7816164E-02  0.1300439E+00
        -11   -1    0    0    0    0  0.00000000000E+00  0.00000000000E+00  0.45593999997E+02  0.45594000000E+02  0.51100000000E-03 0.  1.
         11   -1    0    0    0    0 -0.00000000000E+00 -0.00000000000E+00 -0.45593999997E+02  0.45594000000E+02  0.51100000000E-03 0. -1.
    9900012    2    1    2    0    0 -0.16779509429E+02  0.21080204727E+02  0.30450597607E+02  0.50528857576E+02  0.29999993089E+02 0.  0.
         12    1    1    2    0    0  0.16779509429E+02 -0.21080204727E+02 -0.30450597607E+02  0.40659142424E+02  0.00000000000E+00 0. -1.
         11    1    3    3    0    0 -0.92709938974E+01 -0.35552714136E+00  0.47853430646E+01  0.10439216249E+02  0.51100000000E-03 0. -1.
        -11    1    3    3    0    0 -0.23876000086E+01  0.25108015866E+01  0.19103527511E+02  0.19415187922E+02  0.51100000000E-03 0.  1.
        -12    1    3    3    0    0 -0.51209155235E+01  0.18924930282E+02  0.65617270309E+01  0.20674453405E+02  0.00000000000E+00 0.  1.
</event>
<event>
 7    1  0.4836188E-013  0.5052887E+02  0.7816164E-02  0.1300439E+00
        -11   -1    0    0    0    0  0.00000000000E+00  0.00000000000E+00  0.45593999997E+02  0.45594000000E+02  0.51100000000E-03 0.  1.
         11   -1    0    0    0    0 -0.00000000000E+00 -0.00000000000E+00 -0.45593999997E+02  0.45594000000E+02  0.51100000000E-03 0. -1.
    9900012    2    1    2    0    0 -0.17673628185E+02  0.25306590476E+02  0.26464776261E+02  0.50528867725E+02  0.30000023938E+02 0.  0.
         12    1    1    2    0    0  0.17673628185E+02 -0.25306590476E+02 -0.26464776261E+02  0.40659132275E+02  0.00000000000E+00 0. -1.
         11    1    3    3    0    0 -0.45571405845E-01 -0.26222006456E+01  0.92541331932E-02  0.26226129869E+01  0.51100000000E-03 0. -1.
        -11    1    3    3    0    0 -0.12762337148E+02  0.79309993463E+01  0.84351489163E+00  0.15049568690E+02  0.51100000000E-03 0.  1.
        -12    1    3    3    0    0 -0.48657196313E+01  0.19997791775E+02  0.25612007237E+02  0.32856686049E+02  0.00000000000E+00 0.  1.
</event>
<event>
 7    1  0.4836188E-013  0.5052886E+02  0.7816164E-02  0.1300439E+00
        -11   -1    0    0    0    0  0.00000000000E+00  0.00000000000E+00  0.45593999997E+02  0.45594000000E+02  0.51100000000E-03 0.  1.
         11   -1    0    0    0    0 -0.00000000000E+00 -0.00000000000E+00 -0.45593999997E+02  0.45594000000E+02  0.51100000000E-03 0. -1.
    9900012    2    1    2    0    0  0.77994286620E+01 -0.22339498812E+02  0.33064803586E+02  0.50528861657E+02  0.30000005493E+02 0.  0.
         12    1    1    2    0    0 -0.77994286620E+01  0.22339498812E+02 -0.33064803586E+02  0.40659138343E+02  0.00000000000E+00 0. -1.
         11    1    3    3    0    0 -0.42492395742E+00  0.14246674566E+01 -0.10461406953E+01  0.18178691777E+01  0.51100000000E-03 0. -1.
        -11    1    3    3    0    0 -0.54791844504E+01 -0.78418656564E+01  0.23079059291E+02  0.24983180287E+02  0.51100000000E-03 0.  1.
        -12    1    3    3    0    0  0.13703537070E+02 -0.15922300613E+02  0.11031884990E+02  0.23727812193E+02  0.00000000000E+00 0.  1.
</event>
<event>
 7    1  0.4836188E-013  0.5052885E+02  0.7816164E-02  0.1300439E+00
        -11   -1    0    0    0    0  0.00000000000E+00  0.00000000000E+00  0.45593999997E+02  0.45594000000E+02  0.51100000000E-03 0. -1.
         11   -1    0    0    0    0 -0.00000000000E+00 -0.00000000000E+00 -0.45593999997E+02  0.45594000000E+02  0.51100000000E-03 0.  1.
    9900012    2    1    2    0    0 -0.34464033713E+02  0.55176375439E+01 -0.20855507147E+02  0.50528854384E+02  0.29999983386E+02 0.  0.
         12    1    1    2    0    0  0.34464033713E+02 -0.55176375439E+01  0.20855507147E+02  0.40659145616E+02  0.00000000000E+00 0. -1.
         11    1    3    3    0    0 -0.14853427391E+01  0.27436212848E+01  0.51805303207E+01  0.60474453674E+01  0.51100000000E-03 0. -1.
        -11    1    3    3    0    0 -0.54632745681E+01  0.45703308810E+01 -0.10914971682E+02  0.13033491491E+02  0.51100000000E-03 0.  1.
         12    1    3    3    0    0 -0.27515416406E+02 -0.17963146219E+01 -0.15121065785E+02  0.31447917526E+02  0.00000000000E+00 0. -1.
</event>
<event>
 7    1  0.4836188E-013  0.5052886E+02  0.7816164E-02  0.1300439E+00
        -11   -1    0    0    0    0  0.00000000000E+00  0.00000000000E+00  0.45593999997E+02  0.45594000000E+02  0.51100000000E-03 0.  1.
         11   -1    0    0    0    0 -0.00000000000E+00 -0.00000000000E+00 -0.45593999997E+02  0.45594000000E+02  0.51100000000E-03 0. -1.
    9900012    2    1    2    0    0 -0.12151531381E+01 -0.24593029835E+02  0.32355395241E+02  0.50528864313E+02  0.30000013566E+02 0.  0.
         12    1    1    2    0    0  0.12151531381E+01  0.24593029835E+02 -0.32355395241E+02  0.40659135687E+02  0.00000000000E+00 0. -1.
         11    1    3    3    0    0 -0.10287684322E+02 -0.14973586328E+02  0.25091018878E+02  0.30977475120E+02  0.51100000000E-03 0.  1.
        -11    1    3    3    0    0 -0.19987584959E+01 -0.96660692607E+00 -0.17757840511E+01  0.28430219366E+01  0.51100000000E-03 0. -1.
        -12    1    3    3    0    0  0.11071289680E+02 -0.86528365801E+01  0.90401604146E+01  0.16708367256E+02  0.00000000000E+00 0.  1.
</event>
<event>
 7    1  0.4836188E-013  0.5052887E+02  0.7816164E-02  0.1300439E+00
        -11   -1    0    0    0    0  0.00000000000E+00  0.00000000000E+00  0.45593999997E+02  0.45594000000E+02  0.51100000000E-03 0.  1.
         11   -1    0    0    0    0 -0.00000000000E+00 -0.00000000000E+00 -0.45593999997E+02  0.45594000000E+02  0.51100000000E-03 0. -1.
    9900012    2    1    2    0    0  0.91078847026E+00 -0.28354292669E+02  0.29126786152E+02  0.50528866709E+02  0.30000020849E+02 0.  0.
         12    1    1    2    0    0 -0.91078847026E+00  0.28354292669E+02 -0.29126786152E+02  0.40659133291E+02  0.00000000000E+00 0. -1.
         11    1    3    3    0    0  0.42992045528E+01 -0.16775969908E+02  0.19560096894E+02  0.26124963481E+02  0.51100000000E-03 0.  1.
        -11    1    3    3    0    0 -0.60536440245E+01 -0.13619303378E+02  0.12871766094E+02  0.19693003659E+02  0.51100000000E-03 0. -1.
         12    1    3    3    0    0  0.26652279419E+01  0.20409806166E+01 -0.33050768356E+01  0.47108995689E+01  0.00000000000E+00 0. -1.
</event>
<event>
 7    1  0.4836188E-013  0.5052888E+02  0.7816164E-02  0.1300439E+00
        -11   -1    0    0    0    0  0.00000000000E+00  0.00000000000E+00  0.45593999997E+02  0.45594000000E+02  0.51100000000E-03 0.  1.
         11   -1    0    0    0    0 -0.00000000000E+00 -0.00000000000E+00 -0.45593999997E+02  0.45594000000E+02  0.51100000000E-03 0. -1.
    9900012    2    1    2    0    0 -0.15880348820E+00 -0.53258974113E+01  0.40308481703E+02  0.50528879265E+02  0.30000059013E+02 0.  0.
         12    1    1    2    0    0  0.15880348820E+00  0.53258974113E+01 -0.40308481703E+02  0.40659120735E+02  0.00000000000E+00 0. -1.
         11    1    3    3    0    0  0.36867790352E+01 -0.41354354677E+01  0.10987933338E+02  0.12305642830E+02  0.51100000000E-03 0. -1.
        -11    1    3    3    0    0 -0.91209006895E+01 -0.56023541221E+01  0.29460434712E+02  0.31344766944E+02  0.51100000000E-03 0.  1.
         12    1    3    3    0    0  0.52753181661E+01  0.44118921785E+01 -0.13988634653E+00  0.68784694910E+01  0.00000000000E+00 0. -1.
</event>
<event>
 7    1  0.4836188E-013  0.5052888E+02  0.7816164E-02  0.1300439E+00
        -11   -1    0    0    0    0  0.00000000000E+00  0.00000000000E+00  0.45593999997E+02  0.45594000000E+02  0.51100000000E-03 0. -1.
         11   -1    0    0    0    0 -0.00000000000E+00 -0.00000000000E+00 -0.45593999997E+02  0.45594000000E+02  0.51100000000E-03 0.  1.
    9900012    2    1    2    0    0  0.38178473189E+02 -0.13700163552E+02  0.28059574162E+01  0.50528884251E+02  0.30000074170E+02 0.  0.
         12    1    1    2    0    0 -0.38178473189E+02  0.13700163552E+02 -0.28059574162E+01  0.40659115749E+02  0.00000000000E+00 0. -1.
         11    1    3    3    0    0 -0.38020529916E+01 -0.22558219380E+01 -0.26885343255E+01  0.51742203903E+01  0.51100000000E-03 0. -1.
        -11    1    3    3    0    0  0.49098072829E+01  0.21083195096E+00  0.42142174388E+01  0.64738154553E+01  0.51100000000E-03 0.  1.
        -12    1    3    3    0    0  0.37070718898E+02 -0.11655173565E+02  0.12802743029E+01  0.38880848406E+02  0.00000000000E+00 0.  1.
</event>
<event>
 7    1  0.4836188E-013  0.5052886E+02  0.7816164E-02  0.1300439E+00
        -11   -1    0    0    0    0  0.00000000000E+00  0.00000000000E+00  0.45593999997E+02  0.45594000000E+02  0.51100000000E-03 0.  1.
         11   -1    0    0    0    0 -0.00000000000E+00 -0.00000000000E+00 -0.45593999997E+02  0.45594000000E+02  0.51100000000E-03 0. -1.
    9900012    2    1    2    0    0  0.28214258854E+02  0.21056175106E+02  0.20341064324E+02  0.50528858216E+02  0.29999995034E+02 0.  0.
         12    1    1    2    0    0 -0.28214258854E+02 -0.21056175106E+02 -0.20341064324E+02  0.40659141784E+02  0.00000000000E+00 0. -1.
         11    1    3    3    0    0 -0.20795987118E+01  0.58668762488E+01  0.12569025089E+02  0.14025881779E+02  0.51100000000E-03 0.  1.
        -11    1    3    3    0    0  0.50299738463E+01  0.78391221232E+00 -0.24851049550E+01  0.56648832424E+01  0.51100000000E-03 0. -1.
        -12    1    3    3    0    0  0.25263883719E+02  0.14405386645E+02  0.10257144189E+02  0.30838093195E+02  0.00000000000E+00 0.  1.
</event>
<event>
 7    1  0.4836188E-013  0.5052887E+02  0.7816164E-02  0.1300439E+00
        -11   -1    0    0    0    0  0.00000000000E+00  0.00000000000E+00  0.45593999997E+02  0.45594000000E+02  0.51100000000E-03 0.  1.
         11   -1    0    0    0    0 -0.00000000000E+00 -0.00000000000E+00 -0.45593999997E+02  0.45594000000E+02  0.51100000000E-03 0. -1.
    9900012    2    1    2    0    0 -0.30931070012E+02  0.18492004323E+02  0.18827635868E+02  0.50528865868E+02  0.30000018293E+02 0.  0.
         12    1    1    2    0    0  0.30931070012E+02 -0.18492004323E+02 -0.18827635868E+02  0.40659134132E+02  0.00000000000E+00 0. -1.
         11    1    3    3    0    0 -0.16393552818E+02  0.11297275832E+02  0.28700975391E+01  0.20115031081E+02  0.51100000000E-03 0. -1.
        -11    1    3    3    0    0 -0.68037362823E+01  0.13978120485E+02  0.85988109883E+01  0.17765647479E+02  0.51100000000E-03 0.  1.
         12    1    3    3    0    0 -0.77337809113E+01 -0.67833919929E+01  0.73587273406E+01  0.12648187308E+02  0.00000000000E+00 0. -1.
</event>
<event>
 7    1  0.4836188E-013  0.5052886E+02  0.7816164E-02  0.1300439E+00
        -11   -1    0    0    0    0  0.00000000000E+00  0.00000000000E+00  0.45593999997E+02  0.45594000000E+02  0.51100000000E-03 0.  1.
         11   -1    0    0    0    0 -0.00000000000E+00 -0.00000000000E+00 -0.45593999997E+02  0.45594000000E+02  0.51100000000E-03 0. -1.
    9900012    2    1    2    0    0  0.69357586715E+01  0.15212942890E+02  0.37062476289E+02  0.50528861686E+02  0.30000005582E+02 0.  0.
         12    1    1    2    0    0 -0.69357586715E+01 -0.15212942890E+02 -0.37062476289E+02  0.40659138314E+02  0.00000000000E+00 0. -1.
         11    1    3    3    0    0 -0.40487155829E+01 -0.28424461199E+01  0.46949878993E+01  0.68201546501E+01  0.51100000000E-03 0. -1.
        -11    1    3    3    0    0 -0.62487568536E+00  0.36117252444E+01  0.22339923134E+02  0.22638621750E+02  0.51100000000E-03 0.  1.
         12    1    3    3    0    0  0.11609349940E+02  0.14443663766E+02  0.10027565256E+02  0.21070085286E+02  0.00000000000E+00 0. -1.
</event>
<event>
 7    1  0.4836188E-013  0.5052892E+02  0.7816164E-02  0.1300439E+00
        -11   -1    0    0    0    0  0.00000000000E+00  0.00000000000E+00  0.45593999997E+02  0.45594000000E+02  0.51100000000E-03 0.  1.
         11   -1    0    0    0    0 -0.00000000000E+00 -0.00000000000E+00 -0.45593999997E+02  0.45594000000E+02  0.51100000000E-03 0. -1.
    9900012    2    1    2    0    0  0.11745732057E+02  0.10807239672E+02  0.37395218347E+02  0.50528917298E+02  0.30000174620E+02 0.  0.
         12    1    1    2    0    0 -0.11745732057E+02 -0.10807239672E+02 -0.37395218347E+02  0.40659082702E+02  0.00000000000E+00 0. -1.
         11    1    3    3    0    0  0.52654840134E+01  0.12279884471E+02  0.94312980131E+01  0.16354518244E+02  0.51100000000E-03 0. -1.
        -11    1    3    3    0    0  0.30008436971E+01  0.40934087091E+01  0.27079441497E+02  0.27550992901E+02  0.51100000000E-03 0.  1.
        -12    1    3    3    0    0  0.34794043469E+01 -0.55660535080E+01  0.88447883659E+00  0.66234061536E+01  0.00000000000E+00 0.  1.
</event>
<event>
 7    1  0.4836188E-013  0.5052886E+02  0.7816164E-02  0.1300439E+00
        -11   -1    0    0    0    0  0.00000000000E+00  0.00000000000E+00  0.45593999997E+02  0.45594000000E+02  0.51100000000E-03 0. -1.
         11   -1    0    0    0    0 -0.00000000000E+00 -0.00000000000E+00 -0.45593999997E+02  0.45594000000E+02  0.51100000000E-03 0.  1.
    9900012    2    1    2    0    0 -0.14962309189E+02 -0.37804607561E+02 -0.32629924932E+00  0.50528861786E+02  0.30000005884E+02 0.  0.
         12    1    1    2    0    0  0.14962309189E+02  0.37804607561E+02  0.32629924932E+00  0.40659138214E+02  0.00000000000E+00 0. -1.
         11    1    3    3    0    0  0.15153612416E+01  0.70490730427E+00  0.21964626285E+01  0.27600112934E+01  0.51100000000E-03 0. -1.
        -11    1    3    3    0    0  0.43066591597E+01 -0.14098994571E+02 -0.51142713478E+01  0.15603997331E+02  0.51100000000E-03 0.  1.
         12    1    3    3    0    0 -0.20784329590E+02 -0.24410520294E+02  0.25915094699E+01  0.32164853161E+02  0.00000000000E+00 0. -1.
</event>
<event>
 7    1  0.4836188E-013  0.5052886E+02  0.7816164E-02  0.1300439E+00
        -11   -1    0    0    0    0  0.00000000000E+00  0.00000000000E+00  0.45593999997E+02  0.45594000000E+02  0.51100000000E-03 0.  1.
         11   -1    0    0    0    0 -0.00000000000E+00 -0.00000000000E+00 -0.45593999997E+02  0.45594000000E+02  0.51100000000E-03 0. -1.
    9900012    2    1    2    0    0  0.29426443999E+02 -0.56750521964E+01  0.27478066175E+02  0.50528856568E+02  0.29999990024E+02 0.  0.
         12    1    1    2    0    0 -0.29426443999E+02  0.56750521964E+01 -0.27478066175E+02  0.40659143432E+02  0.00000000000E+00 0. -1.
         11    1    3    3    0    0  0.47097540064E+01 -0.65354792954E+01  0.58779983139E+01  0.99722182517E+01  0.51100000000E-03 0. -1.
        -11    1    3    3    0    0  0.25608830006E+02 -0.62268232394E+01  0.13030406206E+02  0.29400288912E+02  0.51100000000E-03 0.  1.
         12    1    3    3    0    0 -0.89214001267E+00  0.70872503384E+01  0.85696616549E+01  0.11156349405E+02  0.00000000000E+00 0. -1.
</event>
<event>
 7    1  0.4836188E-013  0.5052885E+02  0.7816164E-02  0.1300439E+00
        -11   -1    0    0    0    0  0.00000000000E+00  0.00000000000E+00  0.45593999997E+02  0.45594000000E+02  0.51100000000E-03 0. -1.
         11   -1    0    0    0    0 -0.00000000000E+00 -0.00000000000E+00 -0.45593999997E+02  0.45594000000E+02  0.51100000000E-03 0.  1.
    9900012    2    1    2    0    0  0.33733572290E+02 -0.30262669760E+01 -0.22495649665E+02  0.50528850413E+02  0.29999971316E+02 0.  0.
         12    1    1    2    0    0 -0.33733572290E+02  0.30262669760E+01  0.22495649665E+02  0.40659149587E+02  0.00000000000E+00 0. -1.
         11    1    3    3    0    0  0.34511626010E+01 -0.20115458534E+01 -0.71560449720E+01  0.81954755763E+01  0.51100000000E-03 0.  1.
        -11    1    3    3    0    0  0.27991427405E+02 -0.59407535402E+00 -0.12214496518E+01  0.28024362137E+02  0.51100000000E-03 0. -1.
         12    1    3    3    0    0  0.22909822848E+01 -0.42064576857E+00 -0.14118155041E+02  0.14309012700E+02  0.00000000000E+00 0. -1.
</event>
<event>
 7    1  0.4836188E-013  0.5052886E+02  0.7816164E-02  0.1300439E+00
        -11   -1    0    0    0    0  0.00000000000E+00  0.00000000000E+00  0.45593999997E+02  0.45594000000E+02  0.51100000000E-03 0.  1.
         11   -1    0    0    0    0 -0.00000000000E+00 -0.00000000000E+00 -0.45593999997E+02  0.45594000000E+02  0.51100000000E-03 0. -1.
    9900012    2    1    2    0    0  0.14793503630E+02 -0.92434310684E+01  0.36727058508E+02  0.50528860877E+02  0.30000003122E+02 0.  0.
         12    1    1    2    0    0 -0.14793503630E+02  0.92434310684E+01 -0.36727058508E+02  0.40659139123E+02  0.00000000000E+00 0. -1.
         11    1    3    3    0    0  0.97009401274E+01  0.55354111332E+01  0.53904794842E+01  0.12401866194E+02  0.51100000000E-03 0. -1.
        -11    1    3    3    0    0  0.41592580215E+01  0.40808921905E+00  0.11692806172E+01  0.43397213647E+01  0.51100000000E-03 0.  1.
        -12    1    3    3    0    0  0.93330548081E+00 -0.15186931421E+02  0.30167298407E+02  0.33787273318E+02  0.00000000000E+00 0.  1.
</event>
<event>
 7    1  0.4836188E-013  0.5052886E+02  0.7816164E-02  0.1300439E+00
        -11   -1    0    0    0    0  0.00000000000E+00  0.00000000000E+00  0.45593999997E+02  0.45594000000E+02  0.51100000000E-03 0.  1.
         11   -1    0    0    0    0 -0.00000000000E+00 -0.00000000000E+00 -0.45593999997E+02  0.45594000000E+02  0.51100000000E-03 0. -1.
    9900012    2    1    2    0    0 -0.10594669693E+02  0.16678909397E+02  0.35534950775E+02  0.50528858701E+02  0.29999996508E+02 0.  0.
         12    1    1    2    0    0  0.10594669693E+02 -0.16678909397E+02 -0.35534950775E+02  0.40659141299E+02  0.00000000000E+00 0. -1.
         11    1    3    3    0    0 -0.40657313381E+01  0.10143112936E+02  0.99998382236E+01  0.14812483792E+02  0.51100000000E-03 0. -1.
        -11    1    3    3    0    0 -0.15274963897E+02  0.49493779866E+01  0.15636198800E+02  0.22412308621E+02  0.51100000000E-03 0.  1.
        -12    1    3    3    0    0  0.87460255421E+01  0.15864184747E+01  0.98989137508E+01  0.13304066288E+02  0.00000000000E+00 0.  1.
</event>
<event>
 7    1  0.4836188E-013  0.5052886E+02  0.7816164E-02  0.1300439E+00
        -11   -1    0    0    0    0  0.00000000000E+00  0.00000000000E+00  0.45593999997E+02  0.45594000000E+02  0.51100000000E-03 0. -1.
         11   -1    0    0    0    0 -0.00000000000E+00 -0.00000000000E+00 -0.45593999997E+02  0.45594000000E+02  0.51100000000E-03 0.  1.
    9900012    2    1    2    0    0  0.30430231952E+02 -0.73406546221E+01 -0.25947661509E+02  0.50528863699E+02  0.30000011701E+02 0.  0.
         12    1    1    2    0    0 -0.30430231952E+02  0.73406546221E+01  0.25947661509E+02  0.40659136301E+02  0.00000000000E+00 0. -1.
         11    1    3    3    0    0 -0.40882868171E+00 -0.88136973413E+01 -0.24547843059E+01  0.91582950359E+01  0.51100000000E-03 0. -1.
        -11    1    3    3    0    0  0.19672781259E+02 -0.59425112178E+01 -0.12671350678E+02  0.24143216238E+02  0.51100000000E-03 0.  1.
         12    1    3    3    0    0  0.11166279375E+02  0.74155539370E+01 -0.10821526525E+02  0.17227352426E+02  0.00000000000E+00 0. -1.
</event>
<event>
 7    1  0.4836188E-013  0.5052887E+02  0.7816164E-02  0.1300439E+00
        -11   -1    0    0    0    0  0.00000000000E+00  0.00000000000E+00  0.45593999997E+02  0.45594000000E+02  0.51100000000E-03 0. -1.
         11   -1    0    0    0    0 -0.00000000000E+00 -0.00000000000E+00 -0.45593999997E+02  0.45594000000E+02  0.51100000000E-03 0.  1.
    9900012    2    1    2    0    0 -0.35307845641E+02 -0.18183946129E+02  0.87100435896E+01  0.50528871628E+02  0.30000035801E+02 0.  0.
         12    1    1    2    0    0  0.35307845641E+02  0.18183946129E+02 -0.87100435896E+01  0.40659128372E+02  0.00000000000E+00 0. -1.
         11    1    3    3    0    0 -0.41979603369E+01 -0.10395119800E+02 -0.30366163719E+00  0.11214882848E+02  0.51100000000E-03 0. -1.
        -11    1    3    3    0    0 -0.21500085218E+02 -0.54275159878E+01 -0.44381955345E+01  0.22614357697E+02  0.51100000000E-03 0.  1.
         12    1    3    3    0    0 -0.96098000860E+01 -0.23613103413E+01  0.13451900761E+02  0.16699631083E+02  0.00000000000E+00 0. -1.
</event>
<event>
 7    1  0.4836188E-013  0.5052887E+02  0.7816164E-02  0.1300439E+00
        -11   -1    0    0    0    0  0.00000000000E+00  0.00000000000E+00  0.45593999997E+02  0.45594000000E+02  0.51100000000E-03 0. -1.
         11   -1    0    0    0    0 -0.00000000000E+00 -0.00000000000E+00 -0.45593999997E+02  0.45594000000E+02  0.51100000000E-03 0.  1.
    9900012    2    1    2    0    0  0.40397654794E+02  0.23511617600E+01 -0.39580332058E+01  0.50528874317E+02  0.30000043974E+02 0.  0.
         12    1    1    2    0    0 -0.40397654794E+02 -0.23511617600E+01  0.39580332058E+01  0.40659125683E+02  0.00000000000E+00 0. -1.
         11    1    3    3    0    0  0.18050000318E+02  0.34558041609E+01 -0.84309591790E+01  0.20219450211E+02  0.51100000000E-03 0. -1.
        -11    1    3    3    0    0  0.18397559673E+02 -0.92911855493E+01  0.11895533860E+01  0.20644887221E+02  0.51100000000E-03 0.  1.
         12    1    3    3    0    0  0.39500948022E+01  0.81865431484E+01  0.32833725872E+01  0.96645368856E+01  0.00000000000E+00 0. -1.
</event>
<event>
 7    1  0.4836188E-013  0.5052886E+02  0.7816164E-02  0.1300439E+00
        -11   -1    0    0    0    0  0.00000000000E+00  0.00000000000E+00  0.45593999997E+02  0.45594000000E+02  0.51100000000E-03 0. -1.
         11   -1    0    0    0    0 -0.00000000000E+00 -0.00000000000E+00 -0.45593999997E+02  0.45594000000E+02  0.51100000000E-03 0.  1.
    9900012    2    1    2    0    0 -0.39690730258E+02 -0.83442130552E+01 -0.28610741785E+01  0.50528859510E+02  0.29999998968E+02 0.  0.
         12    1    1    2    0    0  0.39690730258E+02  0.83442130552E+01  0.28610741785E+01  0.40659140490E+02  0.00000000000E+00 0. -1.
         11    1    3    3    0    0 -0.17277554585E+02 -0.38452085542E+01 -0.20808926841E+01  0.17822166981E+02  0.51100000000E-03 0.  1.
        -11    1    3    3    0    0 -0.12597174745E+02 -0.21619844517E+01 -0.12059585251E+02  0.17572608942E+02  0.51100000000E-03 0. -1.
         12    1    3    3    0    0 -0.98160009273E+01 -0.23370200492E+01  0.11279403757E+02  0.15134083587E+02  0.00000000000E+00 0. -1.
</event>
<event>
 7    1  0.4836188E-013  0.5052885E+02  0.7816164E-02  0.1300439E+00
        -11   -1    0    0    0    0  0.00000000000E+00  0.00000000000E+00  0.45593999997E+02  0.45594000000E+02  0.51100000000E-03 0. -1.
         11   -1    0    0    0    0 -0.00000000000E+00 -0.00000000000E+00 -0.45593999997E+02  0.45594000000E+02  0.51100000000E-03 0.  1.
    9900012    2    1    2    0    0 -0.11896766653E+02  0.17882679188E+01 -0.38838580908E+02  0.50528851879E+02  0.29999975772E+02 0.  0.
         12    1    1    2    0    0  0.11896766653E+02 -0.17882679188E+01  0.38838580908E+02  0.40659148121E+02  0.00000000000E+00 0. -1.
         11    1    3    3    0    0  0.21181322483E+01 -0.31446290222E+01 -0.13566618299E+02  0.14086458329E+02  0.51100000000E-03 0. -1.
        -11    1    3    3    0    0 -0.65553813191E+01 -0.85814815480E+01 -0.96934565350E+01  0.14511304202E+02  0.51100000000E-03 0.  1.
        -12    1    3    3    0    0 -0.74595175826E+01  0.13514378489E+02 -0.15578506074E+02  0.21931089348E+02  0.00000000000E+00 0.  1.
</event>
<event>
 7    1  0.4836188E-013  0.5052886E+02  0.7816164E-02  0.1300439E+00
        -11   -1    0    0    0    0  0.00000000000E+00  0.00000000000E+00  0.45593999997E+02  0.45594000000E+02  0.51100000000E-03 0. -1.
         11   -1    0    0    0    0 -0.00000000000E+00 -0.00000000000E+00 -0.45593999997E+02  0.45594000000E+02  0.51100000000E-03 0.  1.
    9900012    2    1    2    0    0 -0.15392741406E+02  0.37303786354E+02 -0.49655617810E+01  0.50528858739E+02  0.29999996622E+02 0.  0.
         12    1    1    2    0    0  0.15392741406E+02 -0.37303786354E+02  0.49655617810E+01  0.40659141261E+02  0.00000000000E+00 0. -1.
         11    1    3    3    0    0 -0.34127825653E+01 -0.22216736985E+01 -0.26525282996E+01  0.48599203185E+01  0.51100000000E-03 0. -1.
        -11    1    3    3    0    0 -0.67363111006E+01  0.55894013792E+01 -0.67379484002E+01  0.11046232114E+02  0.51100000000E-03 0.  1.
        -12    1    3    3    0    0 -0.52436477399E+01  0.33936058673E+02  0.44249149188E+01  0.34622706306E+02  0.00000000000E+00 0.  1.
</event>
<event>
 7    1  0.4836188E-013  0.5052886E+02  0.7816164E-02  0.1300439E+00
        -11   -1    0    0    0    0  0.00000000000E+00  0.00000000000E+00  0.45593999997E+02  0.45594000000E+02  0.51100000000E-03 0. -1.
         11   -1    0    0    0    0 -0.00000000000E+00 -0.00000000000E+00 -0.45593999997E+02  0.45594000000E+02  0.51100000000E-03 0.  1.
    9900012    2    1    2    0    0 -0.21613601082E+02 -0.28723932018E+02 -0.18998782575E+02  0.50528858819E+02  0.29999996865E+02 0.  0.
         12    1    1    2    0    0  0.21613601082E+02  0.28723932018E+02  0.18998782575E+02  0.40659141181E+02  0.00000000000E+00 0. -1.
         11    1    3    3    0    0 -0.11963654521E+02 -0.49994796112E+01 -0.10636288474E+01  0.13009809086E+02  0.51100000000E-03 0. -1.
        -11    1    3    3    0    0  0.11830093679E+01  0.31332774962E+01  0.19002274488E+00  0.33545562951E+01  0.51100000000E-03 0.  1.
        -12    1    3    3    0    0 -0.10832955930E+02 -0.26857729903E+02 -0.18125176472E+02  0.34164493437E+02  0.00000000000E+00 0.  1.
</event>
<event>
 7    1  0.4836188E-013  0.5052888E+02  0.7816164E-02  0.1300439E+00
        -11   -1    0    0    0    0  0.00000000000E+00  0.00000000000E+00  0.45593999997E+02  0.45594000000E+02  0.51100000000E-03 0.  1.
         11   -1    0    0    0    0 -0.00000000000E+00 -0.00000000000E+00 -0.45593999997E+02  0.45594000000E+02  0.51100000000E-03 0. -1.
    9900012    2    1    2    0    0  0.38489296304E+02  0.98454509974E+01  0.86490191886E+01  0.50528875954E+02  0.30000048949E+02 0.  0.
         12    1    1    2    0    0 -0.38489296304E+02 -0.98454509974E+01 -0.86490191886E+01  0.40659124046E+02  0.00000000000E+00 0. -1.
         11    1    3    3    0    0 -0.69163806596E+00 -0.63400472052E-01  0.88734457794E+00  0.11268378301E+01  0.51100000000E-03 0. -1.
        -11    1    3    3    0    0  0.39466738995E+02  0.12064223521E+02  0.13374703161E+02  0.43382619342E+02  0.51100000000E-03 0.  1.
         12    1    3    3    0    0 -0.28580462507E+00 -0.21553720517E+01 -0.56130285503E+01  0.60194187819E+01  0.00000000000E+00 0. -1.
</event>
<event>
 7    1  0.4836188E-013  0.5052885E+02  0.7816164E-02  0.1300439E+00
        -11   -1    0    0    0    0  0.00000000000E+00  0.00000000000E+00  0.45593999997E+02  0.45594000000E+02  0.51100000000E-03 0. -1.
         11   -1    0    0    0    0 -0.00000000000E+00 -0.00000000000E+00 -0.45593999997E+02  0.45594000000E+02  0.51100000000E-03 0.  1.
    9900012    2    1    2    0    0  0.12244799505E+02 -0.20684872916E+02 -0.32792796029E+02  0.50528849076E+02  0.29999967251E+02 0.  0.
         12    1    1    2    0    0 -0.12244799505E+02  0.20684872916E+02  0.32792796029E+02  0.40659150924E+02  0.00000000000E+00 0. -1.
         11    1    3    3    0    0 -0.39569289080E+01 -0.11594718316E+02 -0.76550634246E+01  0.14446272028E+02  0.51100000000E-03 0. -1.
        -11    1    3    3    0    0  0.92496244895E+00  0.26239605110E+01  0.15432711169E+01  0.31815735567E+01  0.51100000000E-03 0.  1.
        -12    1    3    3    0    0  0.15276765964E+02 -0.11714115111E+02 -0.26681003721E+02  0.32901003491E+02  0.00000000000E+00 0.  1.
</event>
<event>
 7    1  0.4836188E-013  0.5052885E+02  0.7816164E-02  0.1300439E+00
        -11   -1    0    0    0    0  0.00000000000E+00  0.00000000000E+00  0.45593999997E+02  0.45594000000E+02  0.51100000000E-03 0.  1.
         11   -1    0    0    0    0 -0.00000000000E+00 -0.00000000000E+00 -0.45593999997E+02  0.45594000000E+02  0.51100000000E-03 0. -1.
    9900012    2    1    2    0    0  0.16782090592E+02 -0.36869001350E+02  0.34934755398E+01  0.50528853471E+02  0.29999980609E+02 0.  0.
         12    1    1    2    0    0 -0.16782090592E+02  0.36869001350E+02 -0.34934755398E+01  0.40659146529E+02  0.00000000000E+00 0. -1.
         11    1    3    3    0    0  0.42677432381E+00  0.30256061201E+01  0.10881552800E+01  0.32435337044E+01  0.51100000000E-03 0. -1.
        -11    1    3    3    0    0  0.65943922765E+01 -0.10287002090E+02  0.93014524432E+01  0.15356608978E+02  0.51100000000E-03 0.  1.
        -12    1    3    3    0    0  0.97609239914E+01 -0.29607605380E+02 -0.68961321835E+01  0.31928710788E+02  0.00000000000E+00 0.  1.
</event>
<event>
 7    1  0.4836188E-013  0.5052886E+02  0.7816164E-02  0.1300439E+00
        -11   -1    0    0    0    0  0.00000000000E+00  0.00000000000E+00  0.45593999997E+02  0.45594000000E+02  0.51100000000E-03 0.  1.
         11   -1    0    0    0    0 -0.00000000000E+00 -0.00000000000E+00 -0.45593999997E+02  0.45594000000E+02  0.51100000000E-03 0. -1.
    9900012    2    1    2    0    0 -0.13818806470E+02  0.23543109672E+02  0.30131842521E+02  0.50528863770E+02  0.30000011915E+02 0.  0.
         12    1    1    2    0    0  0.13818806470E+02 -0.23543109672E+02 -0.30131842521E+02  0.40659136230E+02  0.00000000000E+00 0. -1.
         11    1    3    3    0    0 -0.23998122233E+01  0.48151986349E+01 -0.16024791454E+01  0.56136597932E+01  0.51100000000E-03 0. -1.
        -11    1    3    3    0    0 -0.16177810639E+02  0.20243712949E+02  0.22077431486E+02  0.34043243857E+02  0.51100000000E-03 0.  1.
         12    1    3    3    0    0  0.47588163926E+01 -0.15158019119E+01  0.96568901803E+01  0.10871960120E+02  0.00000000000E+00 0. -1.
</event>
<event>
 7    1  0.4836188E-013  0.5052886E+02  0.7816164E-02  0.1300439E+00
        -11   -1    0    0    0    0  0.00000000000E+00  0.00000000000E+00  0.45593999997E+02  0.45594000000E+02  0.51100000000E-03 0.  1.
         11   -1    0    0    0    0 -0.00000000000E+00 -0.00000000000E+00 -0.45593999997E+02  0.45594000000E+02  0.51100000000E-03 0. -1.
    9900012    2    1    2    0    0 -0.25859986672E+02  0.10000887649E+02  0.29739011813E+02  0.50528862183E+02  0.30000007091E+02 0.  0.
         12    1    1    2    0    0  0.25859986672E+02 -0.10000887649E+02 -0.29739011813E+02  0.40659137817E+02  0.00000000000E+00 0. -1.
         11    1    3    3    0    0 -0.13917291956E+01  0.49610487662E+01  0.13990485218E+02  0.14909144573E+02  0.51100000000E-03 0. -1.
        -11    1    3    3    0    0 -0.91020344440E+01  0.11288618766E+02  0.32782135460E+01  0.14866964350E+02  0.51100000000E-03 0.  1.
         12    1    3    3    0    0 -0.15366223033E+02 -0.62487798833E+01  0.12470313049E+02  0.20752753260E+02  0.00000000000E+00 0. -1.
</event>
<event>
 7    1  0.4836188E-013  0.5052879E+02  0.7816164E-02  0.1300439E+00
        -11   -1    0    0    0    0  0.00000000000E+00  0.00000000000E+00  0.45593999997E+02  0.45594000000E+02  0.51100000000E-03 0. -1.
         11   -1    0    0    0    0 -0.00000000000E+00 -0.00000000000E+00 -0.45593999997E+02  0.45594000000E+02  0.51100000000E-03 0.  1.
    9900012    2    1    2    0    0  0.33382701294E+02 -0.23121272974E+02 -0.20429402874E+01  0.50528786841E+02  0.29999778083E+02 0.  0.
         12    1    1    2    0    0 -0.33382701294E+02  0.23121272974E+02  0.20429402874E+01  0.40659213159E+02  0.00000000000E+00 0. -1.
         11    1    3    3    0    0  0.13700639451E+02  0.62910289356E+00 -0.61107780923E+01  0.15014822709E+02  0.51100000000E-03 0. -1.
        -11    1    3    3    0    0  0.14691956866E+02 -0.19747273657E+02 -0.42946980835E+01  0.24985052438E+02  0.51100000000E-03 0.  1.
         12    1    3    3    0    0  0.49901049765E+01 -0.40031022111E+01  0.83625358883E+01  0.10528911695E+02  0.00000000000E+00 0. -1.
</event>
<event>
 7    1  0.4836188E-013  0.5052887E+02  0.7816164E-02  0.1300439E+00
        -11   -1    0    0    0    0  0.00000000000E+00  0.00000000000E+00  0.45593999997E+02  0.45594000000E+02  0.51100000000E-03 0. -1.
         11   -1    0    0    0    0 -0.00000000000E+00 -0.00000000000E+00 -0.45593999997E+02  0.45594000000E+02  0.51100000000E-03 0.  1.
    9900012    2    1    2    0    0  0.22497937009E+02  0.22423417692E+02 -0.25381062912E+02  0.50528865907E+02  0.30000018412E+02 0.  0.
         12    1    1    2    0    0 -0.22497937009E+02 -0.22423417692E+02  0.25381062912E+02  0.40659134093E+02  0.00000000000E+00 0. -1.
         11    1    3    3    0    0  0.14105719250E+02  0.22408457881E+02 -0.69881851480E+01  0.27385124284E+02  0.51100000000E-03 0. -1.
        -11    1    3    3    0    0 -0.78937388184E+00 -0.51670340510E+00  0.11841480590E+01  0.15140344847E+01  0.51100000000E-03 0.  1.
        -12    1    3    3    0    0  0.91815916407E+01  0.53166321611E+00 -0.19577025823E+02  0.21629707138E+02  0.00000000000E+00 0.  1.
</event>
<event>
 7    1  0.4836188E-013  0.5052887E+02  0.7816164E-02  0.1300439E+00
        -11   -1    0    0    0    0  0.00000000000E+00  0.00000000000E+00  0.45593999997E+02  0.45594000000E+02  0.51100000000E-03 0.  1.
         11   -1    0    0    0    0 -0.00000000000E+00 -0.00000000000E+00 -0.45593999997E+02  0.45594000000E+02  0.51100000000E-03 0. -1.
    9900012    2    1    2    0    0  0.35104336615E+02 -0.11075231692E+02  0.17268163967E+02  0.50528871960E+02  0.30000036808E+02 0.  0.
         12    1    1    2    0    0 -0.35104336615E+02  0.11075231692E+02 -0.17268163967E+02  0.40659128040E+02  0.00000000000E+00 0. -1.
         11    1    3    3    0    0  0.72981362408E+01 -0.13801195901E+02  0.46799720294E+01  0.16298402969E+02  0.51100000000E-03 0. -1.
        -11    1    3    3    0    0  0.17520837604E+02 -0.57976304254E+01  0.67256748975E+01  0.19642478764E+02  0.51100000000E-03 0.  1.
         12    1    3    3    0    0  0.10285362770E+02  0.85235946342E+01  0.58625170405E+01  0.14587990227E+02  0.00000000000E+00 0. -1.
</event>
<event>
 7    1  0.4836188E-013  0.5052890E+02  0.7816164E-02  0.1300439E+00
        -11   -1    0    0    0    0  0.00000000000E+00  0.00000000000E+00  0.45593999997E+02  0.45594000000E+02  0.51100000000E-03 0.  1.
         11   -1    0    0    0    0 -0.00000000000E+00 -0.00000000000E+00 -0.45593999997E+02  0.45594000000E+02  0.51100000000E-03 0. -1.
    9900012    2    1    2    0    0  0.18405291315E+02  0.12723904910E+02  0.33948630963E+02  0.50528904476E+02  0.30000135645E+02 0.  0.
         12    1    1    2    0    0 -0.18405291315E+02 -0.12723904910E+02 -0.33948630963E+02  0.40659095524E+02  0.00000000000E+00 0. -1.
         11    1    3    3    0    0 -0.53006220384E+01  0.12496402071E+01  0.14068118260E+01  0.56247057182E+01  0.51100000000E-03 0. -1.
        -11    1    3    3    0    0  0.97467019836E+01  0.85526217110E+01  0.50165994282E+01  0.13903661668E+02  0.51100000000E-03 0.  1.
        -12    1    3    3    0    0  0.13959211370E+02  0.29216429915E+01  0.27525219709E+02  0.31000537090E+02  0.00000000000E+00 0.  1.
</event>
<event>
 7    1  0.4836188E-013  0.5052885E+02  0.7816164E-02  0.1300439E+00
        -11   -1    0    0    0    0  0.00000000000E+00  0.00000000000E+00  0.45593999997E+02  0.45594000000E+02  0.51100000000E-03 0.  1.
         11   -1    0    0    0    0 -0.00000000000E+00 -0.00000000000E+00 -0.45593999997E+02  0.45594000000E+02  0.51100000000E-03 0. -1.
    9900012    2    1    2    0    0  0.42381799536E+01  0.31349774867E+02  0.25542050262E+02  0.50528845002E+02  0.29999954869E+02 0.  0.
         12    1    1    2    0    0 -0.42381799536E+01 -0.31349774867E+02 -0.25542050262E+02  0.40659154998E+02  0.00000000000E+00 0. -1.
         11    1    3    3    0    0  0.16345380709E+01 -0.39962748864E+00 -0.24597823886E+01  0.29802594678E+01  0.51100000000E-03 0.  1.
        -11    1    3    3    0    0 -0.30135348402E+01  0.42224160593E+01 -0.27701598296E+01  0.58808141744E+01  0.51100000000E-03 0. -1.
        -12    1    3    3    0    0  0.56171767229E+01  0.27526986297E+02  0.30771992480E+02  0.41667771360E+02  0.00000000000E+00 0.  1.
</event>
<event>
 7    1  0.4836188E-013  0.5052885E+02  0.7816164E-02  0.1300439E+00
        -11   -1    0    0    0    0  0.00000000000E+00  0.00000000000E+00  0.45593999997E+02  0.45594000000E+02  0.51100000000E-03 0. -1.
         11   -1    0    0    0    0 -0.00000000000E+00 -0.00000000000E+00 -0.45593999997E+02  0.45594000000E+02  0.51100000000E-03 0.  1.
    9900012    2    1    2    0    0  0.14673476529E+02  0.83342039939E+01 -0.36991841806E+02  0.50528853061E+02  0.29999979364E+02 0.  0.
         12    1    1    2    0    0 -0.14673476529E+02 -0.83342039939E+01  0.36991841806E+02  0.40659146939E+02  0.00000000000E+00 0. -1.
         11    1    3    3    0    0  0.35727317053E+01  0.10626044501E+02 -0.31146269069E+01  0.11635210983E+02  0.51100000000E-03 0. -1.
        -11    1    3    3    0    0  0.85866653617E+00 -0.59341984252E+01 -0.42899079682E+01  0.73726067173E+01  0.51100000000E-03 0.  1.
        -12    1    3    3    0    0  0.10242078287E+02  0.36423579179E+01 -0.29587306930E+02  0.31521035361E+02  0.00000000000E+00 0.  1.
</event>
<event>
 7    1  0.4836188E-013  0.5052887E+02  0.7816164E-02  0.1300439E+00
        -11   -1    0    0    0    0  0.00000000000E+00  0.00000000000E+00  0.45593999997E+02  0.45594000000E+02  0.51100000000E-03 0.  1.
         11   -1    0    0    0    0 -0.00000000000E+00 -0.00000000000E+00 -0.45593999997E+02  0.45594000000E+02  0.51100000000E-03 0. -1.
    9900012    2    1    2    0    0  0.27998646544E+02 -0.58281057719E+01  0.28901110825E+02  0.50528865330E+02  0.30000016657E+02 0.  0.
         12    1    1    2    0    0 -0.27998646544E+02  0.58281057719E+01 -0.28901110825E+02  0.40659134670E+02  0.00000000000E+00 0. -1.
         11    1    3    3    0    0 -0.11277900011E+01  0.27998208324E+01  0.18302557857E+01  0.35299778303E+01  0.51100000000E-03 0. -1.
        -11    1    3    3    0    0  0.57586379355E+01  0.56568855305E+01  0.15072189276E+02  0.17097752911E+02  0.51100000000E-03 0.  1.
         12    1    3    3    0    0  0.23367798609E+02 -0.14284812135E+02  0.11998665763E+02  0.29901134588E+02  0.00000000000E+00 0. -1.
</event>
<event>
 7    1  0.4836188E-013  0.5052885E+02  0.7816164E-02  0.1300439E+00
        -11   -1    0    0    0    0  0.00000000000E+00  0.00000000000E+00  0.45593999997E+02  0.45594000000E+02  0.51100000000E-03 0. -1.
         11   -1    0    0    0    0 -0.00000000000E+00 -0.00000000000E+00 -0.45593999997E+02  0.45594000000E+02  0.51100000000E-03 0.  1.
    9900012    2    1    2    0    0 -0.36401258258E+02  0.16411254429E+02  0.76671584299E+01  0.50528853512E+02  0.29999980736E+02 0.  0.
         12    1    1    2    0    0  0.36401258258E+02 -0.16411254429E+02 -0.76671584299E+01  0.40659146488E+02  0.00000000000E+00 0. -1.
         11    1    3    3    0    0  0.42207209951E+00 -0.21803685190E+00  0.29358229311E+01  0.29740110070E+01  0.51100000000E-03 0. -1.
        -11    1    3    3    0    0 -0.15087681316E+02 -0.15140597901E+01 -0.72544616435E+01  0.16809453249E+02  0.51100000000E-03 0.  1.
         12    1    3    3    0    0 -0.21735649042E+02  0.18143351071E+02  0.11985797142E+02  0.30745389256E+02  0.00000000000E+00 0. -1.
</event>
<event>
 7    1  0.4836188E-013  0.5052887E+02  0.7816164E-02  0.1300439E+00
        -11   -1    0    0    0    0  0.00000000000E+00  0.00000000000E+00  0.45593999997E+02  0.45594000000E+02  0.51100000000E-03 0. -1.
         11   -1    0    0    0    0 -0.00000000000E+00 -0.00000000000E+00 -0.45593999997E+02  0.45594000000E+02  0.51100000000E-03 0.  1.
    9900012    2    1    2    0    0  0.72902532469E+01 -0.22708113401E+02 -0.32929601103E+02  0.50528870209E+02  0.30000031486E+02 0.  0.
         12    1    1    2    0    0 -0.72902532469E+01  0.22708113401E+02  0.32929601103E+02  0.40659129791E+02  0.00000000000E+00 0. -1.
         11    1    3    3    0    0  0.24130885235E+01 -0.34171799072E+01 -0.13515127710E+02  0.14147748656E+02  0.51100000000E-03 0. -1.
        -11    1    3    3    0    0  0.13014367441E+02 -0.15576447300E+02 -0.78543635439E+01  0.21764431932E+02  0.51100000000E-03 0.  1.
         12    1    3    3    0    0 -0.81372027180E+01 -0.37144861930E+01 -0.11560109849E+02  0.14616689621E+02  0.00000000000E+00 0. -1.
</event>
<event>
 7    1  0.4836188E-013  0.5052884E+02  0.7816164E-02  0.1300439E+00
        -11   -1    0    0    0    0  0.00000000000E+00  0.00000000000E+00  0.45593999997E+02  0.45594000000E+02  0.51100000000E-03 0. -1.
         11   -1    0    0    0    0 -0.00000000000E+00 -0.00000000000E+00 -0.45593999997E+02  0.45594000000E+02  0.51100000000E-03 0.  1.
    9900012    2    1    2    0    0 -0.19996578029E+02 -0.86959419366E+01 -0.34317406380E+02  0.50528844578E+02  0.29999953578E+02 0.  0.
         12    1    1    2    0    0  0.19996578029E+02  0.86959419366E+01  0.34317406380E+02  0.40659155422E+02  0.00000000000E+00 0. -1.
         11    1    3    3    0    0 -0.12669315157E+02  0.84893887174E+00 -0.91024908841E+01  0.15623302606E+02  0.51100000000E-03 0. -1.
        -11    1    3    3    0    0 -0.41718644461E+01  0.54705907334E+01 -0.14915908624E+02  0.16426081282E+02  0.51100000000E-03 0.  1.
         12    1    3    3    0    0 -0.31553984259E+01 -0.15015471542E+02 -0.10299006871E+02  0.18479460690E+02  0.00000000000E+00 0. -1.
</event>
<event>
 7    1  0.4836188E-013  0.5052886E+02  0.7816164E-02  0.1300439E+00
        -11   -1    0    0    0    0  0.00000000000E+00  0.00000000000E+00  0.45593999997E+02  0.45594000000E+02  0.51100000000E-03 0. -1.
         11   -1    0    0    0    0 -0.00000000000E+00 -0.00000000000E+00 -0.45593999997E+02  0.45594000000E+02  0.51100000000E-03 0.  1.
    9900012    2    1    2    0    0  0.32133398836E+01  0.26554547479E+02 -0.30621818828E+02  0.50528864085E+02  0.30000012873E+02 0.  0.
         12    1    1    2    0    0 -0.32133398836E+01 -0.26554547479E+02  0.30621818828E+02  0.40659135915E+02  0.00000000000E+00 0. -1.
         11    1    3    3    0    0 -0.27853217198E+01 -0.41906030542E+01 -0.66098817292E+01  0.83072081818E+01  0.51100000000E-03 0. -1.
        -11    1    3    3    0    0  0.74036858304E+01  0.12035107318E+02 -0.17201955379E+02  0.22261303672E+02  0.51100000000E-03 0.  1.
         12    1    3    3    0    0 -0.14050242270E+01  0.18710043215E+02 -0.68099817194E+01  0.19960352232E+02  0.00000000000E+00 0. -1.
</event>
<event>
 7    1  0.4836188E-013  0.5052886E+02  0.7816164E-02  0.1300439E+00
        -11   -1    0    0    0    0  0.00000000000E+00  0.00000000000E+00  0.45593999997E+02  0.45594000000E+02  0.51100000000E-03 0.  1.
         11   -1    0    0    0    0 -0.00000000000E+00 -0.00000000000E+00 -0.45593999997E+02  0.45594000000E+02  0.51100000000E-03 0. -1.
    9900012    2    1    2    0    0  0.40643047017E+02 -0.11431065692E+01 -0.40050311900E-01  0.50528861206E+02  0.30000004120E+02 0.  0.
         12    1    1    2    0    0 -0.40643047017E+02  0.11431065692E+01  0.40050311900E-01  0.40659138794E+02  0.00000000000E+00 0. -1.
         11    1    3    3    0    0  0.14545874511E+02 -0.23459638755E+01 -0.54801591372E+01  0.15719992247E+02  0.51100000000E-03 0.  1.
        -11    1    3    3    0    0  0.16832144328E+02  0.10492827491E+02 -0.16356137553E+01  0.19902154256E+02  0.51100000000E-03 0. -1.
         12    1    3    3    0    0  0.92650281784E+01 -0.92899701849E+01  0.70757225807E+01  0.14906714703E+02  0.00000000000E+00 0. -1.
</event>
<event>
 7    1  0.4836188E-013  0.5052886E+02  0.7816164E-02  0.1300439E+00
        -11   -1    0    0    0    0  0.00000000000E+00  0.00000000000E+00  0.45593999997E+02  0.45594000000E+02  0.51100000000E-03 0. -1.
         11   -1    0    0    0    0 -0.00000000000E+00 -0.00000000000E+00 -0.45593999997E+02  0.45594000000E+02  0.51100000000E-03 0.  1.
    9900012    2    1    2    0    0 -0.11466568312E+02 -0.24485249229E+01 -0.38931841096E+02  0.50528859401E+02  0.29999998635E+02 0.  0.
         12    1    1    2    0    0  0.11466568312E+02  0.24485249229E+01  0.38931841096E+02  0.40659140599E+02  0.00000000000E+00 0. -1.
         11    1    3    3    0    0  0.69016400719E+01 -0.66854064029E+01 -0.11763404522E+02  0.15188975629E+02  0.51100000000E-03 0. -1.
        -11    1    3    3    0    0  0.31783951155E+00 -0.25182420096E-01 -0.87586374776E+01  0.87644387632E+01  0.51100000000E-03 0.  1.
         12    1    3    3    0    0 -0.18686047896E+02  0.42620639001E+01 -0.18409799096E+02  0.26575445009E+02  0.00000000000E+00 0. -1.
</event>
<event>
 7    1  0.4836188E-013  0.5052886E+02  0.7816164E-02  0.1300439E+00
        -11   -1    0    0    0    0  0.00000000000E+00  0.00000000000E+00  0.45593999997E+02  0.45594000000E+02  0.51100000000E-03 0.  1.
         11   -1    0    0    0    0 -0.00000000000E+00 -0.00000000000E+00 -0.45593999997E+02  0.45594000000E+02  0.51100000000E-03 0. -1.
    9900012    2    1    2    0    0  0.23730787147E+02 -0.12602433898E+02  0.30515470616E+02  0.50528861474E+02  0.30000004935E+02 0.  0.
         12    1    1    2    0    0 -0.23730787147E+02  0.12602433898E+02 -0.30515470616E+02  0.40659138526E+02  0.00000000000E+00 0. -1.
         11    1    3    3    0    0  0.72068541616E+00  0.31369763418E-01 -0.22535534567E+01  0.23661941963E+01  0.51100000000E-03 0. -1.
        -11    1    3    3    0    0  0.16991611992E+02  0.28721623734E+01  0.98658494985E+01  0.19856968081E+02  0.51100000000E-03 0.  1.
        -12    1    3    3    0    0  0.60184897391E+01 -0.15505966035E+02  0.22903174575E+02  0.28305699197E+02  0.00000000000E+00 0.  1.
</event>
<event>
 7    1  0.4836188E-013  0.5052885E+02  0.7816164E-02  0.1300439E+00
        -11   -1    0    0    0    0  0.00000000000E+00  0.00000000000E+00  0.45593999997E+02  0.45594000000E+02  0.51100000000E-03 0.  1.
         11   -1    0    0    0    0 -0.00000000000E+00 -0.00000000000E+00 -0.45593999997E+02  0.45594000000E+02  0.51100000000E-03 0. -1.
    9900012    2    1    2    0    0  0.17422839225E+02 -0.13822208722E+02  0.34037595354E+02  0.50528847548E+02  0.29999962607E+02 0.  0.
         12    1    1    2    0    0 -0.17422839225E+02  0.13822208722E+02 -0.34037595354E+02  0.40659152452E+02  0.00000000000E+00 0. -1.
         11    1    3    3    0    0 -0.15347593435E+00  0.57673766937E+01  0.35288729606E+01  0.67630713010E+01  0.51100000000E-03 0.  1.
        -11    1    3    3    0    0 -0.17325150982E+01 -0.47481103493E+01  0.44245745496E+00  0.50736504921E+01  0.51100000000E-03 0. -1.
        -12    1    3    3    0    0  0.19308830257E+02 -0.14841475067E+02  0.30066264939E+02  0.38692125755E+02  0.00000000000E+00 0.  1.
</event>
<event>
 7    1  0.4836188E-013  0.5052884E+02  0.7816164E-02  0.1300439E+00
        -11   -1    0    0    0    0  0.00000000000E+00  0.00000000000E+00  0.45593999997E+02  0.45594000000E+02  0.51100000000E-03 0. -1.
         11   -1    0    0    0    0 -0.00000000000E+00 -0.00000000000E+00 -0.45593999997E+02  0.45594000000E+02  0.51100000000E-03 0.  1.
    9900012    2    1    2    0    0 -0.26386022615E+01 -0.79292969772E+01 -0.39791099958E+02  0.50528836109E+02  0.29999927836E+02 0.  0.
         12    1    1    2    0    0  0.26386022615E+01  0.79292969772E+01  0.39791099958E+02  0.40659163891E+02  0.00000000000E+00 0. -1.
         11    1    3    3    0    0  0.19855445576E+01 -0.97339095889E+01 -0.51823491840E+01  0.11204826032E+02  0.51100000000E-03 0. -1.
        -11    1    3    3    0    0  0.57932722150E+01  0.50587405669E+01 -0.12698399150E+02  0.14845948953E+02  0.51100000000E-03 0.  1.
        -12    1    3    3    0    0 -0.10417419034E+02 -0.32541279552E+01 -0.21910351625E+02  0.24478061124E+02  0.00000000000E+00 0.  1.
</event>
<event>
 7    1  0.4836188E-013  0.5052883E+02  0.7816164E-02  0.1300439E+00
        -11   -1    0    0    0    0  0.00000000000E+00  0.00000000000E+00  0.45593999997E+02  0.45594000000E+02  0.51100000000E-03 0.  1.
         11   -1    0    0    0    0 -0.00000000000E+00 -0.00000000000E+00 -0.45593999997E+02  0.45594000000E+02  0.51100000000E-03 0. -1.
    9900012    2    1    2    0    0  0.78870621159E+01 -0.20398887043E+02  0.34276050050E+02  0.50528831927E+02  0.29999915124E+02 0.  0.
         12    1    1    2    0    0 -0.78870621159E+01  0.20398887043E+02 -0.34276050050E+02  0.40659168073E+02  0.00000000000E+00 0. -1.
         11    1    3    3    0    0 -0.27090049411E+01  0.36218071569E+00  0.18329552552E+02  0.18532198457E+02  0.51100000000E-03 0. -1.
        -11    1    3    3    0    0  0.99244174575E+01 -0.41873765453E+01  0.89076957833E+01  0.13977668927E+02  0.51100000000E-03 0.  1.
        -12    1    3    3    0    0  0.67164959951E+00 -0.16573691213E+02  0.70388017148E+01  0.18018964543E+02  0.00000000000E+00 0.  1.
</event>
<event>
 7    1  0.4836188E-013  0.5052886E+02  0.7816164E-02  0.1300439E+00
        -11   -1    0    0    0    0  0.00000000000E+00  0.00000000000E+00  0.45593999997E+02  0.45594000000E+02  0.51100000000E-03 0.  1.
         11   -1    0    0    0    0 -0.00000000000E+00 -0.00000000000E+00 -0.45593999997E+02  0.45594000000E+02  0.51100000000E-03 0. -1.
    9900012    2    1    2    0    0 -0.23174699181E+01 -0.31800686586E+02  0.25229183599E+02  0.50528855404E+02  0.29999986487E+02 0.  0.
         12    1    1    2    0    0  0.23174699181E+01  0.31800686586E+02 -0.25229183599E+02  0.40659144596E+02  0.00000000000E+00 0. -1.
         11    1    3    3    0    0  0.39264164687E+01  0.95669820187E+00  0.66960399380E+01  0.78210593175E+01  0.51100000000E-03 0. -1.
        -11    1    3    3    0    0  0.69451003676E+01 -0.10192226925E+02  0.55738568093E+01  0.13534540583E+02  0.51100000000E-03 0.  1.
         12    1    3    3    0    0 -0.13188986754E+02 -0.22565157863E+02  0.12959286852E+02  0.29173255504E+02  0.00000000000E+00 0. -1.
</event>
<event>
 7    1  0.4836188E-013  0.5052877E+02  0.7816164E-02  0.1300439E+00
        -11   -1    0    0    0    0  0.00000000000E+00  0.00000000000E+00  0.45593999997E+02  0.45594000000E+02  0.51100000000E-03 0.  1.
         11   -1    0    0    0    0 -0.00000000000E+00 -0.00000000000E+00 -0.45593999997E+02  0.45594000000E+02  0.51100000000E-03 0. -1.
    9900012    2    1    2    0    0 -0.12646900396E+02 -0.30371926395E+02  0.23890896786E+02  0.50528770398E+02  0.29999728101E+02 0.  0.
         12    1    1    2    0    0  0.12646900396E+02  0.30371926395E+02 -0.23890896786E+02  0.40659229602E+02  0.00000000000E+00 0. -1.
         11    1    3    3    0    0  0.22406682178E+01 -0.11740884218E+02  0.11021024320E+02  0.16258288151E+02  0.51100000000E-03 0. -1.
        -11    1    3    3    0    0 -0.10586346905E+02 -0.23108821401E+02  0.90537691013E+01  0.26982570347E+02  0.51100000000E-03 0.  1.
         12    1    3    3    0    0 -0.43012217093E+01  0.44777792238E+01  0.38161033644E+01  0.72879118997E+01  0.00000000000E+00 0. -1.
</event>
<event>
 7    1  0.4836188E-013  0.5052886E+02  0.7816164E-02  0.1300439E+00
        -11   -1    0    0    0    0  0.00000000000E+00  0.00000000000E+00  0.45593999997E+02  0.45594000000E+02  0.51100000000E-03 0.  1.
         11   -1    0    0    0    0 -0.00000000000E+00 -0.00000000000E+00 -0.45593999997E+02  0.45594000000E+02  0.51100000000E-03 0. -1.
    9900012    2    1    2    0    0  0.18343219802E+02  0.20643823017E+02  0.29841654702E+02  0.50528862075E+02  0.30000006763E+02 0.  0.
         12    1    1    2    0    0 -0.18343219802E+02 -0.20643823017E+02 -0.29841654702E+02  0.40659137925E+02  0.00000000000E+00 0. -1.
         11    1    3    3    0    0  0.19330387104E+01 -0.23987927420E+01 -0.29603575390E+01  0.42725358154E+01  0.51100000000E-03 0. -1.
        -11    1    3    3    0    0  0.53080706883E+01  0.10045337754E+02  0.27603075840E+01  0.11692036745E+02  0.51100000000E-03 0.  1.
        -12    1    3    3    0    0  0.11102110403E+02  0.12997278005E+02  0.30041704657E+02  0.34564289514E+02  0.00000000000E+00 0.  1.
</event>
<event>
 7    1  0.4836188E-013  0.5052888E+02  0.7816164E-02  0.1300439E+00
        -11   -1    0    0    0    0  0.00000000000E+00  0.00000000000E+00  0.45593999997E+02  0.45594000000E+02  0.51100000000E-03 0. -1.
         11   -1    0    0    0    0 -0.00000000000E+00 -0.00000000000E+00 -0.45593999997E+02  0.45594000000E+02  0.51100000000E-03 0.  1.
    9900012    2    1    2    0    0 -0.60985817281E+01 -0.22246844724E+02 -0.33482068182E+02  0.50528884306E+02  0.30000074336E+02 0.  0.
         12    1    1    2    0    0  0.60985817281E+01  0.22246844724E+02  0.33482068182E+02  0.40659115694E+02  0.00000000000E+00 0. -1.
         11    1    3    3    0    0  0.42349811725E+01 -0.19245746182E+01 -0.14197200038E+01  0.48636054674E+01  0.51100000000E-03 0. -1.
        -11    1    3    3    0    0  0.21466564407E+01 -0.86831755476E+01 -0.26097160274E+02  0.27587450881E+02  0.51100000000E-03 0.  1.
         12    1    3    3    0    0 -0.12480219341E+02 -0.11639094558E+02 -0.59651879044E+01  0.18077827958E+02  0.00000000000E+00 0. -1.
</event>
<event>
 7    1  0.4836188E-013  0.5052885E+02  0.7816164E-02  0.1300439E+00
        -11   -1    0    0    0    0  0.00000000000E+00  0.00000000000E+00  0.45593999997E+02  0.45594000000E+02  0.51100000000E-03 0.  1.
         11   -1    0    0    0    0 -0.00000000000E+00 -0.00000000000E+00 -0.45593999997E+02  0.45594000000E+02  0.51100000000E-03 0. -1.
    9900012    2    1    2    0    0  0.32561021289E+02 -0.13479462404E+02  0.20279314121E+02  0.50528848566E+02  0.29999965701E+02 0.  0.
         12    1    1    2    0    0 -0.32561021289E+02  0.13479462404E+02 -0.20279314121E+02  0.40659151434E+02  0.00000000000E+00 0. -1.
         11    1    3    3    0    0  0.15240928556E+02  0.35206486239E+01 -0.12186496716E+01  0.15689677411E+02  0.51100000000E-03 0. -1.
        -11    1    3    3    0    0  0.14806737391E+00 -0.61637196993E+01  0.92798551705E+01  0.11141322934E+02  0.51100000000E-03 0.  1.
        -12    1    3    3    0    0  0.17172025359E+02 -0.10836391329E+02  0.12218108622E+02  0.23697848220E+02  0.00000000000E+00 0.  1.
</event>
<event>
 7    1  0.4836188E-013  0.5052886E+02  0.7816164E-02  0.1300439E+00
        -11   -1    0    0    0    0  0.00000000000E+00  0.00000000000E+00  0.45593999997E+02  0.45594000000E+02  0.51100000000E-03 0.  1.
         11   -1    0    0    0    0 -0.00000000000E+00 -0.00000000000E+00 -0.45593999997E+02  0.45594000000E+02  0.51100000000E-03 0. -1.
    9900012    2    1    2    0    0  0.36820379747E+01 -0.33332266870E+01  0.40354651562E+02  0.50528859497E+02  0.29999998926E+02 0.  0.
         12    1    1    2    0    0 -0.36820379747E+01  0.33332266870E+01 -0.40354651562E+02  0.40659140503E+02  0.00000000000E+00 0. -1.
         11    1    3    3    0    0 -0.36096050587E+00 -0.17506724517E+01  0.20585899780E+02  0.20663359275E+02  0.51100000000E-03 0. -1.
        -11    1    3    3    0    0  0.54097223476E+01  0.30655576530E+01  0.23141471271E+02  0.23962271020E+02  0.51100000000E-03 0.  1.
         12    1    3    3    0    0 -0.13667238670E+01 -0.46481118883E+01 -0.33727194889E+01  0.59032292015E+01  0.00000000000E+00 0. -1.
</event>
<event>
 7    1  0.4836188E-013  0.5052886E+02  0.7816164E-02  0.1300439E+00
        -11   -1    0    0    0    0  0.00000000000E+00  0.00000000000E+00  0.45593999997E+02  0.45594000000E+02  0.51100000000E-03 0.  1.
         11   -1    0    0    0    0 -0.00000000000E+00 -0.00000000000E+00 -0.45593999997E+02  0.45594000000E+02  0.51100000000E-03 0. -1.
    9900012    2    1    2    0    0  0.13331434413E+02  0.26783259821E+01  0.38317950698E+02  0.50528856880E+02  0.29999990972E+02 0.  0.
         12    1    1    2    0    0 -0.13331434413E+02 -0.26783259821E+01 -0.38317950698E+02  0.40659143120E+02  0.00000000000E+00 0. -1.
         11    1    3    3    0    0  0.60723403051E+01 -0.54058042922E+00  0.54010054055E+01  0.81447163016E+01  0.51100000000E-03 0. -1.
        -11    1    3    3    0    0  0.46323633891E+01 -0.73660416494E+01  0.29795660572E+02  0.31040276244E+02  0.51100000000E-03 0.  1.
        -12    1    3    3    0    0  0.26267307186E+01  0.10584948061E+02  0.31212847206E+01  0.11343864334E+02  0.00000000000E+00 0.  1.
</event>
<event>
 7    1  0.4836188E-013  0.5052885E+02  0.7816164E-02  0.1300439E+00
        -11   -1    0    0    0    0  0.00000000000E+00  0.00000000000E+00  0.45593999997E+02  0.45594000000E+02  0.51100000000E-03 0.  1.
         11   -1    0    0    0    0 -0.00000000000E+00 -0.00000000000E+00 -0.45593999997E+02  0.45594000000E+02  0.51100000000E-03 0. -1.
    9900012    2    1    2    0    0  0.12939788536E+02  0.15093580924E+02  0.35467051956E+02  0.50528854819E+02  0.29999984707E+02 0.  0.
         12    1    1    2    0    0 -0.12939788536E+02 -0.15093580924E+02 -0.35467051956E+02  0.40659145181E+02  0.00000000000E+00 0. -1.
         11    1    3    3    0    0  0.32531135624E+00 -0.72939426348E+01  0.75283179603E+01  0.10487277922E+02  0.51100000000E-03 0. -1.
        -11    1    3    3    0    0  0.38890738900E+01  0.68897717127E+01  0.13095171955E+01  0.80192696376E+01  0.51100000000E-03 0.  1.
        -12    1    3    3    0    0  0.87254032894E+01  0.15497751846E+02  0.26629216800E+02  0.32022307259E+02  0.00000000000E+00 0.  1.
</event>
<event>
 7    1  0.4836188E-013  0.5052887E+02  0.7816164E-02  0.1300439E+00
        -11   -1    0    0    0    0  0.00000000000E+00  0.00000000000E+00  0.45593999997E+02  0.45594000000E+02  0.51100000000E-03 0.  1.
         11   -1    0    0    0    0 -0.00000000000E+00 -0.00000000000E+00 -0.45593999997E+02  0.45594000000E+02  0.51100000000E-03 0. -1.
    9900012    2    1    2    0    0  0.26530186726E+02  0.79155931485E+01  0.29776794448E+02  0.50528869289E+02  0.30000028691E+02 0.  0.
         12    1    1    2    0    0 -0.26530186726E+02 -0.79155931485E+01 -0.29776794448E+02  0.40659130711E+02  0.00000000000E+00 0. -1.
         11    1    3    3    0    0  0.96747129435E+01  0.10607120689E+02  0.10730901179E+02  0.17923819911E+02  0.51100000000E-03 0. -1.
        -11    1    3    3    0    0  0.18198060423E+02 -0.47209156690E+01  0.21894454912E+02  0.28858683339E+02  0.51100000000E-03 0.  1.
         12    1    3    3    0    0 -0.13425866408E+01  0.20293881286E+01 -0.28485616426E+01  0.37463660387E+01  0.00000000000E+00 0. -1.
</event>
<event>
 7    1  0.4836188E-013  0.5052886E+02  0.7816164E-02  0.1300439E+00
        -11   -1    0    0    0    0  0.00000000000E+00  0.00000000000E+00  0.45593999997E+02  0.45594000000E+02  0.51100000000E-03 0.  1.
         11   -1    0    0    0    0 -0.00000000000E+00 -0.00000000000E+00 -0.45593999997E+02  0.45594000000E+02  0.51100000000E-03 0. -1.
    9900012    2    1    2    0    0  0.13990805298E+02  0.27903852431E+02  0.26053755261E+02  0.50528858635E+02  0.29999996307E+02 0.  0.
         12    1    1    2    0    0 -0.13990805298E+02 -0.27903852431E+02 -0.26053755261E+02  0.40659141365E+02  0.00000000000E+00 0. -1.
         11    1    3    3    0    0  0.13741248307E+02  0.22498375869E+02  0.15058107903E+02  0.30360260796E+02  0.51100000000E-03 0. -1.
        -11    1    3    3    0    0 -0.26447087440E+01  0.10329750909E+02  0.46554094784E+01  0.11634907643E+02  0.51100000000E-03 0.  1.
        -12    1    3    3    0    0  0.28942657354E+01 -0.49242743468E+01  0.63402378795E+01  0.85336901958E+01  0.00000000000E+00 0.  1.
</event>
<event>
 7    1  0.4836188E-013  0.5052885E+02  0.7816164E-02  0.1300439E+00
        -11   -1    0    0    0    0  0.00000000000E+00  0.00000000000E+00  0.45593999997E+02  0.45594000000E+02  0.51100000000E-03 0. -1.
         11   -1    0    0    0    0 -0.00000000000E+00 -0.00000000000E+00 -0.45593999997E+02  0.45594000000E+02  0.51100000000E-03 0.  1.
    9900012    2    1    2    0    0 -0.29291365421E+02  0.27943525860E+02  0.37870118147E+01  0.50528853622E+02  0.29999981069E+02 0.  0.
         12    1    1    2    0    0  0.29291365421E+02 -0.27943525860E+02 -0.37870118147E+01  0.40659146378E+02  0.00000000000E+00 0. -1.
         11    1    3    3    0    0 -0.19242215127E+01  0.48023744152E+00 -0.39691558131E+01  0.44370547168E+01  0.51100000000E-03 0. -1.
        -11    1    3    3    0    0 -0.24548024203E+02  0.13030887199E+02 -0.28831543217E+01  0.27941404628E+02  0.51100000000E-03 0.  1.
        -12    1    3    3    0    0 -0.28191197048E+01  0.14432401220E+02  0.10639321949E+02  0.18150394277E+02  0.00000000000E+00 0.  1.
</event>
<event>
 7    1  0.4836188E-013  0.5052886E+02  0.7816164E-02  0.1300439E+00
        -11   -1    0    0    0    0  0.00000000000E+00  0.00000000000E+00  0.45593999997E+02  0.45594000000E+02  0.51100000000E-03 0. -1.
         11   -1    0    0    0    0 -0.00000000000E+00 -0.00000000000E+00 -0.45593999997E+02  0.45594000000E+02  0.51100000000E-03 0.  1.
    9900012    2    1    2    0    0 -0.33947723052E+02 -0.43154634950E+01  0.21956655960E+02  0.50528857528E+02  0.29999992943E+02 0.  0.
         12    1    1    2    0    0  0.33947723052E+02  0.43154634950E+01 -0.21956655960E+02  0.40659142472E+02  0.00000000000E+00 0. -1.
         11    1    3    3    0    0 -0.90383936409E+01  0.90760769983E+01  0.14815687341E+02  0.19585002551E+02  0.51100000000E-03 0. -1.
        -11    1    3    3    0    0  0.13989033461E+00 -0.29599323028E+01  0.95293318653E+00  0.31126918354E+01  0.51100000000E-03 0.  1.
        -12    1    3    3    0    0 -0.25049219746E+02 -0.10431608190E+02  0.61880354327E+01  0.27831163142E+02  0.00000000000E+00 0.  1.
</event>
<event>
 7    1  0.4836188E-013  0.5052886E+02  0.7816164E-02  0.1300439E+00
        -11   -1    0    0    0    0  0.00000000000E+00  0.00000000000E+00  0.45593999997E+02  0.45594000000E+02  0.51100000000E-03 0.  1.
         11   -1    0    0    0    0 -0.00000000000E+00 -0.00000000000E+00 -0.45593999997E+02  0.45594000000E+02  0.51100000000E-03 0. -1.
    9900012    2    1    2    0    0 -0.31406399539E+01 -0.33646235508E+02  0.22610462313E+02  0.50528858479E+02  0.29999995834E+02 0.  0.
         12    1    1    2    0    0  0.31406399539E+01  0.33646235508E+02 -0.22610462313E+02  0.40659141521E+02  0.00000000000E+00 0. -1.
         11    1    3    3    0    0  0.65504249771E+01 -0.22472510210E+02  0.32813459543E+01  0.23636603268E+02  0.51100000000E-03 0. -1.
        -11    1    3    3    0    0  0.22365621561E+01 -0.98720704127E+00  0.53477399921E+01  0.58800604848E+01  0.51100000000E-03 0.  1.
        -12    1    3    3    0    0 -0.11927627087E+02 -0.10186518257E+02  0.13981376367E+02  0.21012194727E+02  0.00000000000E+00 0.  1.
</event>
<event>
 7    1  0.4836188E-013  0.5052886E+02  0.7816164E-02  0.1300439E+00
        -11   -1    0    0    0    0  0.00000000000E+00  0.00000000000E+00  0.45593999997E+02  0.45594000000E+02  0.51100000000E-03 0. -1.
         11   -1    0    0    0    0 -0.00000000000E+00 -0.00000000000E+00 -0.45593999997E+02  0.45594000000E+02  0.51100000000E-03 0.  1.
    9900012    2    1    2    0    0 -0.86176442272E+01  0.86075815538E+01 -0.38791895471E+02  0.50528863186E+02  0.30000010140E+02 0.  0.
         12    1    1    2    0    0  0.86176442272E+01 -0.86075815538E+01  0.38791895471E+02  0.40659136814E+02  0.00000000000E+00 0. -1.
         11    1    3    3    0    0 -0.11789197903E+01  0.26130506939E+01 -0.15007205305E+02  0.15278550230E+02  0.51100000000E-03 0. -1.
        -11    1    3    3    0    0 -0.50256380387E+01  0.12087807850E+02 -0.25333637353E+02  0.28516053691E+02  0.51100000000E-03 0.  1.
         12    1    3    3    0    0 -0.24130863982E+01 -0.60932769905E+01  0.15489471875E+01  0.67342592642E+01  0.00000000000E+00 0. -1.
</event>
<event>
 7    1  0.4836188E-013  0.5052886E+02  0.7816164E-02  0.1300439E+00
        -11   -1    0    0    0    0  0.00000000000E+00  0.00000000000E+00  0.45593999997E+02  0.45594000000E+02  0.51100000000E-03 0. -1.
         11   -1    0    0    0    0 -0.00000000000E+00 -0.00000000000E+00 -0.45593999997E+02  0.45594000000E+02  0.51100000000E-03 0.  1.
    9900012    2    1    2    0    0 -0.26121519774E+02 -0.11196537138E+02 -0.29076961953E+02  0.50528856433E+02  0.29999989613E+02 0.  0.
         12    1    1    2    0    0  0.26121519774E+02  0.11196537138E+02  0.29076961953E+02  0.40659143567E+02  0.00000000000E+00 0. -1.
         11    1    3    3    0    0 -0.25043774746E+02 -0.97403912867E+01 -0.16869227142E+02  0.31727538520E+02  0.51100000000E-03 0. -1.
        -11    1    3    3    0    0 -0.38426099496E+01 -0.69972394175E+01 -0.80845053869E+01  0.11361612487E+02  0.51100000000E-03 0.  1.
         12    1    3    3    0    0  0.27648649212E+01  0.55410935657E+01 -0.41232294246E+01  0.74397054258E+01  0.00000000000E+00 0. -1.
</event>
<event>
 7    1  0.4836188E-013  0.5052886E+02  0.7816164E-02  0.1300439E+00
        -11   -1    0    0    0    0  0.00000000000E+00  0.00000000000E+00  0.45593999997E+02  0.45594000000E+02  0.51100000000E-03 0. -1.
         11   -1    0    0    0    0 -0.00000000000E+00 -0.00000000000E+00 -0.45593999997E+02  0.45594000000E+02  0.51100000000E-03 0.  1.
    9900012    2    1    2    0    0  0.22700616693E+02  0.33665430636E+02  0.21180543793E+01  0.50528863603E+02  0.30000011409E+02 0.  0.
         12    1    1    2    0    0 -0.22700616693E+02 -0.33665430636E+02 -0.21180543793E+01  0.40659136397E+02  0.00000000000E+00 0. -1.
         11    1    3    3    0    0  0.79004756035E+01  0.11885386923E+02  0.10945148042E+02  0.17985444198E+02  0.51100000000E-03 0. -1.
        -11    1    3    3    0    0  0.56347548542E+00  0.14402739750E+02 -0.37734063859E+00  0.14418696305E+02  0.51100000000E-03 0.  1.
        -12    1    3    3    0    0  0.14236665604E+02  0.73773039631E+01 -0.84497530241E+01  0.18124723100E+02  0.00000000000E+00 0.  1.
</event>
<event>
 7    1  0.4836188E-013  0.5052886E+02  0.7816164E-02  0.1300439E+00
        -11   -1    0    0    0    0  0.00000000000E+00  0.00000000000E+00  0.45593999997E+02  0.45594000000E+02  0.51100000000E-03 0. -1.
         11   -1    0    0    0    0 -0.00000000000E+00 -0.00000000000E+00 -0.45593999997E+02  0.45594000000E+02  0.51100000000E-03 0.  1.
    9900012    2    1    2    0    0 -0.39995518042E+02  0.57179187761E+01 -0.45639624578E+01  0.50528858201E+02  0.29999994987E+02 0.  0.
         12    1    1    2    0    0  0.39995518042E+02 -0.57179187761E+01  0.45639624578E+01  0.40659141799E+02  0.00000000000E+00 0. -1.
         11    1    3    3    0    0 -0.14112255582E+02 -0.56995164015E+01 -0.10258342782E+02  0.18354123289E+02  0.51100000000E-03 0. -1.
        -11    1    3    3    0    0 -0.10159592050E+02  0.99563631949E+01 -0.24060496571E+01  0.14426903823E+02  0.51100000000E-03 0.  1.
         12    1    3    3    0    0 -0.15723670409E+02  0.14610719827E+01  0.81004299810E+01  0.17747831089E+02  0.00000000000E+00 0. -1.
</event>
<event>
 7    1  0.4836188E-013  0.5052885E+02  0.7816164E-02  0.1300439E+00
        -11   -1    0    0    0    0  0.00000000000E+00  0.00000000000E+00  0.45593999997E+02  0.45594000000E+02  0.51100000000E-03 0.  1.
         11   -1    0    0    0    0 -0.00000000000E+00 -0.00000000000E+00 -0.45593999997E+02  0.45594000000E+02  0.51100000000E-03 0. -1.
    9900012    2    1    2    0    0  0.24699297152E+02  0.82460083996E+00  0.32286698810E+02  0.50528853841E+02  0.29999981734E+02 0.  0.
         12    1    1    2    0    0 -0.24699297152E+02 -0.82460083996E+00 -0.32286698810E+02  0.40659146159E+02  0.00000000000E+00 0. -1.
         11    1    3    3    0    0  0.11463563874E+02  0.11754482093E+01  0.36235471662E+01  0.12079944930E+02  0.51100000000E-03 0. -1.
        -11    1    3    3    0    0  0.15435746372E+02 -0.80709596646E+01  0.17423740016E+02  0.24637154307E+02  0.51100000000E-03 0.  1.
         12    1    3    3    0    0 -0.22000130941E+01  0.77201122952E+01  0.11239411628E+02  0.13811754603E+02  0.00000000000E+00 0. -1.
</event>
<event>
 7    1  0.4836188E-013  0.5052886E+02  0.7816164E-02  0.1300439E+00
        -11   -1    0    0    0    0  0.00000000000E+00  0.00000000000E+00  0.45593999997E+02  0.45594000000E+02  0.51100000000E-03 0.  1.
         11   -1    0    0    0    0 -0.00000000000E+00 -0.00000000000E+00 -0.45593999997E+02  0.45594000000E+02  0.51100000000E-03 0. -1.
    9900012    2    1    2    0    0  0.25967212112E+02  0.57628648904E+01  0.30751565505E+02  0.50528862065E+02  0.30000006733E+02 0.  0.
         12    1    1    2    0    0 -0.25967212112E+02 -0.57628648904E+01 -0.30751565505E+02  0.40659137935E+02  0.00000000000E+00 0. -1.
         11    1    3    3    0    0  0.71843034029E+01 -0.93199193096E+01  0.16993075314E+02  0.20669777943E+02  0.51100000000E-03 0. -1.
        -11    1    3    3    0    0  0.15025428175E+02  0.88374743325E+01  0.14305300279E+02  0.22550078952E+02  0.51100000000E-03 0.  1.
        -12    1    3    3    0    0  0.37574805339E+01  0.62453098675E+01 -0.54681008776E+00  0.73090051700E+01  0.00000000000E+00 0.  1.
</event>
<event>
 7    1  0.4836188E-013  0.5052886E+02  0.7816164E-02  0.1300439E+00
        -11   -1    0    0    0    0  0.00000000000E+00  0.00000000000E+00  0.45593999997E+02  0.45594000000E+02  0.51100000000E-03 0. -1.
         11   -1    0    0    0    0 -0.00000000000E+00 -0.00000000000E+00 -0.45593999997E+02  0.45594000000E+02  0.51100000000E-03 0.  1.
    9900012    2    1    2    0    0 -0.27896815759E+02 -0.10161477951E+02 -0.27779090724E+02  0.50528857792E+02  0.29999993744E+02 0.  0.
         12    1    1    2    0    0  0.27896815759E+02  0.10161477951E+02  0.27779090724E+02  0.40659142208E+02  0.00000000000E+00 0. -1.
         11    1    3    3    0    0 -0.11440143382E+02  0.13568211823E+01 -0.15600319369E+02  0.19392983499E+02  0.51100000000E-03 0. -1.
        -11    1    3    3    0    0 -0.42128915167E+01 -0.45269735953E+01 -0.15467718587E+02  0.16658099034E+02  0.51100000000E-03 0.  1.
        -12    1    3    3    0    0 -0.12243780861E+02 -0.69913255383E+01  0.32889472324E+01  0.14477775259E+02  0.00000000000E+00 0.  1.
</event>
<event>
 7    1  0.4836188E-013  0.5052887E+02  0.7816164E-02  0.1300439E+00
        -11   -1    0    0    0    0  0.00000000000E+00  0.00000000000E+00  0.45593999997E+02  0.45594000000E+02  0.51100000000E-03 0.  1.
         11   -1    0    0    0    0 -0.00000000000E+00 -0.00000000000E+00 -0.45593999997E+02  0.45594000000E+02  0.51100000000E-03 0. -1.
    9900012    2    1    2    0    0  0.20412870745E+02  0.42400970683E+00  0.35161057228E+02  0.50528867918E+02  0.30000024523E+02 0.  0.
         12    1    1    2    0    0 -0.20412870745E+02 -0.42400970683E+00 -0.35161057228E+02  0.40659132082E+02  0.00000000000E+00 0. -1.
         11    1    3    3    0    0  0.20945821226E+01 -0.73189657642E+01  0.20971744561E+02  0.22310728457E+02  0.51100000000E-03 0. -1.
        -11    1    3    3    0    0  0.15714475678E+02  0.73818684142E+00  0.13469789540E+02  0.20710502074E+02  0.51100000000E-03 0.  1.
        -12    1    3    3    0    0  0.26038129442E+01  0.70047886296E+01  0.71952312731E+00  0.75076373863E+01  0.00000000000E+00 0.  1.
</event>
<event>
 7    1  0.4836188E-013  0.5052886E+02  0.7816164E-02  0.1300439E+00
        -11   -1    0    0    0    0  0.00000000000E+00  0.00000000000E+00  0.45593999997E+02  0.45594000000E+02  0.51100000000E-03 0. -1.
         11   -1    0    0    0    0 -0.00000000000E+00 -0.00000000000E+00 -0.45593999997E+02  0.45594000000E+02  0.51100000000E-03 0.  1.
    9900012    2    1    2    0    0  0.22149629812E+02 -0.19674056600E+02 -0.27847646529E+02  0.50528855627E+02  0.29999987164E+02 0.  0.
         12    1    1    2    0    0 -0.22149629812E+02  0.19674056600E+02  0.27847646529E+02  0.40659144373E+02  0.00000000000E+00 0. -1.
         11    1    3    3    0    0  0.19687369414E+02 -0.15581200780E+02 -0.29443328604E+02  0.38694649911E+02  0.51100000000E-03 0.  1.
        -11    1    3    3    0    0 -0.28092668446E+01  0.17914320921E+01 -0.10650587026E+01  0.34979364554E+01  0.51100000000E-03 0. -1.
        -12    1    3    3    0    0  0.52715272423E+01 -0.58842879127E+01  0.26607407772E+01  0.83362692609E+01  0.00000000000E+00 0.  1.
</event>
<event>
 7    1  0.4836188E-013  0.5052886E+02  0.7816164E-02  0.1300439E+00
        -11   -1    0    0    0    0  0.00000000000E+00  0.00000000000E+00  0.45593999997E+02  0.45594000000E+02  0.51100000000E-03 0.  1.
         11   -1    0    0    0    0 -0.00000000000E+00 -0.00000000000E+00 -0.45593999997E+02  0.45594000000E+02  0.51100000000E-03 0. -1.
    9900012    2    1    2    0    0  0.47391547016E+01  0.27031529650E+02  0.30000047022E+02  0.50528855840E+02  0.29999987810E+02 0.  0.
         12    1    1    2    0    0 -0.47391547016E+01 -0.27031529650E+02 -0.30000047022E+02  0.40659144160E+02  0.00000000000E+00 0. -1.
         11    1    3    3    0    0  0.12754911120E+02  0.85863457628E+01  0.11274385928E+02  0.19066328161E+02  0.51100000000E-03 0. -1.
        -11    1    3    3    0    0 -0.48715119693E+00 -0.18864482463E+01  0.60326667460E+01  0.63394851214E+01  0.51100000000E-03 0.  1.
        -12    1    3    3    0    0 -0.75286052216E+01  0.20331632133E+02  0.12692994349E+02  0.25123042557E+02  0.00000000000E+00 0.  1.
</event>
<event>
 7    1  0.5319705E-013  0.5052899E+02  0.7816164E-02  0.1300438E+00
        -11   -1    0    0    0    0  0.00000000000E+00  0.00000000000E+00  0.45593999997E+02  0.45594000000E+02  0.51100000000E-03 0.  1.
         11   -1    0    0    0    0 -0.00000000000E+00 -0.00000000000E+00 -0.45593999997E+02  0.45594000000E+02  0.51100000000E-03 0. -1.
    9900012    2    1    2    0    0  0.18229037419E+02 -0.34190781624E+02  0.12322664785E+02  0.50528985985E+02  0.30000383397E+02 0.  0.
         12    1    1    2    0    0 -0.18229037419E+02  0.34190781624E+02 -0.12322664785E+02  0.40659014015E+02  0.00000000000E+00 0. -1.
         11    1    3    3    0    0  0.25294097862E+01 -0.22287669195E+01  0.10777288075E+02  0.11292265244E+02  0.51100000000E-03 0. -1.
        -11    1    3    3    0    0  0.89657836692E+01 -0.16451396292E+02  0.89661149516E+01  0.20770771154E+02  0.51100000000E-03 0.  1.
         12    1    3    3    0    0  0.67338439639E+01 -0.15510618412E+02 -0.74207382411E+01  0.18465949586E+02  0.00000000000E+00 0. -1.
</event>
<event>
 7    1  0.4836188E-013  0.5052885E+02  0.7816164E-02  0.1300439E+00
        -11   -1    0    0    0    0  0.00000000000E+00  0.00000000000E+00  0.45593999997E+02  0.45594000000E+02  0.51100000000E-03 0. -1.
         11   -1    0    0    0    0 -0.00000000000E+00 -0.00000000000E+00 -0.45593999997E+02  0.45594000000E+02  0.51100000000E-03 0.  1.
    9900012    2    1    2    0    0 -0.18204646382E+02  0.20440773266E+02 -0.30065463530E+02  0.50528850244E+02  0.29999970802E+02 0.  0.
         12    1    1    2    0    0  0.18204646382E+02 -0.20440773266E+02  0.30065463530E+02  0.40659149756E+02  0.00000000000E+00 0. -1.
         11    1    3    3    0    0 -0.97701369944E+01 -0.84634327949E+00 -0.63387440954E+01  0.11676966678E+02  0.51100000000E-03 0. -1.
        -11    1    3    3    0    0 -0.49386845887E+01  0.19609267576E+02 -0.27030693029E+02  0.33757552432E+02  0.51100000000E-03 0.  1.
         12    1    3    3    0    0 -0.34958247989E+01  0.16778489691E+01  0.33039735944E+01  0.50943311337E+01  0.00000000000E+00 0. -1.
</event>
<event>
 7    1  0.4836188E-013  0.5052885E+02  0.7816164E-02  0.1300439E+00
        -11   -1    0    0    0    0  0.00000000000E+00  0.00000000000E+00  0.45593999997E+02  0.45594000000E+02  0.51100000000E-03 0.  1.
         11   -1    0    0    0    0 -0.00000000000E+00 -0.00000000000E+00 -0.45593999997E+02  0.45594000000E+02  0.51100000000E-03 0. -1.
    9900012    2    1    2    0    0 -0.34744334637E+02 -0.17749963447E+02 -0.11442750873E+02  0.50528849255E+02  0.29999967797E+02 0.  0.
         12    1    1    2    0    0  0.34744334637E+02  0.17749963447E+02  0.11442750873E+02  0.40659150745E+02  0.00000000000E+00 0. -1.
         11    1    3    3    0    0 -0.16619973995E+02 -0.12492044118E+02 -0.48226430928E+01  0.21343209424E+02  0.51100000000E-03 0. -1.
        -11    1    3    3    0    0 -0.18611621877E+02 -0.45128032040E+01 -0.12739938973E+02  0.23001389239E+02  0.51100000000E-03 0.  1.
         12    1    3    3    0    0  0.48726123504E+00 -0.74511612510E+00  0.61198311933E+01  0.61842505921E+01  0.00000000000E+00 0. -1.
</event>
<event>
 7    1  0.4836188E-013  0.5052886E+02  0.7816164E-02  0.1300439E+00
        -11   -1    0    0    0    0  0.00000000000E+00  0.00000000000E+00  0.45593999997E+02  0.45594000000E+02  0.51100000000E-03 0. -1.
         11   -1    0    0    0    0 -0.00000000000E+00 -0.00000000000E+00 -0.45593999997E+02  0.45594000000E+02  0.51100000000E-03 0.  1.
    9900012    2    1    2    0    0  0.19987559662E+02 -0.30588283340E+02  0.17833122808E+02  0.50528857264E+02  0.29999992141E+02 0.  0.
         12    1    1    2    0    0 -0.19987559662E+02  0.30588283340E+02 -0.17833122808E+02  0.40659142736E+02  0.00000000000E+00 0. -1.
         11    1    3    3    0    0 -0.13217506343E+01 -0.35159186150E+01  0.98878765040E+01  0.10577278027E+02  0.51100000000E-03 0. -1.
        -11    1    3    3    0    0  0.14613613384E+02 -0.28315205190E+02  0.40882012188E+01  0.32125098141E+02  0.51100000000E-03 0.  1.
         12    1    3    3    0    0  0.66956969120E+01  0.12428404654E+01  0.38570450851E+01  0.78264810962E+01  0.00000000000E+00 0. -1.
</event>
<event>
 7    1  0.4836188E-013  0.5052886E+02  0.7816164E-02  0.1300439E+00
        -11   -1    0    0    0    0  0.00000000000E+00  0.00000000000E+00  0.45593999997E+02  0.45594000000E+02  0.51100000000E-03 0.  1.
         11   -1    0    0    0    0 -0.00000000000E+00 -0.00000000000E+00 -0.45593999997E+02  0.45594000000E+02  0.51100000000E-03 0. -1.
    9900012    2    1    2    0    0  0.48081013596E+01 -0.33101069334E+02 -0.23116383066E+02  0.50528858399E+02  0.29999995588E+02 0.  0.
         12    1    1    2    0    0 -0.48081013596E+01  0.33101069334E+02  0.23116383066E+02  0.40659141601E+02  0.00000000000E+00 0. -1.
         11    1    3    3    0    0  0.76602754507E+01 -0.38100470911E+01 -0.80943710404E+01  0.11777738391E+02  0.51100000000E-03 0. -1.
        -11    1    3    3    0    0 -0.50735131432E+01 -0.90596669113E+01 -0.15187176884E+02  0.18397511846E+02  0.51100000000E-03 0.  1.
        -12    1    3    3    0    0  0.22213390521E+01 -0.20231355332E+02  0.16516485910E+00  0.20353608161E+02  0.00000000000E+00 0.  1.
</event>
