<event>
 7    1  0.2641103E-015  0.9000773E+02  0.7816164E-02  0.1186339E+00
        -11   -1    0    0    0    0  0.00000000000E+00  0.00000000000E+00  0.45593999997E+02  0.45594000000E+02  0.51100000000E-03 0. -1.
         11   -1    0    0    0    0 -0.00000000000E+00 -0.00000000000E+00 -0.45593999997E+02  0.45594000000E+02  0.51100000000E-03 0.  1.
    9900012    2    1    2    0    0 -0.98804187051E+00  0.61637646242E+00 -0.19204824857E+00  0.90007733415E+02  0.89999994696E+02 0.  0.
        -12    1    1    2    0    0  0.98804187051E+00 -0.61637646242E+00  0.19204824857E+00  0.11802665848E+01  0.00000000000E+00 0.  1.
         11    1    3    3    0    0  0.29527038803E+02  0.82323922758E+01  0.16220871576E+02  0.34680469691E+02  0.51100000000E-03 0. -1.
        -11    1    3    3    0    0  0.97240157584E+01  0.64400338788E+00  0.25648661262E+01  0.10077190151E+02  0.51100000000E-03 0.  1.
        -12    1    3    3    0    0 -0.40239096431E+02 -0.82600192012E+01 -0.18977785951E+02  0.45250073574E+02  0.00000000000E+00 0.  1.
</event>
<event>
 7    1  0.2641103E-015  0.9000774E+02  0.7816164E-02  0.1186339E+00
        -11   -1    0    0    0    0  0.00000000000E+00  0.00000000000E+00  0.45593999997E+02  0.45594000000E+02  0.51100000000E-03 0.  1.
         11   -1    0    0    0    0 -0.00000000000E+00 -0.00000000000E+00 -0.45593999997E+02  0.45594000000E+02  0.51100000000E-03 0. -1.
    9900012    2    1    2    0    0 -0.22805092889E+00  0.11487282471E+01  0.14642382188E+00  0.90007735730E+02  0.89999997041E+02 0.  0.
        -12    1    1    2    0    0  0.22805092889E+00 -0.11487282471E+01 -0.14642382188E+00  0.11802642702E+01  0.00000000000E+00 0.  1.
         11    1    3    3    0    0  0.11584084867E+02 -0.74574003444E+01 -0.33272240757E+02  0.36011745964E+02  0.51100000000E-03 0. -1.
        -11    1    3    3    0    0  0.96613881136E+01  0.33123911635E+01 -0.36373482490E+01  0.10841801421E+02  0.51100000000E-03 0.  1.
        -12    1    3    3    0    0 -0.21473523910E+02  0.52937374281E+01  0.37056012828E+02  0.43154188345E+02  0.00000000000E+00 0.  1.
</event>
<event>
 7    1  0.2641103E-015  0.9000774E+02  0.7816164E-02  0.1186339E+00
        -11   -1    0    0    0    0  0.00000000000E+00  0.00000000000E+00  0.45593999997E+02  0.45594000000E+02  0.51100000000E-03 0.  1.
         11   -1    0    0    0    0 -0.00000000000E+00 -0.00000000000E+00 -0.45593999997E+02  0.45594000000E+02  0.51100000000E-03 0. -1.
    9900012    2    1    2    0    0 -0.10736177584E+00  0.64002742464E+00 -0.98582063705E+00  0.90007744102E+02  0.90000005525E+02 0.  0.
        -12    1    1    2    0    0  0.10736177584E+00 -0.64002742464E+00  0.98582063705E+00  0.11802558975E+01  0.00000000000E+00 0.  1.
         11    1    3    3    0    0  0.82533698631E+01 -0.67314019798E+01  0.44849553192E+01  0.11556154689E+02  0.51100000000E-03 0. -1.
        -11    1    3    3    0    0  0.18752519917E+02  0.34309894110E+02  0.32948050167E+01  0.39238776452E+02  0.51100000000E-03 0.  1.
         12    1    3    3    0    0 -0.27113251556E+02 -0.26938464705E+02 -0.87655809730E+01  0.39212812962E+02  0.00000000000E+00 0. -1.
</event>
<event>
 7    1  0.2641103E-015  0.9000852E+02  0.7816164E-02  0.1186337E+00
        -11   -1    0    0    0    0  0.00000000000E+00  0.00000000000E+00  0.45593999997E+02  0.45594000000E+02  0.51100000000E-03 0. -1.
         11   -1    0    0    0    0 -0.00000000000E+00 -0.00000000000E+00 -0.45593999997E+02  0.45594000000E+02  0.51100000000E-03 0.  1.
    9900012    2    1    2    0    0 -0.36099091416E+00 -0.99220063295E+00  0.52573275136E+00  0.90008520682E+02  0.90000792351E+02 0.  0.
        -12    1    1    2    0    0  0.36099091416E+00  0.99220063295E+00 -0.52573275136E+00  0.11794793182E+01  0.00000000000E+00 0.  1.
         11    1    3    3    0    0  0.98891006783E+01 -0.43965904812E+01  0.35363545227E+02  0.36982491146E+02  0.51100000000E-03 0. -1.
        -11    1    3    3    0    0 -0.32201988012E+01 -0.82321668287E+01  0.55323915762E+01  0.10428116217E+02  0.51100000000E-03 0.  1.
        -12    1    3    3    0    0 -0.70298927913E+01  0.11636556677E+02 -0.40370204052E+02  0.42597913319E+02  0.00000000000E+00 0.  1.
</event>
<event>
 7    1  0.2641103E-015  0.9000773E+02  0.7816164E-02  0.1186339E+00
        -11   -1    0    0    0    0  0.00000000000E+00  0.00000000000E+00  0.45593999997E+02  0.45594000000E+02  0.51100000000E-03 0.  1.
         11   -1    0    0    0    0 -0.00000000000E+00 -0.00000000000E+00 -0.45593999997E+02  0.45594000000E+02  0.51100000000E-03 0. -1.
    9900012    2    1    2    0    0 -0.19378292178E+00  0.18884909347E+00 -0.11488385468E+01  0.90007726385E+02  0.89999987573E+02 0.  0.
        -12    1    1    2    0    0  0.19378292178E+00 -0.18884909347E+00  0.11488385468E+01  0.11802736155E+01  0.00000000000E+00 0.  1.
         11    1    3    3    0    0  0.27128789982E+02 -0.23303858706E+02  0.13449973011E+02  0.38209198510E+02  0.51100000000E-03 0. -1.
        -11    1    3    3    0    0  0.76365208197E+01  0.40447053049E+01  0.13225204303E+01  0.87421480074E+01  0.51100000000E-03 0.  1.
        -12    1    3    3    0    0 -0.34959093723E+02  0.19448002495E+02 -0.15921331988E+02  0.43056379867E+02  0.00000000000E+00 0.  1.
</event>
<event>
 7    1  0.2641103E-015  0.9000807E+02  0.7816164E-02  0.1186338E+00
        -11   -1    0    0    0    0  0.00000000000E+00  0.00000000000E+00  0.45593999997E+02  0.45594000000E+02  0.51100000000E-03 0. -1.
         11   -1    0    0    0    0 -0.00000000000E+00 -0.00000000000E+00 -0.45593999997E+02  0.45594000000E+02  0.51100000000E-03 0.  1.
    9900012    2    1    2    0    0 -0.13532029149E+00  0.26059181226E+00  0.11428107332E+01  0.90008069474E+02  0.90000335191E+02 0.  0.
        -12    1    1    2    0    0  0.13532029149E+00 -0.26059181226E+00 -0.11428107332E+01  0.11799305259E+01  0.00000000000E+00 0.  1.
         11    1    3    3    0    0 -0.52700147569E+01 -0.17205749258E+01 -0.85081537467E+01  0.10154905911E+02  0.51100000000E-03 0. -1.
        -11    1    3    3    0    0 -0.30166739224E+02 -0.18143116043E+02  0.16100939085E+02  0.38709754001E+02  0.51100000000E-03 0.  1.
         12    1    3    3    0    0  0.35301433690E+02  0.20124282781E+02 -0.64499746046E+01  0.41143409562E+02  0.00000000000E+00 0. -1.
</event>
<event>
 7    1  0.2641103E-015  0.9000778E+02  0.7816164E-02  0.1186339E+00
        -11   -1    0    0    0    0  0.00000000000E+00  0.00000000000E+00  0.45593999997E+02  0.45594000000E+02  0.51100000000E-03 0. -1.
         11   -1    0    0    0    0 -0.00000000000E+00 -0.00000000000E+00 -0.45593999997E+02  0.45594000000E+02  0.51100000000E-03 0.  1.
    9900012    2    1    2    0    0  0.53087511878E+00 -0.89193017540E+00  0.56175003013E+00  0.90007775053E+02  0.90000036884E+02 0.  0.
        -12    1    1    2    0    0 -0.53087511878E+00  0.89193017540E+00 -0.56175003013E+00  0.11802249471E+01  0.00000000000E+00 0.  1.
         11    1    3    3    0    0 -0.64379162746E+01 -0.81981276997E+01  0.17174239998E+01  0.10564355598E+02  0.51100000000E-03 0. -1.
        -11    1    3    3    0    0  0.39971663221E+02 -0.11220437163E+02 -0.22813615764E+01  0.41579281880E+02  0.51100000000E-03 0.  1.
         12    1    3    3    0    0 -0.33002871827E+02  0.18526634688E+02  0.11256876068E+01  0.37864137575E+02  0.00000000000E+00 0. -1.
</event>
<event>
 7    1  0.2641103E-015  0.9000736E+02  0.7816164E-02  0.1186340E+00
        -11   -1    0    0    0    0  0.00000000000E+00  0.00000000000E+00  0.45593999997E+02  0.45594000000E+02  0.51100000000E-03 0.  1.
         11   -1    0    0    0    0 -0.00000000000E+00 -0.00000000000E+00 -0.45593999997E+02  0.45594000000E+02  0.51100000000E-03 0. -1.
    9900012    2    1    2    0    0 -0.46590222216E+00 -0.26943959661E+00 -0.10508267907E+01  0.90007364781E+02  0.89999621195E+02 0.  0.
        -12    1    1    2    0    0  0.46590222216E+00  0.26943959661E+00  0.10508267907E+01  0.11806352192E+01  0.00000000000E+00 0.  1.
         11    1    3    3    0    0  0.17690465249E+02 -0.86113401882E+01 -0.11303716128E+02  0.22691005688E+02  0.51100000000E-03 0. -1.
        -11    1    3    3    0    0  0.27679287949E+01 -0.26085308985E+02  0.34183667040E+01  0.26453544296E+02  0.51100000000E-03 0.  1.
        -12    1    3    3    0    0 -0.20924296266E+02  0.34427209576E+02  0.68345226335E+01  0.40862814796E+02  0.00000000000E+00 0.  1.
</event>
<event>
 7    1  0.2641103E-015  0.9000775E+02  0.7816164E-02  0.1186339E+00
        -11   -1    0    0    0    0  0.00000000000E+00  0.00000000000E+00  0.45593999997E+02  0.45594000000E+02  0.51100000000E-03 0.  1.
         11   -1    0    0    0    0 -0.00000000000E+00 -0.00000000000E+00 -0.45593999997E+02  0.45594000000E+02  0.51100000000E-03 0. -1.
    9900012    2    1    2    0    0  0.97957582906E+00  0.63529456809E+00  0.17266515492E+00  0.90007753734E+02  0.90000015283E+02 0.  0.
        -12    1    1    2    0    0 -0.97957582906E+00 -0.63529456809E+00 -0.17266515492E+00  0.11802462662E+01  0.00000000000E+00 0.  1.
         11    1    3    3    0    0  0.94313267259E+01  0.12192867546E+00  0.22483434398E+01  0.96963827738E+01  0.51100000000E-03 0. -1.
        -11    1    3    3    0    0  0.15780253570E+02 -0.17289774981E+02  0.28866967796E+02  0.37165233103E+02  0.51100000000E-03 0.  1.
         12    1    3    3    0    0 -0.24232004467E+02  0.17803140873E+02 -0.30942646081E+02  0.43146137857E+02  0.00000000000E+00 0. -1.
</event>
<event>
 7    1  0.2701820E-015  0.9000763E+02  0.7816164E-02  0.1186339E+00
        -11   -1    0    0    0    0  0.00000000000E+00  0.00000000000E+00  0.45593999997E+02  0.45594000000E+02  0.51100000000E-03 0.  1.
         11   -1    0    0    0    0 -0.00000000000E+00 -0.00000000000E+00 -0.45593999997E+02  0.45594000000E+02  0.51100000000E-03 0. -1.
    9900012    2    1    2    0    0  0.53384656140E+00 -0.77809298919E+00 -0.70912675452E+00  0.90007626498E+02  0.89999886367E+02 0.  0.
        -12    1    1    2    0    0 -0.53384656140E+00  0.77809298919E+00  0.70912675452E+00  0.11803735023E+01  0.00000000000E+00 0.  1.
         11    1    3    3    0    0  0.72587698611E+01 -0.46209418283E+01 -0.44608598433E+01  0.96923740167E+01  0.51100000000E-03 0. -1.
        -11    1    3    3    0    0  0.83655026365E+01  0.86234223800E+01  0.39463817507E+02  0.41252126495E+02  0.51100000000E-03 0.  1.
         12    1    3    3    0    0 -0.15090425936E+02 -0.47805735409E+01 -0.35712084418E+02  0.39063125986E+02  0.00000000000E+00 0. -1.
</event>
<event>
 7    1  0.2641103E-015  0.9000775E+02  0.7816164E-02  0.1186339E+00
        -11   -1    0    0    0    0  0.00000000000E+00  0.00000000000E+00  0.45593999997E+02  0.45594000000E+02  0.51100000000E-03 0. -1.
         11   -1    0    0    0    0 -0.00000000000E+00 -0.00000000000E+00 -0.45593999997E+02  0.45594000000E+02  0.51100000000E-03 0.  1.
    9900012    2    1    2    0    0  0.71038874915E+00  0.20066650672E+00 -0.92090955586E+00  0.90007748488E+02  0.90000009968E+02 0.  0.
        -12    1    1    2    0    0 -0.71038874915E+00 -0.20066650672E+00  0.92090955586E+00  0.11802515121E+01  0.00000000000E+00 0.  1.
         11    1    3    3    0    0  0.24570212180E+01 -0.99060201305E+01 -0.17533595397E+01  0.10355696888E+02  0.51100000000E-03 0. -1.
        -11    1    3    3    0    0 -0.21217804322E+02  0.19721208853E+01  0.34126965611E+02  0.40233496779E+02  0.51100000000E-03 0.  1.
         12    1    3    3    0    0  0.19471171853E+02  0.81345657520E+01 -0.33294515627E+02  0.39418554821E+02  0.00000000000E+00 0. -1.
</event>
<event>
 7    1  0.2641103E-015  0.9000786E+02  0.7816164E-02  0.1186339E+00
        -11   -1    0    0    0    0  0.00000000000E+00  0.00000000000E+00  0.45593999997E+02  0.45594000000E+02  0.51100000000E-03 0.  1.
         11   -1    0    0    0    0 -0.00000000000E+00 -0.00000000000E+00 -0.45593999997E+02  0.45594000000E+02  0.51100000000E-03 0. -1.
    9900012    2    1    2    0    0 -0.95140454760E+00 -0.47943920354E+00 -0.50763824621E+00  0.90007860537E+02  0.90000123496E+02 0.  0.
        -12    1    1    2    0    0  0.95140454760E+00  0.47943920354E+00  0.50763824621E+00  0.11801394630E+01  0.00000000000E+00 0.  1.
         11    1    3    3    0    0  0.33660646408E+02 -0.13750717154E+02  0.43354533326E+01  0.36618540314E+02  0.51100000000E-03 0. -1.
        -11    1    3    3    0    0  0.61090486581E+01 -0.85834899449E+00 -0.80792043186E+01  0.10165174922E+02  0.51100000000E-03 0.  1.
        -12    1    3    3    0    0 -0.40721099614E+02  0.14129626945E+02  0.32361127398E+01  0.43224145301E+02  0.00000000000E+00 0.  1.
</event>
<event>
 7    1  0.2641103E-015  0.9000768E+02  0.7816164E-02  0.1186339E+00
        -11   -1    0    0    0    0  0.00000000000E+00  0.00000000000E+00  0.45593999997E+02  0.45594000000E+02  0.51100000000E-03 0.  1.
         11   -1    0    0    0    0 -0.00000000000E+00 -0.00000000000E+00 -0.45593999997E+02  0.45594000000E+02  0.51100000000E-03 0. -1.
    9900012    2    1    2    0    0 -0.42098156189E-01 -0.87761096286E+00 -0.78815243685E+00  0.90007679060E+02  0.89999939624E+02 0.  0.
        -12    1    1    2    0    0  0.42098156189E-01  0.87761096286E+00  0.78815243685E+00  0.11803209397E+01  0.00000000000E+00 0.  1.
         11    1    3    3    0    0  0.36697583435E+02  0.80956948633E+01  0.23083644115E+01  0.37650782884E+02  0.51100000000E-03 0. -1.
        -11    1    3    3    0    0  0.58404442016E+01 -0.56731765079E+01 -0.50905087325E+01  0.96025517223E+01  0.51100000000E-03 0.  1.
        -12    1    3    3    0    0 -0.42580125793E+02 -0.33001293182E+01  0.19939918842E+01  0.42754344454E+02  0.00000000000E+00 0.  1.
</event>
<event>
 7    1  0.2641103E-015  0.9000771E+02  0.7816164E-02  0.1186339E+00
        -11   -1    0    0    0    0  0.00000000000E+00  0.00000000000E+00  0.45593999997E+02  0.45594000000E+02  0.51100000000E-03 0.  1.
         11   -1    0    0    0    0 -0.00000000000E+00 -0.00000000000E+00 -0.45593999997E+02  0.45594000000E+02  0.51100000000E-03 0. -1.
    9900012    2    1    2    0    0  0.91719412898E+00  0.74229158303E+00 -0.29170960374E-01  0.90007706473E+02  0.89999967399E+02 0.  0.
        -12    1    1    2    0    0 -0.91719412898E+00 -0.74229158303E+00  0.29170960374E-01  0.11802935268E+01  0.00000000000E+00 0.  1.
         11    1    3    3    0    0  0.88335827507E+01 -0.32836720684E+00 -0.26954087273E+01  0.92414954258E+01  0.51100000000E-03 0. -1.
        -11    1    3    3    0    0  0.27394688157E+02 -0.97743801229E+01 -0.21895828628E+02  0.36406520811E+02  0.51100000000E-03 0.  1.
         12    1    3    3    0    0 -0.35311076778E+02  0.10845038913E+02  0.24562066395E+02  0.44359690236E+02  0.00000000000E+00 0. -1.
</event>
<event>
 7    1  0.2641103E-015  0.9000776E+02  0.7816164E-02  0.1186339E+00
        -11   -1    0    0    0    0  0.00000000000E+00  0.00000000000E+00  0.45593999997E+02  0.45594000000E+02  0.51100000000E-03 0. -1.
         11   -1    0    0    0    0 -0.00000000000E+00 -0.00000000000E+00 -0.45593999997E+02  0.45594000000E+02  0.51100000000E-03 0.  1.
    9900012    2    1    2    0    0 -0.65200321372E+00  0.98351051533E+00 -0.23968422564E-01  0.90007756123E+02  0.90000017704E+02 0.  0.
        -12    1    1    2    0    0  0.65200321372E+00 -0.98351051533E+00  0.23968422564E-01  0.11802438772E+01  0.00000000000E+00 0.  1.
         11    1    3    3    0    0  0.15893162032E+01  0.64697547139E+01  0.52380851651E+01  0.84747382561E+01  0.51100000000E-03 0. -1.
        -11    1    3    3    0    0  0.14108028013E+02 -0.36119090325E+01 -0.40285009678E+02  0.42836483823E+02  0.51100000000E-03 0.  1.
         12    1    3    3    0    0 -0.16349347430E+02 -0.18743351661E+01  0.35022956090E+02  0.38696534044E+02  0.00000000000E+00 0. -1.
</event>
<event>
 7    1  0.2641103E-015  0.9000770E+02  0.7816164E-02  0.1186339E+00
        -11   -1    0    0    0    0  0.00000000000E+00  0.00000000000E+00  0.45593999997E+02  0.45594000000E+02  0.51100000000E-03 0. -1.
         11   -1    0    0    0    0 -0.00000000000E+00 -0.00000000000E+00 -0.45593999997E+02  0.45594000000E+02  0.51100000000E-03 0.  1.
    9900012    2    1    2    0    0  0.85655350523E+00 -0.13013900238E+00 -0.80155959809E+00  0.90007695863E+02  0.89999956648E+02 0.  0.
        -12    1    1    2    0    0 -0.85655350523E+00  0.13013900238E+00  0.80155959809E+00  0.11803041373E+01  0.00000000000E+00 0.  1.
         11    1    3    3    0    0 -0.45088505726E+01  0.12292980783E+02  0.64828086839E+01  0.14610746686E+02  0.51100000000E-03 0. -1.
        -11    1    3    3    0    0  0.74787920327E+01  0.15390275600E+02 -0.33182324087E+02  0.37334428420E+02  0.51100000000E-03 0.  1.
         12    1    3    3    0    0 -0.21133879549E+01 -0.27813395385E+02  0.25897955806E+02  0.38062520757E+02  0.00000000000E+00 0. -1.
</event>
<event>
 7    1  0.2641103E-015  0.9000768E+02  0.7816164E-02  0.1186339E+00
        -11   -1    0    0    0    0  0.00000000000E+00  0.00000000000E+00  0.45593999997E+02  0.45594000000E+02  0.51100000000E-03 0. -1.
         11   -1    0    0    0    0 -0.00000000000E+00 -0.00000000000E+00 -0.45593999997E+02  0.45594000000E+02  0.51100000000E-03 0.  1.
    9900012    2    1    2    0    0 -0.13421342545E+00  0.78915336489E-01  0.11700043932E+01  0.90007681757E+02  0.89999942357E+02 0.  0.
        -12    1    1    2    0    0  0.13421342545E+00 -0.78915336489E-01 -0.11700043932E+01  0.11803182427E+01  0.00000000000E+00 0.  1.
         11    1    3    3    0    0 -0.19884198692E+02 -0.19901259074E+02  0.90403242621E+01  0.29549432031E+02  0.51100000000E-03 0. -1.
        -11    1    3    3    0    0 -0.13412707910E+02 -0.82232326986E+01  0.18832417439E+01  0.15845153493E+02  0.51100000000E-03 0.  1.
        -12    1    3    3    0    0  0.33162693177E+02  0.28203407109E+02 -0.97535616128E+01  0.44613096232E+02  0.00000000000E+00 0.  1.
</event>
<event>
 7    1  0.2641103E-015  0.9000777E+02  0.7816164E-02  0.1186339E+00
        -11   -1    0    0    0    0  0.00000000000E+00  0.00000000000E+00  0.45593999997E+02  0.45594000000E+02  0.51100000000E-03 0.  1.
         11   -1    0    0    0    0 -0.00000000000E+00 -0.00000000000E+00 -0.45593999997E+02  0.45594000000E+02  0.51100000000E-03 0. -1.
    9900012    2    1    2    0    0 -0.33715241766E+00 -0.45286079855E+00 -0.10364253234E+01  0.90007774553E+02  0.90000036377E+02 0.  0.
        -12    1    1    2    0    0  0.33715241766E+00  0.45286079855E+00  0.10364253234E+01  0.11802254474E+01  0.00000000000E+00 0.  1.
         11    1    3    3    0    0  0.70714420107E+01  0.51379244141E+01  0.48022215671E+01  0.99732086931E+01  0.51100000000E-03 0. -1.
        -11    1    3    3    0    0  0.62172206202E+00  0.36513475033E+02  0.14909588899E+01  0.36549190908E+02  0.51100000000E-03 0.  1.
         12    1    3    3    0    0 -0.80303164904E+01 -0.42104260246E+02 -0.73296057803E+01  0.43485374952E+02  0.00000000000E+00 0. -1.
</event>
<event>
 7    1  0.2641103E-015  0.9000777E+02  0.7816164E-02  0.1186339E+00
        -11   -1    0    0    0    0  0.00000000000E+00  0.00000000000E+00  0.45593999997E+02  0.45594000000E+02  0.51100000000E-03 0. -1.
         11   -1    0    0    0    0 -0.00000000000E+00 -0.00000000000E+00 -0.45593999997E+02  0.45594000000E+02  0.51100000000E-03 0.  1.
    9900012    2    1    2    0    0 -0.64787923724E+00 -0.93999315845E+00  0.29933472428E+00  0.90007772937E+02  0.90000034739E+02 0.  0.
        -12    1    1    2    0    0  0.64787923724E+00  0.93999315845E+00 -0.29933472428E+00  0.11802270634E+01  0.00000000000E+00 0.  1.
         11    1    3    3    0    0  0.11713558497E+02 -0.74164928950E+01 -0.79402120159E+01  0.15976820292E+02  0.51100000000E-03 0. -1.
        -11    1    3    3    0    0 -0.27825001321E+02  0.11508091870E+02 -0.23614404597E+02  0.38266264277E+02  0.51100000000E-03 0.  1.
         12    1    3    3    0    0  0.15463563587E+02 -0.50315921331E+01  0.31853951337E+02  0.35764688367E+02  0.00000000000E+00 0. -1.
</event>
<event>
 7    1  0.2641103E-015  0.9000784E+02  0.7816164E-02  0.1186339E+00
        -11   -1    0    0    0    0  0.00000000000E+00  0.00000000000E+00  0.45593999997E+02  0.45594000000E+02  0.51100000000E-03 0.  1.
         11   -1    0    0    0    0 -0.00000000000E+00 -0.00000000000E+00 -0.45593999997E+02  0.45594000000E+02  0.51100000000E-03 0. -1.
    9900012    2    1    2    0    0  0.86090088979E+00  0.16696863911E+00  0.78977569571E+00  0.90007841317E+02  0.90000104022E+02 0.  0.
        -12    1    1    2    0    0 -0.86090088979E+00 -0.16696863911E+00 -0.78977569571E+00  0.11801586834E+01  0.00000000000E+00 0.  1.
         11    1    3    3    0    0 -0.31801572508E+02  0.22672899880E+02  0.62724780432E+01  0.39556850026E+02  0.51100000000E-03 0. -1.
        -11    1    3    3    0    0 -0.55011143917E+01 -0.70059641920E+01 -0.18695805548E+01  0.91017100329E+01  0.51100000000E-03 0.  1.
        -12    1    3    3    0    0  0.38163587789E+02 -0.15499967049E+02 -0.36131217927E+01  0.41349281258E+02  0.00000000000E+00 0.  1.
</event>
<event>
 7    1  0.2641103E-015  0.9000779E+02  0.7816164E-02  0.1186339E+00
        -11   -1    0    0    0    0  0.00000000000E+00  0.00000000000E+00  0.45593999997E+02  0.45594000000E+02  0.51100000000E-03 0.  1.
         11   -1    0    0    0    0 -0.00000000000E+00 -0.00000000000E+00 -0.45593999997E+02  0.45594000000E+02  0.51100000000E-03 0. -1.
    9900012    2    1    2    0    0 -0.10768619700E+01  0.31063829792E+00 -0.36981593260E+00  0.90007791680E+02  0.90000053730E+02 0.  0.
        -12    1    1    2    0    0  0.10768619700E+01 -0.31063829792E+00  0.36981593260E+00  0.11802083200E+01  0.00000000000E+00 0.  1.
         11    1    3    3    0    0 -0.16980791079E+02  0.30510750301E+01  0.17681301909E+02  0.24703942235E+02  0.51100000000E-03 0. -1.
        -11    1    3    3    0    0  0.28515668842E+02  0.18515121669E+02  0.11307203265E+01  0.34018107364E+02  0.51100000000E-03 0.  1.
         12    1    3    3    0    0 -0.12611739733E+02 -0.21255558401E+02 -0.19181838168E+02  0.31285742081E+02  0.00000000000E+00 0. -1.
</event>
<event>
 7    1  0.2641103E-015  0.9000769E+02  0.7816164E-02  0.1186339E+00
        -11   -1    0    0    0    0  0.00000000000E+00  0.00000000000E+00  0.45593999997E+02  0.45594000000E+02  0.51100000000E-03 0. -1.
         11   -1    0    0    0    0 -0.00000000000E+00 -0.00000000000E+00 -0.45593999997E+02  0.45594000000E+02  0.51100000000E-03 0.  1.
    9900012    2    1    2    0    0 -0.72142769418E+00 -0.93066222745E+00  0.80899585763E-01  0.90007688667E+02  0.89999949358E+02 0.  0.
        -12    1    1    2    0    0  0.72142769418E+00  0.93066222745E+00 -0.80899585763E-01  0.11803113329E+01  0.00000000000E+00 0.  1.
         11    1    3    3    0    0 -0.18680552691E+02 -0.29180649292E+02  0.16026091101E+02  0.38174715954E+02  0.51100000000E-03 0. -1.
        -11    1    3    3    0    0 -0.47504240988E+00 -0.68536973111E+01  0.34568963346E+01  0.76908364079E+01  0.51100000000E-03 0.  1.
        -12    1    3    3    0    0  0.18434167407E+02  0.35103684375E+02 -0.19402087849E+02  0.44142136306E+02  0.00000000000E+00 0.  1.
</event>
<event>
 7    1  0.2641103E-015  0.9000770E+02  0.7816164E-02  0.1186339E+00
        -11   -1    0    0    0    0  0.00000000000E+00  0.00000000000E+00  0.45593999997E+02  0.45594000000E+02  0.51100000000E-03 0. -1.
         11   -1    0    0    0    0 -0.00000000000E+00 -0.00000000000E+00 -0.45593999997E+02  0.45594000000E+02  0.51100000000E-03 0.  1.
    9900012    2    1    2    0    0 -0.54493844128E+00 -0.21002048687E+00  0.10256878455E+01  0.90007702552E+02  0.89999963426E+02 0.  0.
        -12    1    1    2    0    0  0.54493844128E+00  0.21002048687E+00 -0.10256878455E+01  0.11802974481E+01  0.00000000000E+00 0.  1.
         11    1    3    3    0    0  0.24737230411E+02 -0.31740613070E+02 -0.10620994211E+02  0.41619738163E+02  0.51100000000E-03 0. -1.
        -11    1    3    3    0    0 -0.36334660970E-01  0.76364306275E+01 -0.57099743810E+01  0.95352084733E+01  0.51100000000E-03 0.  1.
        -12    1    3    3    0    0 -0.25245834191E+02  0.23894161955E+02  0.17356656437E+02  0.38852755916E+02  0.00000000000E+00 0.  1.
</event>
<event>
 7    1  0.2641103E-015  0.9000770E+02  0.7816164E-02  0.1186339E+00
        -11   -1    0    0    0    0  0.00000000000E+00  0.00000000000E+00  0.45593999997E+02  0.45594000000E+02  0.51100000000E-03 0.  1.
         11   -1    0    0    0    0 -0.00000000000E+00 -0.00000000000E+00 -0.45593999997E+02  0.45594000000E+02  0.51100000000E-03 0. -1.
    9900012    2    1    2    0    0 -0.11477961201E+01 -0.11193133289E+00 -0.25129223886E+00  0.90007698197E+02  0.89999959013E+02 0.  0.
        -12    1    1    2    0    0  0.11477961201E+01  0.11193133289E+00  0.25129223886E+00  0.11803018029E+01  0.00000000000E+00 0.  1.
         11    1    3    3    0    0  0.17435182548E+02  0.31227646463E+02 -0.65910282082E+01  0.36367473753E+02  0.51100000000E-03 0. -1.
        -11    1    3    3    0    0  0.79325032944E+01  0.39997978977E+01 -0.66012460537E+00  0.89083531864E+01  0.51100000000E-03 0.  1.
        -12    1    3    3    0    0 -0.26515481963E+02 -0.35339375693E+02  0.69998605747E+01  0.44731871257E+02  0.00000000000E+00 0.  1.
</event>
<event>
 7    1  0.2641103E-015  0.9000772E+02  0.7816164E-02  0.1186339E+00
        -11   -1    0    0    0    0  0.00000000000E+00  0.00000000000E+00  0.45593999997E+02  0.45594000000E+02  0.51100000000E-03 0.  1.
         11   -1    0    0    0    0 -0.00000000000E+00 -0.00000000000E+00 -0.45593999997E+02  0.45594000000E+02  0.51100000000E-03 0. -1.
    9900012    2    1    2    0    0 -0.25549005164E+00 -0.72356920331E+00 -0.89679339972E+00  0.90007717847E+02  0.89999978923E+02 0.  0.
        -12    1    1    2    0    0  0.25549005164E+00  0.72356920331E+00  0.89679339972E+00  0.11802821528E+01  0.00000000000E+00 0.  1.
         11    1    3    3    0    0  0.24894681654E+02  0.23088944813E+02 -0.16545554074E+02  0.37770357519E+02  0.51100000000E-03 0. -1.
        -11    1    3    3    0    0  0.67482388511E+01 -0.44191400198E+01 -0.50844599500E+01  0.95351591151E+01  0.51100000000E-03 0.  1.
        -12    1    3    3    0    0 -0.31898410557E+02 -0.19393373997E+02  0.20733220624E+02  0.42702201213E+02  0.00000000000E+00 0.  1.
</event>
<event>
 7    1  0.2641103E-015  0.9000774E+02  0.7816164E-02  0.1186339E+00
        -11   -1    0    0    0    0  0.00000000000E+00  0.00000000000E+00  0.45593999997E+02  0.45594000000E+02  0.51100000000E-03 0. -1.
         11   -1    0    0    0    0 -0.00000000000E+00 -0.00000000000E+00 -0.45593999997E+02  0.45594000000E+02  0.51100000000E-03 0.  1.
    9900012    2    1    2    0    0 -0.45360032221E+00 -0.10890456117E+01 -0.35329414118E-01  0.90007736570E+02  0.89999997893E+02 0.  0.
        -12    1    1    2    0    0  0.45360032221E+00  0.10890456117E+01  0.35329414118E-01  0.11802634300E+01  0.00000000000E+00 0.  1.
         11    1    3    3    0    0 -0.34141325429E+02 -0.33425589527E+01 -0.25281035976E+02  0.42613772219E+02  0.51100000000E-03 0. -1.
        -11    1    3    3    0    0 -0.56451114296E-01 -0.36562839818E+01  0.85192516688E+01  0.92708817564E+01  0.51100000000E-03 0.  1.
        -12    1    3    3    0    0  0.33744176221E+02  0.59097973228E+01  0.16726454893E+02  0.38123082595E+02  0.00000000000E+00 0.  1.
</event>
<event>
 7    1  0.2641103E-015  0.9000773E+02  0.7816164E-02  0.1186339E+00
        -11   -1    0    0    0    0  0.00000000000E+00  0.00000000000E+00  0.45593999997E+02  0.45594000000E+02  0.51100000000E-03 0. -1.
         11   -1    0    0    0    0 -0.00000000000E+00 -0.00000000000E+00 -0.45593999997E+02  0.45594000000E+02  0.51100000000E-03 0.  1.
    9900012    2    1    2    0    0  0.95406223223E+00  0.12114113045E+00  0.68419199892E+00  0.90007733671E+02  0.89999994955E+02 0.  0.
        -12    1    1    2    0    0 -0.95406223223E+00 -0.12114113045E+00 -0.68419199892E+00  0.11802663292E+01  0.00000000000E+00 0.  1.
         11    1    3    3    0    0 -0.15576024204E+02  0.17622563225E+02  0.12756777574E+02  0.26756356983E+02  0.51100000000E-03 0. -1.
        -11    1    3    3    0    0 -0.18868685026E+02  0.39895984774E+01  0.22862012922E+01  0.19420887910E+02  0.51100000000E-03 0.  1.
        -12    1    3    3    0    0  0.35398771462E+02 -0.21491020572E+02 -0.14358786868E+02  0.43830488778E+02  0.00000000000E+00 0.  1.
</event>
<event>
 7    1  0.2641103E-015  0.9000774E+02  0.7816164E-02  0.1186339E+00
        -11   -1    0    0    0    0  0.00000000000E+00  0.00000000000E+00  0.45593999997E+02  0.45594000000E+02  0.51100000000E-03 0.  1.
         11   -1    0    0    0    0 -0.00000000000E+00 -0.00000000000E+00 -0.45593999997E+02  0.45594000000E+02  0.51100000000E-03 0. -1.
    9900012    2    1    2    0    0  0.95342966549E+00 -0.52960129887E-01 -0.69367428516E+00  0.90007738624E+02  0.89999999974E+02 0.  0.
        -12    1    1    2    0    0 -0.95342966549E+00  0.52960129887E-01  0.69367428516E+00  0.11802613763E+01  0.00000000000E+00 0.  1.
         11    1    3    3    0    0  0.23637303388E+02 -0.33984481136E+02 -0.10697403058E+02  0.42756303652E+02  0.51100000000E-03 0. -1.
        -11    1    3    3    0    0  0.21073690271E+01  0.76211845888E+01 -0.35188444766E+01  0.86548093835E+01  0.51100000000E-03 0.  1.
        -12    1    3    3    0    0 -0.24791242750E+02  0.26310336418E+02  0.13522573249E+02  0.38596625588E+02  0.00000000000E+00 0.  1.
</event>
<event>
 7    1  0.2641103E-015  0.9000769E+02  0.7816164E-02  0.1186339E+00
        -11   -1    0    0    0    0  0.00000000000E+00  0.00000000000E+00  0.45593999997E+02  0.45594000000E+02  0.51100000000E-03 0.  1.
         11   -1    0    0    0    0 -0.00000000000E+00 -0.00000000000E+00 -0.45593999997E+02  0.45594000000E+02  0.51100000000E-03 0. -1.
    9900012    2    1    2    0    0  0.48246701274E+00 -0.71789745684E+00 -0.80310304001E+00  0.90007692553E+02  0.89999953295E+02 0.  0.
        -12    1    1    2    0    0 -0.48246701274E+00  0.71789745684E+00  0.80310304001E+00  0.11803074471E+01  0.00000000000E+00 0.  1.
         11    1    3    3    0    0  0.74482127593E+01 -0.34216529217E+02 -0.23135862735E+02  0.41970404927E+02  0.51100000000E-03 0. -1.
        -11    1    3    3    0    0  0.73897593061E+01  0.17141917877E+01  0.50573931212E+01  0.91172485724E+01  0.51100000000E-03 0.  1.
        -12    1    3    3    0    0 -0.14355505053E+02  0.31784439972E+02  0.17275366574E+02  0.38920039054E+02  0.00000000000E+00 0.  1.
</event>
<event>
 7    1  0.2641103E-015  0.9000773E+02  0.7816164E-02  0.1186339E+00
        -11   -1    0    0    0    0  0.00000000000E+00  0.00000000000E+00  0.45593999997E+02  0.45594000000E+02  0.51100000000E-03 0.  1.
         11   -1    0    0    0    0 -0.00000000000E+00 -0.00000000000E+00 -0.45593999997E+02  0.45594000000E+02  0.51100000000E-03 0. -1.
    9900012    2    1    2    0    0  0.64177370153E+00 -0.79374323436E+00 -0.59257471287E+00  0.90007726050E+02  0.89999987234E+02 0.  0.
        -12    1    1    2    0    0 -0.64177370153E+00  0.79374323436E+00  0.59257471287E+00  0.11802739497E+01  0.00000000000E+00 0.  1.
         11    1    3    3    0    0 -0.29108470692E+01  0.83600847148E+01  0.21133551177E+01  0.91011162620E+01  0.51100000000E-03 0. -1.
        -11    1    3    3    0    0 -0.20628242117E+02  0.23277673901E+02  0.17499266919E+02  0.35687516277E+02  0.51100000000E-03 0.  1.
         12    1    3    3    0    0  0.24180862888E+02 -0.32431501850E+02 -0.20205196750E+02  0.45219093511E+02  0.00000000000E+00 0. -1.
</event>
<event>
 7    1  0.2641103E-015  0.9000768E+02  0.7816164E-02  0.1186339E+00
        -11   -1    0    0    0    0  0.00000000000E+00  0.00000000000E+00  0.45593999997E+02  0.45594000000E+02  0.51100000000E-03 0. -1.
         11   -1    0    0    0    0 -0.00000000000E+00 -0.00000000000E+00 -0.45593999997E+02  0.45594000000E+02  0.51100000000E-03 0.  1.
    9900012    2    1    2    0    0 -0.10559454296E+01 -0.35127740718E+00  0.39338111398E+00  0.90007675779E+02  0.89999936299E+02 0.  0.
        -12    1    1    2    0    0  0.10559454296E+01  0.35127740718E+00 -0.39338111398E+00  0.11803242215E+01  0.00000000000E+00 0.  1.
         11    1    3    3    0    0  0.65099491513E+01 -0.58968409215E+01 -0.55037389566E+01  0.10365486654E+02  0.51100000000E-03 0. -1.
        -11    1    3    3    0    0 -0.82728452520E+01 -0.35894484038E+02 -0.39372821622E+01  0.37045325535E+02  0.51100000000E-03 0.  1.
         12    1    3    3    0    0  0.70695067110E+00  0.41440047552E+02  0.98344022328E+01  0.42596863590E+02  0.00000000000E+00 0. -1.
</event>
<event>
 7    1  0.2641103E-015  0.9000775E+02  0.7816164E-02  0.1186339E+00
        -11   -1    0    0    0    0  0.00000000000E+00  0.00000000000E+00  0.45593999997E+02  0.45594000000E+02  0.51100000000E-03 0.  1.
         11   -1    0    0    0    0 -0.00000000000E+00 -0.00000000000E+00 -0.45593999997E+02  0.45594000000E+02  0.51100000000E-03 0. -1.
    9900012    2    1    2    0    0  0.10040947683E+01 -0.35408247652E+00  0.50932329931E+00  0.90007749634E+02  0.90000011129E+02 0.  0.
        -12    1    1    2    0    0 -0.10040947683E+01  0.35408247652E+00 -0.50932329931E+00  0.11802503663E+01  0.00000000000E+00 0.  1.
         11    1    3    3    0    0 -0.13742977026E+02  0.35563862273E+02 -0.47410388841E+01  0.38420504516E+02  0.51100000000E-03 0. -1.
        -11    1    3    3    0    0  0.54251299718E+01 -0.20732471794E+00  0.12810649241E+02  0.13913581601E+02  0.51100000000E-03 0.  1.
        -12    1    3    3    0    0  0.93219418220E+01 -0.35710620031E+02 -0.75602870573E+01  0.37673663516E+02  0.00000000000E+00 0.  1.
</event>
<event>
 7    1  0.2641103E-015  0.9000776E+02  0.7816164E-02  0.1186339E+00
        -11   -1    0    0    0    0  0.00000000000E+00  0.00000000000E+00  0.45593999997E+02  0.45594000000E+02  0.51100000000E-03 0.  1.
         11   -1    0    0    0    0 -0.00000000000E+00 -0.00000000000E+00 -0.45593999997E+02  0.45594000000E+02  0.51100000000E-03 0. -1.
    9900012    2    1    2    0    0 -0.57277126550E+00  0.71178679814E+00 -0.74717257200E+00  0.90007756711E+02  0.90000018300E+02 0.  0.
        -12    1    1    2    0    0  0.57277126550E+00 -0.71178679814E+00  0.74717257200E+00  0.11802432889E+01  0.00000000000E+00 0.  1.
         11    1    3    3    0    0  0.34109934600E+02  0.52432087250E+01 -0.18301502218E+02  0.39063075402E+02  0.51100000000E-03 0. -1.
        -11    1    3    3    0    0 -0.87546966914E+00  0.67465002490E+01 -0.52857393150E+01  0.86151467265E+01  0.51100000000E-03 0.  1.
        -12    1    3    3    0    0 -0.33807236197E+02 -0.11277922176E+02  0.22840068961E+02  0.42329534583E+02  0.00000000000E+00 0.  1.
</event>
<event>
 7    1  0.2641103E-015  0.9000777E+02  0.7816164E-02  0.1186339E+00
        -11   -1    0    0    0    0  0.00000000000E+00  0.00000000000E+00  0.45593999997E+02  0.45594000000E+02  0.51100000000E-03 0.  1.
         11   -1    0    0    0    0 -0.00000000000E+00 -0.00000000000E+00 -0.45593999997E+02  0.45594000000E+02  0.51100000000E-03 0. -1.
    9900012    2    1    2    0    0  0.55981745592E+00  0.80518286866E-01 -0.10358882334E+01  0.90007769848E+02  0.90000031610E+02 0.  0.
        -12    1    1    2    0    0 -0.55981745592E+00 -0.80518286866E-01  0.10358882334E+01  0.11802301515E+01  0.00000000000E+00 0.  1.
         11    1    3    3    0    0 -0.70650193702E+01 -0.83109140617E+00  0.54283815390E+01  0.89483259899E+01  0.51100000000E-03 0. -1.
        -11    1    3    3    0    0  0.29147470091E+01 -0.17896052406E+02  0.32682015269E+02  0.37374838650E+02  0.51100000000E-03 0.  1.
         12    1    3    3    0    0  0.47100898170E+01  0.18807662099E+02 -0.39146285041E+02  0.43684605208E+02  0.00000000000E+00 0. -1.
</event>
<event>
 7    1  0.2641103E-015  0.9000775E+02  0.7816164E-02  0.1186339E+00
        -11   -1    0    0    0    0  0.00000000000E+00  0.00000000000E+00  0.45593999997E+02  0.45594000000E+02  0.51100000000E-03 0.  1.
         11   -1    0    0    0    0 -0.00000000000E+00 -0.00000000000E+00 -0.45593999997E+02  0.45594000000E+02  0.51100000000E-03 0. -1.
    9900012    2    1    2    0    0 -0.98709093003E+00 -0.52981157543E+00  0.37140356051E+00  0.90007750275E+02  0.90000011778E+02 0.  0.
        -12    1    1    2    0    0  0.98709093003E+00  0.52981157543E+00 -0.37140356051E+00  0.11802497254E+01  0.00000000000E+00 0.  1.
         11    1    3    3    0    0 -0.53600102462E+01  0.27485544719E+01 -0.40152285690E+02  0.40601604745E+02  0.51100000000E-03 0. -1.
        -11    1    3    3    0    0 -0.82041429010E+01  0.31932466733E+00  0.16288412465E+01  0.83703675576E+01  0.51100000000E-03 0.  1.
        -12    1    3    3    0    0  0.12577062217E+02 -0.35976907147E+01  0.38894848004E+02  0.41035777972E+02  0.00000000000E+00 0.  1.
</event>
<event>
 7    1  0.2641103E-015  0.9000726E+02  0.7816164E-02  0.1186340E+00
        -11   -1    0    0    0    0  0.00000000000E+00  0.00000000000E+00  0.45593999997E+02  0.45594000000E+02  0.51100000000E-03 0.  1.
         11   -1    0    0    0    0 -0.00000000000E+00 -0.00000000000E+00 -0.45593999997E+02  0.45594000000E+02  0.51100000000E-03 0. -1.
    9900012    2    1    2    0    0  0.31507685621E+00  0.10995066653E+01 -0.29319814539E+00  0.90007257232E+02  0.89999512226E+02 0.  0.
        -12    1    1    2    0    0 -0.31507685621E+00 -0.10995066653E+01  0.29319814539E+00  0.11807427682E+01  0.00000000000E+00 0.  1.
         11    1    3    3    0    0  0.31836399152E+01 -0.50525069741E+01  0.61508576561E+01  0.85730064738E+01  0.51100000000E-03 0. -1.
        -11    1    3    3    0    0 -0.24225451687E+02 -0.30346786853E+02 -0.15154711046E+01  0.38859961846E+02  0.51100000000E-03 0.  1.
         12    1    3    3    0    0  0.21356888628E+02  0.36498800492E+02 -0.49285846969E+01  0.42574288912E+02  0.00000000000E+00 0. -1.
</event>
<event>
 7    1  0.2641103E-015  0.9000776E+02  0.7816164E-02  0.1186339E+00
        -11   -1    0    0    0    0  0.00000000000E+00  0.00000000000E+00  0.45593999997E+02  0.45594000000E+02  0.51100000000E-03 0. -1.
         11   -1    0    0    0    0 -0.00000000000E+00 -0.00000000000E+00 -0.45593999997E+02  0.45594000000E+02  0.51100000000E-03 0.  1.
    9900012    2    1    2    0    0  0.98616583928E+00  0.64460471911E+00  0.70176202962E-01  0.90007761462E+02  0.90000023114E+02 0.  0.
        -12    1    1    2    0    0 -0.98616583928E+00 -0.64460471911E+00 -0.70176202962E-01  0.11802385377E+01  0.00000000000E+00 0.  1.
         11    1    3    3    0    0  0.37429440045E+02 -0.10004795931E+02 -0.43074898572E+01  0.38982218932E+02  0.51100000000E-03 0. -1.
        -11    1    3    3    0    0  0.16939863690E+01 -0.56067287946E+01  0.74241830002E+01  0.94563994775E+01  0.51100000000E-03 0.  1.
        -12    1    3    3    0    0 -0.38137260575E+02  0.16256129445E+02 -0.30465169401E+01  0.41569143053E+02  0.00000000000E+00 0.  1.
</event>
<event>
 7    1  0.2641103E-015  0.9000772E+02  0.7816164E-02  0.1186339E+00
        -11   -1    0    0    0    0  0.00000000000E+00  0.00000000000E+00  0.45593999997E+02  0.45594000000E+02  0.51100000000E-03 0. -1.
         11   -1    0    0    0    0 -0.00000000000E+00 -0.00000000000E+00 -0.45593999997E+02  0.45594000000E+02  0.51100000000E-03 0.  1.
    9900012    2    1    2    0    0 -0.73608162158E+00  0.91866697189E+00  0.85413317555E-01  0.90007720121E+02  0.89999981226E+02 0.  0.
        -12    1    1    2    0    0  0.73608162158E+00 -0.91866697189E+00 -0.85413317555E-01  0.11802798794E+01  0.00000000000E+00 0.  1.
         11    1    3    3    0    0  0.37365824143E+01  0.27025540432E+02 -0.27562015175E+01  0.27421497604E+02  0.51100000000E-03 0. -1.
        -11    1    3    3    0    0 -0.23051329027E+01  0.17886396917E+02 -0.25389550849E+01  0.18212169711E+02  0.51100000000E-03 0.  1.
        -12    1    3    3    0    0 -0.21675311332E+01 -0.43993270378E+02  0.53805699200E+01  0.44374052806E+02  0.00000000000E+00 0.  1.
</event>
<event>
 7    1  0.2641103E-015  0.9000784E+02  0.7816164E-02  0.1186339E+00
        -11   -1    0    0    0    0  0.00000000000E+00  0.00000000000E+00  0.45593999997E+02  0.45594000000E+02  0.51100000000E-03 0.  1.
         11   -1    0    0    0    0 -0.00000000000E+00 -0.00000000000E+00 -0.45593999997E+02  0.45594000000E+02  0.51100000000E-03 0. -1.
    9900012    2    1    2    0    0  0.18855650100E+00  0.96947339124E+00  0.64601900583E+00  0.90007842059E+02  0.90000104774E+02 0.  0.
        -12    1    1    2    0    0 -0.18855650100E+00 -0.96947339124E+00 -0.64601900583E+00  0.11801579412E+01  0.00000000000E+00 0.  1.
         11    1    3    3    0    0 -0.16346041616E+02 -0.38844475506E+01 -0.36215327798E+00  0.16805152916E+02  0.51100000000E-03 0. -1.
        -11    1    3    3    0    0  0.21915916170E+01  0.14849435211E+02  0.33275160564E+02  0.36504042388E+02  0.51100000000E-03 0.  1.
         12    1    3    3    0    0  0.14343006500E+02 -0.99955142691E+01 -0.32266988280E+02  0.36698646754E+02  0.00000000000E+00 0. -1.
</event>
<event>
 7    1  0.2641103E-015  0.9000795E+02  0.7816164E-02  0.1186339E+00
        -11   -1    0    0    0    0  0.00000000000E+00  0.00000000000E+00  0.45593999997E+02  0.45594000000E+02  0.51100000000E-03 0.  1.
         11   -1    0    0    0    0 -0.00000000000E+00 -0.00000000000E+00 -0.45593999997E+02  0.45594000000E+02  0.51100000000E-03 0. -1.
    9900012    2    1    2    0    0  0.43774697084E+00  0.31425283036E+00 -0.10498336019E+01  0.90007945830E+02  0.90000209915E+02 0.  0.
        -12    1    1    2    0    0 -0.43774697084E+00 -0.31425283036E+00  0.10498336019E+01  0.11800541697E+01  0.00000000000E+00 0.  1.
         11    1    3    3    0    0 -0.18779304399E+01  0.58680532027E+01  0.57250050090E+01  0.84104906956E+01  0.51100000000E-03 0. -1.
        -11    1    3    3    0    0  0.30798232257E+01  0.11414988026E+02  0.34764181386E+02  0.36719689138E+02  0.51100000000E-03 0.  1.
         12    1    3    3    0    0 -0.76414581502E+00 -0.16968788399E+02 -0.41539019997E+02  0.44877765996E+02  0.00000000000E+00 0. -1.
</event>
<event>
 7    1  0.2641103E-015  0.9000771E+02  0.7816164E-02  0.1186339E+00
        -11   -1    0    0    0    0  0.00000000000E+00  0.00000000000E+00  0.45593999997E+02  0.45594000000E+02  0.51100000000E-03 0. -1.
         11   -1    0    0    0    0 -0.00000000000E+00 -0.00000000000E+00 -0.45593999997E+02  0.45594000000E+02  0.51100000000E-03 0.  1.
    9900012    2    1    2    0    0  0.18169174589E+00 -0.25659430070E+00  0.11376409546E+01  0.90007712125E+02  0.89999973125E+02 0.  0.
        -12    1    1    2    0    0 -0.18169174589E+00  0.25659430070E+00 -0.11376409546E+01  0.11802878747E+01  0.00000000000E+00 0.  1.
         11    1    3    3    0    0  0.25923693865E+01  0.14274342909E+02  0.37351293919E+02  0.40069893963E+02  0.51100000000E-03 0. -1.
        -11    1    3    3    0    0 -0.61514628607E+01  0.59387002371E+01 -0.45143042679E+00  0.85622687136E+01  0.51100000000E-03 0.  1.
        -12    1    3    3    0    0  0.37407852201E+01 -0.20469637447E+02 -0.35762222538E+02  0.41375549448E+02  0.00000000000E+00 0.  1.
</event>
<event>
 7    1  0.2641103E-015  0.9000766E+02  0.7816164E-02  0.1186339E+00
        -11   -1    0    0    0    0  0.00000000000E+00  0.00000000000E+00  0.45593999997E+02  0.45594000000E+02  0.51100000000E-03 0.  1.
         11   -1    0    0    0    0 -0.00000000000E+00 -0.00000000000E+00 -0.45593999997E+02  0.45594000000E+02  0.51100000000E-03 0. -1.
    9900012    2    1    2    0    0  0.19839415350E+00  0.11635232100E+01  0.67754339986E-02  0.90007664282E+02  0.89999924651E+02 0.  0.
        -12    1    1    2    0    0 -0.19839415350E+00 -0.11635232100E+01 -0.67754339986E-02  0.11803357178E+01  0.00000000000E+00 0.  1.
         11    1    3    3    0    0  0.58902275874E+01  0.53389520371E-01  0.11808912718E+02  0.13196516635E+02  0.51100000000E-03 0. -1.
        -11    1    3    3    0    0 -0.24329968628E+02  0.16755759780E+01  0.25390735924E+02  0.35205743840E+02  0.51100000000E-03 0.  1.
         12    1    3    3    0    0  0.18638135194E+02 -0.56544228840E+00 -0.37192873207E+02  0.41605403807E+02  0.00000000000E+00 0. -1.
</event>
<event>
 7    1  0.2641103E-015  0.9000770E+02  0.7816164E-02  0.1186339E+00
        -11   -1    0    0    0    0  0.00000000000E+00  0.00000000000E+00  0.45593999997E+02  0.45594000000E+02  0.51100000000E-03 0. -1.
         11   -1    0    0    0    0 -0.00000000000E+00 -0.00000000000E+00 -0.45593999997E+02  0.45594000000E+02  0.51100000000E-03 0.  1.
    9900012    2    1    2    0    0 -0.30421443990E+00  0.28578416084E+00  0.11040343543E+01  0.90007698823E+02  0.89999959648E+02 0.  0.
        -12    1    1    2    0    0  0.30421443990E+00 -0.28578416084E+00 -0.11040343543E+01  0.11803011766E+01  0.00000000000E+00 0.  1.
         11    1    3    3    0    0  0.27046907299E+02 -0.37645994552E+01  0.24821188788E+02  0.36902558403E+02  0.51100000000E-03 0. -1.
        -11    1    3    3    0    0  0.92469058320E+01  0.52176954502E+01 -0.29958733042E+01  0.11031993038E+02  0.51100000000E-03 0.  1.
        -12    1    3    3    0    0 -0.36598027571E+02 -0.11673118341E+01 -0.20721281130E+02  0.42073147383E+02  0.00000000000E+00 0.  1.
</event>
<event>
 7    1  0.2641103E-015  0.9000765E+02  0.7816164E-02  0.1186339E+00
        -11   -1    0    0    0    0  0.00000000000E+00  0.00000000000E+00  0.45593999997E+02  0.45594000000E+02  0.51100000000E-03 0. -1.
         11   -1    0    0    0    0 -0.00000000000E+00 -0.00000000000E+00 -0.45593999997E+02  0.45594000000E+02  0.51100000000E-03 0.  1.
    9900012    2    1    2    0    0 -0.67490147313E+00  0.30520317213E+00  0.91901258759E+00  0.90007650429E+02  0.89999910614E+02 0.  0.
        -12    1    1    2    0    0  0.67490147313E+00 -0.30520317213E+00 -0.91901258759E+00  0.11803495715E+01  0.00000000000E+00 0.  1.
         11    1    3    3    0    0  0.33882065236E+02 -0.30374648489E+01 -0.71321038101E+01  0.34757552307E+02  0.51100000000E-03 0. -1.
        -11    1    3    3    0    0 -0.86495158143E+00  0.16812236910E+02 -0.34537647857E+01  0.17185108164E+02  0.51100000000E-03 0.  1.
        -12    1    3    3    0    0 -0.33692015127E+02 -0.13469568889E+02  0.11504881183E+02  0.38064989957E+02  0.00000000000E+00 0.  1.
</event>
<event>
 7    1  0.2641103E-015  0.9000665E+02  0.7816164E-02  0.1186341E+00
        -11   -1    0    0    0    0  0.00000000000E+00  0.00000000000E+00  0.45593999997E+02  0.45594000000E+02  0.51100000000E-03 0. -1.
         11   -1    0    0    0    0 -0.00000000000E+00 -0.00000000000E+00 -0.45593999997E+02  0.45594000000E+02  0.51100000000E-03 0.  1.
    9900012    2    1    2    0    0 -0.58869592905E+00 -0.63912723024E+00  0.80033778804E+00  0.90006650311E+02  0.89998897288E+02 0.  0.
        -12    1    1    2    0    0  0.58869592905E+00  0.63912723024E+00 -0.80033778804E+00  0.11813496893E+01  0.00000000000E+00 0.  1.
         11    1    3    3    0    0 -0.10213085737E+01  0.43742707900E+01 -0.74203108724E+01  0.86740031042E+01  0.51100000000E-03 0. -1.
        -11    1    3    3    0    0 -0.27167624994E+02  0.24431809685E+02  0.16570691908E+02  0.40119583783E+02  0.51100000000E-03 0.  1.
         12    1    3    3    0    0  0.27600237639E+02 -0.29445207706E+02 -0.83500432478E+01  0.41213063424E+02  0.00000000000E+00 0. -1.
</event>
<event>
 7    1  0.2641103E-015  0.9000772E+02  0.7816164E-02  0.1186339E+00
        -11   -1    0    0    0    0  0.00000000000E+00  0.00000000000E+00  0.45593999997E+02  0.45594000000E+02  0.51100000000E-03 0. -1.
         11   -1    0    0    0    0 -0.00000000000E+00 -0.00000000000E+00 -0.45593999997E+02  0.45594000000E+02  0.51100000000E-03 0.  1.
    9900012    2    1    2    0    0  0.15460648985E+00  0.73759956904E+00  0.90834620249E+00  0.90007724984E+02  0.89999986153E+02 0.  0.
        -12    1    1    2    0    0 -0.15460648985E+00 -0.73759956904E+00 -0.90834620249E+00  0.11802750165E+01  0.00000000000E+00 0.  1.
         11    1    3    3    0    0 -0.70233420693E+01  0.14048203066E+02  0.30463087490E+01  0.15998729339E+02  0.51100000000E-03 0. -1.
        -11    1    3    3    0    0 -0.79690301384E+01  0.19621204676E+02 -0.23739016147E+02  0.31812544729E+02  0.51100000000E-03 0.  1.
         12    1    3    3    0    0  0.15146978697E+02 -0.32931808173E+02  0.21601053600E+02  0.42196450915E+02  0.00000000000E+00 0. -1.
</event>
<event>
 7    1  0.2641103E-015  0.9000758E+02  0.7816164E-02  0.1186339E+00
        -11   -1    0    0    0    0  0.00000000000E+00  0.00000000000E+00  0.45593999997E+02  0.45594000000E+02  0.51100000000E-03 0.  1.
         11   -1    0    0    0    0 -0.00000000000E+00 -0.00000000000E+00 -0.45593999997E+02  0.45594000000E+02  0.51100000000E-03 0. -1.
    9900012    2    1    2    0    0 -0.48548562916E+00  0.91259823951E+00  0.56995417191E+00  0.90007584988E+02  0.89999844310E+02 0.  0.
        -12    1    1    2    0    0  0.48548562916E+00 -0.91259823951E+00 -0.56995417191E+00  0.11804150122E+01  0.00000000000E+00 0.  1.
         11    1    3    3    0    0  0.74386953277E+01 -0.59788424753E+00  0.64302921516E+01  0.98509040787E+01  0.51100000000E-03 0. -1.
        -11    1    3    3    0    0  0.91432091605E+01  0.20668625172E+02  0.29065957868E+02  0.36818748584E+02  0.51100000000E-03 0.  1.
         12    1    3    3    0    0 -0.17067390117E+02 -0.19158142685E+02 -0.34926295848E+02  0.43337932325E+02  0.00000000000E+00 0. -1.
</event>
<event>
 7    1  0.2641103E-015  0.9000777E+02  0.7816164E-02  0.1186339E+00
        -11   -1    0    0    0    0  0.00000000000E+00  0.00000000000E+00  0.45593999997E+02  0.45594000000E+02  0.51100000000E-03 0. -1.
         11   -1    0    0    0    0 -0.00000000000E+00 -0.00000000000E+00 -0.45593999997E+02  0.45594000000E+02  0.51100000000E-03 0.  1.
    9900012    2    1    2    0    0 -0.74213616497E+00 -0.42257065527E+00  0.81462864116E+00  0.90007766180E+02  0.90000027894E+02 0.  0.
        -12    1    1    2    0    0  0.74213616497E+00  0.42257065527E+00 -0.81462864116E+00  0.11802338197E+01  0.00000000000E+00 0.  1.
         11    1    3    3    0    0  0.29388171836E+02  0.16913691578E+02  0.17183785730E+02  0.38013419984E+02  0.51100000000E-03 0. -1.
        -11    1    3    3    0    0  0.49183417657E+01  0.41505780264E+01  0.23118263044E+01  0.68382691378E+01  0.51100000000E-03 0.  1.
        -12    1    3    3    0    0 -0.35048649766E+02 -0.21486840260E+02 -0.18680983393E+02  0.45156077058E+02  0.00000000000E+00 0.  1.
</event>
<event>
 7    1  0.2641103E-015  0.9000763E+02  0.7816164E-02  0.1186339E+00
        -11   -1    0    0    0    0  0.00000000000E+00  0.00000000000E+00  0.45593999997E+02  0.45594000000E+02  0.51100000000E-03 0. -1.
         11   -1    0    0    0    0 -0.00000000000E+00 -0.00000000000E+00 -0.45593999997E+02  0.45594000000E+02  0.51100000000E-03 0.  1.
    9900012    2    1    2    0    0 -0.44561285241E+00  0.34145544513E+00  0.10383257335E+01  0.90007625922E+02  0.89999885784E+02 0.  0.
        -12    1    1    2    0    0  0.44561285241E+00 -0.34145544513E+00 -0.10383257335E+01  0.11803740780E+01  0.00000000000E+00 0.  1.
         11    1    3    3    0    0  0.20128668076E+02 -0.30616258905E+02  0.48893337316E+01  0.36965175131E+02  0.51100000000E-03 0. -1.
        -11    1    3    3    0    0 -0.32266868430E+01 -0.88555150425E+01 -0.15627569041E+01  0.95537356072E+01  0.51100000000E-03 0.  1.
        -12    1    3    3    0    0 -0.17347594085E+02  0.39813229393E+02 -0.22882510941E+01  0.43488715184E+02  0.00000000000E+00 0.  1.
</event>
<event>
 7    1  0.2641103E-015  0.9000766E+02  0.7816164E-02  0.1186339E+00
        -11   -1    0    0    0    0  0.00000000000E+00  0.00000000000E+00  0.45593999997E+02  0.45594000000E+02  0.51100000000E-03 0.  1.
         11   -1    0    0    0    0 -0.00000000000E+00 -0.00000000000E+00 -0.45593999997E+02  0.45594000000E+02  0.51100000000E-03 0. -1.
    9900012    2    1    2    0    0 -0.10549526662E+01 -0.47462125148E+00 -0.23452651623E+00  0.90007663969E+02  0.89999924333E+02 0.  0.
        -12    1    1    2    0    0  0.10549526662E+01  0.47462125148E+00  0.23452651623E+00  0.11803360315E+01  0.00000000000E+00 0.  1.
         11    1    3    3    0    0  0.18156992929E+02  0.19864640702E+02 -0.30539760608E+02  0.40705740635E+02  0.51100000000E-03 0. -1.
        -11    1    3    3    0    0 -0.37588396005E+01  0.67350246338E+01  0.61559770516E+01  0.98684084675E+01  0.51100000000E-03 0.  1.
        -12    1    3    3    0    0 -0.15453105994E+02 -0.27074286587E+02  0.24149257040E+02  0.39433514866E+02  0.00000000000E+00 0.  1.
</event>
<event>
 7    1  0.2641103E-015  0.9000778E+02  0.7816164E-02  0.1186339E+00
        -11   -1    0    0    0    0  0.00000000000E+00  0.00000000000E+00  0.45593999997E+02  0.45594000000E+02  0.51100000000E-03 0.  1.
         11   -1    0    0    0    0 -0.00000000000E+00 -0.00000000000E+00 -0.45593999997E+02  0.45594000000E+02  0.51100000000E-03 0. -1.
    9900012    2    1    2    0    0 -0.10432026412E+01  0.43954333026E+00  0.33383990866E+00  0.90007780031E+02  0.90000041928E+02 0.  0.
        -12    1    1    2    0    0  0.10432026412E+01 -0.43954333026E+00 -0.33383990866E+00  0.11802199687E+01  0.00000000000E+00 0.  1.
         11    1    3    3    0    0  0.64675087034E+01 -0.68784313162E+01 -0.68890673698E+00  0.94665769396E+01  0.51100000000E-03 0. -1.
        -11    1    3    3    0    0  0.29417073564E+02  0.25809053286E+02 -0.15278461513E+01  0.39163832330E+02  0.51100000000E-03 0.  1.
         12    1    3    3    0    0 -0.36927784909E+02 -0.18491078640E+02  0.25505927969E+01  0.41377370762E+02  0.00000000000E+00 0. -1.
</event>
<event>
 7    1  0.2641103E-015  0.9000793E+02  0.7816164E-02  0.1186339E+00
        -11   -1    0    0    0    0  0.00000000000E+00  0.00000000000E+00  0.45593999997E+02  0.45594000000E+02  0.51100000000E-03 0.  1.
         11   -1    0    0    0    0 -0.00000000000E+00 -0.00000000000E+00 -0.45593999997E+02  0.45594000000E+02  0.51100000000E-03 0. -1.
    9900012    2    1    2    0    0 -0.74398101631E+00  0.77372479083E+00 -0.49030494224E+00  0.90007933586E+02  0.90000197509E+02 0.  0.
        -12    1    1    2    0    0  0.74398101631E+00 -0.77372479083E+00  0.49030494224E+00  0.11800664138E+01  0.00000000000E+00 0.  1.
         11    1    3    3    0    0  0.16126071368E+02 -0.11365999214E+02  0.45522042230E+01  0.20247436368E+02  0.51100000000E-03 0. -1.
        -11    1    3    3    0    0 -0.24290339542E+02 -0.31627479692E+01  0.25150062762E+02  0.35107680456E+02  0.51100000000E-03 0.  1.
         12    1    3    3    0    0  0.74202871573E+01  0.15302471974E+02 -0.30192571928E+02  0.34652816763E+02  0.00000000000E+00 0. -1.
</event>
<event>
 7    1  0.2641103E-015  0.9000769E+02  0.7816164E-02  0.1186339E+00
        -11   -1    0    0    0    0  0.00000000000E+00  0.00000000000E+00  0.45593999997E+02  0.45594000000E+02  0.51100000000E-03 0. -1.
         11   -1    0    0    0    0 -0.00000000000E+00 -0.00000000000E+00 -0.45593999997E+02  0.45594000000E+02  0.51100000000E-03 0.  1.
    9900012    2    1    2    0    0  0.79679641738E+00  0.29343991111E+00  0.81983933769E+00  0.90007691544E+02  0.89999952272E+02 0.  0.
        -12    1    1    2    0    0 -0.79679641738E+00 -0.29343991111E+00 -0.81983933769E+00  0.11803084562E+01  0.00000000000E+00 0.  1.
         11    1    3    3    0    0 -0.17464383722E+02 -0.26976002791E+02  0.14575421164E+02  0.35286716024E+02  0.51100000000E-03 0. -1.
        -11    1    3    3    0    0 -0.10166809322E+02  0.37039317106E+01  0.64819881594E+01  0.12613456809E+02  0.51100000000E-03 0.  1.
        -12    1    3    3    0    0  0.28427989461E+02  0.23565510991E+02 -0.20237569986E+02  0.42107518711E+02  0.00000000000E+00 0.  1.
</event>
<event>
 7    1  0.2641103E-015  0.9000778E+02  0.7816164E-02  0.1186339E+00
        -11   -1    0    0    0    0  0.00000000000E+00  0.00000000000E+00  0.45593999997E+02  0.45594000000E+02  0.51100000000E-03 0.  1.
         11   -1    0    0    0    0 -0.00000000000E+00 -0.00000000000E+00 -0.45593999997E+02  0.45594000000E+02  0.51100000000E-03 0. -1.
    9900012    2    1    2    0    0 -0.11694814088E+01  0.12692231195E+00 -0.95525509796E-01  0.90007779189E+02  0.90000041075E+02 0.  0.
        -12    1    1    2    0    0  0.11694814088E+01 -0.12692231195E+00  0.95525509796E-01  0.11802208106E+01  0.00000000000E+00 0.  1.
         11    1    3    3    0    0 -0.49222306539E+01 -0.36245724245E+02 -0.94624900754E+00  0.36590658208E+02  0.51100000000E-03 0. -1.
        -11    1    3    3    0    0  0.17869130996E+01 -0.82629575659E+01 -0.18597498799E+01  0.86561074415E+01  0.51100000000E-03 0.  1.
        -12    1    3    3    0    0  0.19658361455E+01  0.44635604123E+02  0.27104733777E+01  0.44761013540E+02  0.00000000000E+00 0.  1.
</event>
<event>
 7    1  0.2641103E-015  0.9000784E+02  0.7816164E-02  0.1186339E+00
        -11   -1    0    0    0    0  0.00000000000E+00  0.00000000000E+00  0.45593999997E+02  0.45594000000E+02  0.51100000000E-03 0.  1.
         11   -1    0    0    0    0 -0.00000000000E+00 -0.00000000000E+00 -0.45593999997E+02  0.45594000000E+02  0.51100000000E-03 0. -1.
    9900012    2    1    2    0    0 -0.16089296055E+00  0.42099825510E+00 -0.10907082061E+01  0.90007843033E+02  0.90000105761E+02 0.  0.
        -12    1    1    2    0    0  0.16089296055E+00 -0.42099825510E+00  0.10907082061E+01  0.11801569669E+01  0.00000000000E+00 0.  1.
         11    1    3    3    0    0 -0.31462376171E+01  0.44546154447E+01  0.73069519066E+01  0.91177824239E+01  0.51100000000E-03 0. -1.
        -11    1    3    3    0    0 -0.20369625948E+02 -0.34906361748E+02  0.30260460484E+01  0.40528171766E+02  0.51100000000E-03 0.  1.
         12    1    3    3    0    0  0.23354970604E+02  0.30872744559E+02 -0.11423706161E+02  0.40361888843E+02  0.00000000000E+00 0. -1.
</event>
<event>
 7    1  0.2641103E-015  0.9000772E+02  0.7816164E-02  0.1186339E+00
        -11   -1    0    0    0    0  0.00000000000E+00  0.00000000000E+00  0.45593999997E+02  0.45594000000E+02  0.51100000000E-03 0.  1.
         11   -1    0    0    0    0 -0.00000000000E+00 -0.00000000000E+00 -0.45593999997E+02  0.45594000000E+02  0.51100000000E-03 0. -1.
    9900012    2    1    2    0    0 -0.58537015442E+00  0.63089200780E-01 -0.10229447820E+01  0.90007722705E+02  0.89999983845E+02 0.  0.
        -12    1    1    2    0    0  0.58537015442E+00 -0.63089200780E-01  0.10229447820E+01  0.11802772945E+01  0.00000000000E+00 0.  1.
         11    1    3    3    0    0 -0.21703332372E+02 -0.23694036956E+02  0.18662982246E+02  0.37158430132E+02  0.51100000000E-03 0. -1.
        -11    1    3    3    0    0  0.75918917833E+01 -0.91917366100E+01  0.45789121886E+00  0.11930402650E+02  0.51100000000E-03 0.  1.
        -12    1    3    3    0    0  0.13526070434E+02  0.32948862766E+02 -0.20143818247E+02  0.40918889923E+02  0.00000000000E+00 0.  1.
</event>
<event>
 7    1  0.2641103E-015  0.9000779E+02  0.7816164E-02  0.1186339E+00
        -11   -1    0    0    0    0  0.00000000000E+00  0.00000000000E+00  0.45593999997E+02  0.45594000000E+02  0.51100000000E-03 0. -1.
         11   -1    0    0    0    0 -0.00000000000E+00 -0.00000000000E+00 -0.45593999997E+02  0.45594000000E+02  0.51100000000E-03 0.  1.
    9900012    2    1    2    0    0 -0.21145160618E+00  0.81498110706E+00  0.82704021976E+00  0.90007787514E+02  0.90000049509E+02 0.  0.
        -12    1    1    2    0    0  0.21145160618E+00 -0.81498110706E+00 -0.82704021976E+00  0.11802124858E+01  0.00000000000E+00 0.  1.
         11    1    3    3    0    0  0.14931678037E+02 -0.12138479633E+02  0.24875103811E+02  0.31449459243E+02  0.51100000000E-03 0. -1.
        -11    1    3    3    0    0 -0.22287731062E+01  0.88093216305E+00  0.15265694233E+02  0.15452666169E+02  0.51100000000E-03 0.  1.
        -12    1    3    3    0    0 -0.12914356537E+02  0.12072528577E+02 -0.39313757825E+02  0.43105662103E+02  0.00000000000E+00 0.  1.
</event>
<event>
 7    1  0.2641103E-015  0.9000771E+02  0.7816164E-02  0.1186339E+00
        -11   -1    0    0    0    0  0.00000000000E+00  0.00000000000E+00  0.45593999997E+02  0.45594000000E+02  0.51100000000E-03 0. -1.
         11   -1    0    0    0    0 -0.00000000000E+00 -0.00000000000E+00 -0.45593999997E+02  0.45594000000E+02  0.51100000000E-03 0.  1.
    9900012    2    1    2    0    0  0.77028622278E+00 -0.87071549455E+00  0.20397728311E+00  0.90007706363E+02  0.89999967287E+02 0.  0.
        -12    1    1    2    0    0 -0.77028622278E+00  0.87071549455E+00 -0.20397728311E+00  0.11802936370E+01  0.00000000000E+00 0.  1.
         11    1    3    3    0    0 -0.88446983409E+01 -0.26677744148E+01  0.32538790479E+01  0.97945616640E+01  0.51100000000E-03 0. -1.
        -11    1    3    3    0    0 -0.16772450046E+02  0.32349812634E+02 -0.12905460197E+02  0.38657164422E+02  0.51100000000E-03 0.  1.
         12    1    3    3    0    0  0.26387434610E+02 -0.30552753714E+02  0.98555584323E+01  0.41555980277E+02  0.00000000000E+00 0. -1.
</event>
<event>
 7    1  0.2641103E-015  0.9000764E+02  0.7816164E-02  0.1186339E+00
        -11   -1    0    0    0    0  0.00000000000E+00  0.00000000000E+00  0.45593999997E+02  0.45594000000E+02  0.51100000000E-03 0. -1.
         11   -1    0    0    0    0 -0.00000000000E+00 -0.00000000000E+00 -0.45593999997E+02  0.45594000000E+02  0.51100000000E-03 0.  1.
    9900012    2    1    2    0    0  0.73277501636E+00 -0.65460174374E+00  0.65406229581E+00  0.90007635584E+02  0.89999895574E+02 0.  0.
        -12    1    1    2    0    0 -0.73277501636E+00  0.65460174374E+00 -0.65406229581E+00  0.11803644159E+01  0.00000000000E+00 0.  1.
         11    1    3    3    0    0  0.45398618476E-01 -0.98895534808E+01 -0.72774803348E+00  0.99163978614E+01  0.51100000000E-03 0. -1.
        -11    1    3    3    0    0  0.10249608910E+02 -0.15799986422E+01 -0.37346608906E+02  0.38759773936E+02  0.51100000000E-03 0.  1.
         12    1    3    3    0    0 -0.95622325116E+01  0.10814950379E+02  0.38728419235E+02  0.41331463787E+02  0.00000000000E+00 0. -1.
</event>
<event>
 7    1  0.3009093E-015  0.9000777E+02  0.7816164E-02  0.1186339E+00
        -11   -1    0    0    0    0  0.00000000000E+00  0.00000000000E+00  0.45593999997E+02  0.45594000000E+02  0.51100000000E-03 0.  1.
         11   -1    0    0    0    0 -0.00000000000E+00 -0.00000000000E+00 -0.45593999997E+02  0.45594000000E+02  0.51100000000E-03 0. -1.
    9900012    2    1    2    0    0 -0.71060711866E+00 -0.39526003043E+00 -0.85542099971E+00  0.90007772032E+02  0.90000033823E+02 0.  0.
        -12    1    1    2    0    0  0.71060711866E+00  0.39526003043E+00  0.85542099971E+00  0.11802279676E+01  0.00000000000E+00 0.  1.
         11    1    3    3    0    0  0.50983833167E+00  0.27722173226E+01  0.87023287992E+01  0.91474395761E+01  0.51100000000E-03 0. -1.
        -11    1    3    3    0    0  0.20944999644E+02 -0.23584825093E+02  0.21038377791E+02  0.37915040882E+02  0.51100000000E-03 0.  1.
         12    1    3    3    0    0 -0.22165445094E+02  0.20417347739E+02 -0.30596127590E+02  0.42945291575E+02  0.00000000000E+00 0. -1.
</event>
<event>
 7    1  0.2641103E-015  0.9000761E+02  0.7816164E-02  0.1186339E+00
        -11   -1    0    0    0    0  0.00000000000E+00  0.00000000000E+00  0.45593999997E+02  0.45594000000E+02  0.51100000000E-03 0.  1.
         11   -1    0    0    0    0 -0.00000000000E+00 -0.00000000000E+00 -0.45593999997E+02  0.45594000000E+02  0.51100000000E-03 0. -1.
    9900012    2    1    2    0    0  0.73780123980E+00  0.62435094883E+00 -0.67760440690E+00  0.90007613407E+02  0.89999873104E+02 0.  0.
        -12    1    1    2    0    0 -0.73780123980E+00 -0.62435094883E+00  0.67760440690E+00  0.11803865930E+01  0.00000000000E+00 0.  1.
         11    1    3    3    0    0 -0.83987025858E+01 -0.36063092067E+01  0.21877342447E+01  0.93983962784E+01  0.51100000000E-03 0. -1.
        -11    1    3    3    0    0  0.27569270973E+02  0.18318683307E+02  0.27053242532E+02  0.42749465398E+02  0.51100000000E-03 0.  1.
         12    1    3    3    0    0 -0.18432767147E+02 -0.14088023151E+02 -0.29918581184E+02  0.37859751730E+02  0.00000000000E+00 0. -1.
</event>
<event>
 7    1  0.2641103E-015  0.9000776E+02  0.7816164E-02  0.1186339E+00
        -11   -1    0    0    0    0  0.00000000000E+00  0.00000000000E+00  0.45593999997E+02  0.45594000000E+02  0.51100000000E-03 0. -1.
         11   -1    0    0    0    0 -0.00000000000E+00 -0.00000000000E+00 -0.45593999997E+02  0.45594000000E+02  0.51100000000E-03 0.  1.
    9900012    2    1    2    0    0  0.97729813834E+00 -0.91354212615E-01  0.65536104128E+00  0.90007764711E+02  0.90000026405E+02 0.  0.
        -12    1    1    2    0    0 -0.97729813834E+00  0.91354212615E-01 -0.65536104128E+00  0.11802352892E+01  0.00000000000E+00 0.  1.
         11    1    3    3    0    0  0.21031648142E+01  0.59268532235E+01  0.87559617123E+01  0.10780433996E+02  0.51100000000E-03 0. -1.
        -11    1    3    3    0    0 -0.27934589614E+02 -0.25087395620E+02  0.13467775888E+02  0.39888591145E+02  0.51100000000E-03 0.  1.
         12    1    3    3    0    0  0.26808722938E+02  0.19069188184E+02 -0.21568376559E+02  0.39338739570E+02  0.00000000000E+00 0. -1.
</event>
<event>
 7    1  0.2641103E-015  0.9000771E+02  0.7816164E-02  0.1186339E+00
        -11   -1    0    0    0    0  0.00000000000E+00  0.00000000000E+00  0.45593999997E+02  0.45594000000E+02  0.51100000000E-03 0.  1.
         11   -1    0    0    0    0 -0.00000000000E+00 -0.00000000000E+00 -0.45593999997E+02  0.45594000000E+02  0.51100000000E-03 0. -1.
    9900012    2    1    2    0    0  0.62801179349E+00  0.99569106678E+00 -0.85352640075E-01  0.90007709957E+02  0.89999970928E+02 0.  0.
        -12    1    1    2    0    0 -0.62801179349E+00 -0.99569106678E+00  0.85352640075E-01  0.11802900433E+01  0.00000000000E+00 0.  1.
         11    1    3    3    0    0  0.12922397538E+02  0.72308794299E+01  0.19404119003E+02  0.24408887930E+02  0.51100000000E-03 0. -1.
        -11    1    3    3    0    0  0.18896077700E+02 -0.93377065320E+01  0.93013961615E+01  0.23038456687E+02  0.51100000000E-03 0.  1.
        -12    1    3    3    0    0 -0.31190463445E+02  0.31025181688E+01 -0.28790867804E+02  0.42560365339E+02  0.00000000000E+00 0.  1.
</event>
<event>
 7    1  0.2641103E-015  0.9000773E+02  0.7816164E-02  0.1186339E+00
        -11   -1    0    0    0    0  0.00000000000E+00  0.00000000000E+00  0.45593999997E+02  0.45594000000E+02  0.51100000000E-03 0. -1.
         11   -1    0    0    0    0 -0.00000000000E+00 -0.00000000000E+00 -0.45593999997E+02  0.45594000000E+02  0.51100000000E-03 0.  1.
    9900012    2    1    2    0    0  0.66154399460E-01  0.11114538329E+01 -0.39157783680E+00  0.90007729171E+02  0.89999990396E+02 0.  0.
        -12    1    1    2    0    0 -0.66154399460E-01 -0.11114538329E+01  0.39157783680E+00  0.11802708289E+01  0.00000000000E+00 0.  1.
         11    1    3    3    0    0  0.49267688583E+01 -0.35659167955E+02  0.22792916238E+01  0.36069994194E+02  0.51100000000E-03 0. -1.
        -11    1    3    3    0    0 -0.53952271324E+01 -0.56744701517E+01 -0.79545852660E+01  0.11161698541E+02  0.51100000000E-03 0.  1.
        -12    1    3    3    0    0  0.53461267356E+00  0.42445091939E+02  0.52837158054E+01  0.42776036436E+02  0.00000000000E+00 0.  1.
</event>
<event>
 7    1  0.2641103E-015  0.9000771E+02  0.7816164E-02  0.1186339E+00
        -11   -1    0    0    0    0  0.00000000000E+00  0.00000000000E+00  0.45593999997E+02  0.45594000000E+02  0.51100000000E-03 0.  1.
         11   -1    0    0    0    0 -0.00000000000E+00 -0.00000000000E+00 -0.45593999997E+02  0.45594000000E+02  0.51100000000E-03 0. -1.
    9900012    2    1    2    0    0 -0.83749302094E+00  0.71851278024E+00 -0.41883704864E+00  0.90007712048E+02  0.89999973047E+02 0.  0.
        -12    1    1    2    0    0  0.83749302094E+00 -0.71851278024E+00  0.41883704864E+00  0.11802879517E+01  0.00000000000E+00 0.  1.
         11    1    3    3    0    0 -0.82677478451E+01  0.26559196404E+02 -0.30900113271E+02  0.41575997504E+02  0.51100000000E-03 0. -1.
        -11    1    3    3    0    0 -0.12865411499E+01  0.15897521138E+01 -0.34048476483E+01  0.39718368147E+01  0.51100000000E-03 0.  1.
        -12    1    3    3    0    0  0.87167959740E+01 -0.27430435737E+02  0.33886123870E+02  0.44459877730E+02  0.00000000000E+00 0.  1.
</event>
<event>
 7    1  0.2641103E-015  0.9000777E+02  0.7816164E-02  0.1186339E+00
        -11   -1    0    0    0    0  0.00000000000E+00  0.00000000000E+00  0.45593999997E+02  0.45594000000E+02  0.51100000000E-03 0.  1.
         11   -1    0    0    0    0 -0.00000000000E+00 -0.00000000000E+00 -0.45593999997E+02  0.45594000000E+02  0.51100000000E-03 0. -1.
    9900012    2    1    2    0    0  0.16492731960E+00  0.11670551369E+01  0.61007363360E-01  0.90007770949E+02  0.90000032726E+02 0.  0.
        -12    1    1    2    0    0 -0.16492731960E+00 -0.11670551369E+01 -0.61007363360E-01  0.11802290505E+01  0.00000000000E+00 0.  1.
         11    1    3    3    0    0  0.23379358781E+02  0.14135910591E+02 -0.28750966573E+02  0.39661523727E+02  0.51100000000E-03 0. -1.
        -11    1    3    3    0    0  0.78775677863E+01 -0.14929116061E+01  0.41012597924E+01  0.90058420726E+01  0.51100000000E-03 0.  1.
        -12    1    3    3    0    0 -0.31091999247E+02 -0.11475943848E+02  0.24710714144E+02  0.41340405149E+02  0.00000000000E+00 0.  1.
</event>
<event>
 7    1  0.2641103E-015  0.9000797E+02  0.7816164E-02  0.1186339E+00
        -11   -1    0    0    0    0  0.00000000000E+00  0.00000000000E+00  0.45593999997E+02  0.45594000000E+02  0.51100000000E-03 0.  1.
         11   -1    0    0    0    0 -0.00000000000E+00 -0.00000000000E+00 -0.45593999997E+02  0.45594000000E+02  0.51100000000E-03 0. -1.
    9900012    2    1    2    0    0 -0.85498566074E+00 -0.32400537446E+00 -0.74597850238E+00  0.90007972929E+02  0.90000237371E+02 0.  0.
        -12    1    1    2    0    0  0.85498566074E+00  0.32400537446E+00  0.74597850238E+00  0.11800270712E+01  0.00000000000E+00 0.  1.
         11    1    3    3    0    0  0.12194552822E+02 -0.23356223179E+01 -0.33198757058E+02  0.35444600725E+02  0.51100000000E-03 0. -1.
        -11    1    3    3    0    0  0.19332341727E+01  0.42129469215E+01 -0.91680076283E+01  0.10273202045E+02  0.51100000000E-03 0.  1.
        -12    1    3    3    0    0 -0.14982772655E+02 -0.22013299781E+01  0.41620786183E+02  0.44290170158E+02  0.00000000000E+00 0.  1.
</event>
<event>
 7    1  0.2641103E-015  0.9000765E+02  0.7816164E-02  0.1186339E+00
        -11   -1    0    0    0    0  0.00000000000E+00  0.00000000000E+00  0.45593999997E+02  0.45594000000E+02  0.51100000000E-03 0.  1.
         11   -1    0    0    0    0 -0.00000000000E+00 -0.00000000000E+00 -0.45593999997E+02  0.45594000000E+02  0.51100000000E-03 0. -1.
    9900012    2    1    2    0    0 -0.58178696337E-01 -0.63318262025E+00  0.99444349557E+00  0.90007651383E+02  0.89999911581E+02 0.  0.
        -12    1    1    2    0    0  0.58178696337E-01  0.63318262025E+00 -0.99444349557E+00  0.11803486168E+01  0.00000000000E+00 0.  1.
         11    1    3    3    0    0 -0.33800698097E+01  0.34570963009E+01 -0.79793557817E+01  0.93298716874E+01  0.51100000000E-03 0. -1.
        -11    1    3    3    0    0  0.12763048828E+02  0.33625298709E+02  0.18789800586E+02  0.40578476252E+02  0.51100000000E-03 0.  1.
         12    1    3    3    0    0 -0.94411577145E+01 -0.37715577630E+02 -0.98160013088E+01  0.40099303443E+02  0.00000000000E+00 0. -1.
</event>
<event>
 7    1  0.2641103E-015  0.9000739E+02  0.7816164E-02  0.1186340E+00
        -11   -1    0    0    0    0  0.00000000000E+00  0.00000000000E+00  0.45593999997E+02  0.45594000000E+02  0.51100000000E-03 0.  1.
         11   -1    0    0    0    0 -0.00000000000E+00 -0.00000000000E+00 -0.45593999997E+02  0.45594000000E+02  0.51100000000E-03 0. -1.
    9900012    2    1    2    0    0  0.11457333709E+01 -0.11603488068E-01 -0.28459531025E+00  0.90007392492E+02  0.89999649272E+02 0.  0.
        -12    1    1    2    0    0 -0.11457333709E+01  0.11603488068E-01  0.28459531025E+00  0.11806075084E+01  0.00000000000E+00 0.  1.
         11    1    3    3    0    0 -0.20022921304E+02 -0.16567135187E+02 -0.22140942774E+02  0.34141011892E+02  0.51100000000E-03 0. -1.
        -11    1    3    3    0    0 -0.81783298224E+01 -0.12097466831E+01 -0.71588518373E+01  0.10936074507E+02  0.51100000000E-03 0.  1.
        -12    1    3    3    0    0  0.29346984498E+02  0.17765278382E+02  0.29015199301E+02  0.44930306093E+02  0.00000000000E+00 0.  1.
</event>
<event>
 7    1  0.2641103E-015  0.9000775E+02  0.7816164E-02  0.1186339E+00
        -11   -1    0    0    0    0  0.00000000000E+00  0.00000000000E+00  0.45593999997E+02  0.45594000000E+02  0.51100000000E-03 0. -1.
         11   -1    0    0    0    0 -0.00000000000E+00 -0.00000000000E+00 -0.45593999997E+02  0.45594000000E+02  0.51100000000E-03 0.  1.
    9900012    2    1    2    0    0 -0.10851405281E+01 -0.46418289072E+00 -0.13486462178E-03  0.90007747595E+02  0.90000009063E+02 0.  0.
        -12    1    1    2    0    0  0.10851405281E+01  0.46418289072E+00  0.13486462178E-03  0.11802524052E+01  0.00000000000E+00 0.  1.
         11    1    3    3    0    0 -0.13527282238E+02 -0.26583754546E+02  0.11493944244E+01  0.29849698128E+02  0.51100000000E-03 0. -1.
        -11    1    3    3    0    0 -0.10639362599E+02 -0.11509984433E+02 -0.30695575257E+01  0.15971786432E+02  0.51100000000E-03 0.  1.
        -12    1    3    3    0    0  0.23081504309E+02  0.37629556088E+02  0.19200282367E+01  0.44186263035E+02  0.00000000000E+00 0.  1.
</event>
<event>
 7    1  0.3411363E-015  0.9000778E+02  0.7816164E-02  0.1186339E+00
        -11   -1    0    0    0    0  0.00000000000E+00  0.00000000000E+00  0.45593999997E+02  0.45594000000E+02  0.51100000000E-03 0.  1.
         11   -1    0    0    0    0 -0.00000000000E+00 -0.00000000000E+00 -0.45593999997E+02  0.45594000000E+02  0.51100000000E-03 0. -1.
    9900012    2    1    2    0    0 -0.66913253784E+00 -0.97047485823E+00  0.58052398785E-01  0.90007775494E+02  0.90000037330E+02 0.  0.
        -12    1    1    2    0    0  0.66913253784E+00  0.97047485823E+00 -0.58052398785E-01  0.11802245060E+01  0.00000000000E+00 0.  1.
         11    1    3    3    0    0 -0.53625462555E+01 -0.44363115126E+01  0.64726492560E+01  0.95043648305E+01  0.51100000000E-03 0. -1.
        -11    1    3    3    0    0 -0.28943170948E+01  0.29040186159E+02  0.25607297889E+02  0.38825805710E+02  0.51100000000E-03 0.  1.
         12    1    3    3    0    0  0.75877308125E+01 -0.25574349505E+02 -0.32021894746E+02  0.41677604953E+02  0.00000000000E+00 0. -1.
</event>
<event>
 7    1  0.2641103E-015  0.9000775E+02  0.7816164E-02  0.1186339E+00
        -11   -1    0    0    0    0  0.00000000000E+00  0.00000000000E+00  0.45593999997E+02  0.45594000000E+02  0.51100000000E-03 0. -1.
         11   -1    0    0    0    0 -0.00000000000E+00 -0.00000000000E+00 -0.45593999997E+02  0.45594000000E+02  0.51100000000E-03 0.  1.
    9900012    2    1    2    0    0 -0.11695392816E+01 -0.14861819168E+00  0.55549412956E-01  0.90007747809E+02  0.90000009280E+02 0.  0.
        -12    1    1    2    0    0  0.11695392816E+01  0.14861819168E+00 -0.55549412956E-01  0.11802521915E+01  0.00000000000E+00 0.  1.
         11    1    3    3    0    0  0.21603070508E+02  0.67749631616E+01  0.28804108849E+02  0.36636995893E+02  0.51100000000E-03 0. -1.
        -11    1    3    3    0    0  0.76091779818E+01  0.63564987995E+01 -0.69731965762E+00  0.99393622287E+01  0.51100000000E-03 0.  1.
        -12    1    3    3    0    0 -0.30381787771E+02 -0.13280080153E+02 -0.28051239778E+02  0.43431389687E+02  0.00000000000E+00 0.  1.
</event>
<event>
 7    1  0.2641103E-015  0.9000773E+02  0.7816164E-02  0.1186339E+00
        -11   -1    0    0    0    0  0.00000000000E+00  0.00000000000E+00  0.45593999997E+02  0.45594000000E+02  0.51100000000E-03 0. -1.
         11   -1    0    0    0    0 -0.00000000000E+00 -0.00000000000E+00 -0.45593999997E+02  0.45594000000E+02  0.51100000000E-03 0.  1.
    9900012    2    1    2    0    0 -0.99589504022E+00  0.21691712413E+00  0.59512458723E+00  0.90007731707E+02  0.89999992965E+02 0.  0.
        -12    1    1    2    0    0  0.99589504022E+00 -0.21691712413E+00 -0.59512458723E+00  0.11802682933E+01  0.00000000000E+00 0.  1.
         11    1    3    3    0    0  0.13270423188E+02 -0.24536699498E+02  0.24964499693E+02  0.37435010338E+02  0.51100000000E-03 0. -1.
        -11    1    3    3    0    0 -0.42574603567E+01 -0.14868499440E+01  0.83275407484E+01  0.94701967573E+01  0.51100000000E-03 0.  1.
        -12    1    3    3    0    0 -0.10008857872E+02  0.26240466566E+02 -0.32696915854E+02  0.43102524611E+02  0.00000000000E+00 0.  1.
</event>
<event>
 7    1  0.2641103E-015  0.9000773E+02  0.7816164E-02  0.1186339E+00
        -11   -1    0    0    0    0  0.00000000000E+00  0.00000000000E+00  0.45593999997E+02  0.45594000000E+02  0.51100000000E-03 0. -1.
         11   -1    0    0    0    0 -0.00000000000E+00 -0.00000000000E+00 -0.45593999997E+02  0.45594000000E+02  0.51100000000E-03 0.  1.
    9900012    2    1    2    0    0 -0.88808419539E+00  0.14521624347E-02  0.77739150937E+00  0.90007731723E+02  0.89999992982E+02 0.  0.
        -12    1    1    2    0    0  0.88808419539E+00 -0.14521624347E-02 -0.77739150937E+00  0.11802682770E+01  0.00000000000E+00 0.  1.
         11    1    3    3    0    0 -0.16000031723E+02 -0.30369538646E+02 -0.14150857500E+01  0.34355674359E+02  0.51100000000E-03 0. -1.
        -11    1    3    3    0    0 -0.24951018561E+01 -0.10300480563E+02  0.39181498366E+01  0.11299439433E+02  0.51100000000E-03 0.  1.
        -12    1    3    3    0    0  0.17607049384E+02  0.40671471371E+02 -0.17256725772E+01  0.44352617931E+02  0.00000000000E+00 0.  1.
</event>
<event>
 7    1  0.2641103E-015  0.9000774E+02  0.7816164E-02  0.1186339E+00
        -11   -1    0    0    0    0  0.00000000000E+00  0.00000000000E+00  0.45593999997E+02  0.45594000000E+02  0.51100000000E-03 0.  1.
         11   -1    0    0    0    0 -0.00000000000E+00 -0.00000000000E+00 -0.45593999997E+02  0.45594000000E+02  0.51100000000E-03 0. -1.
    9900012    2    1    2    0    0 -0.50647693979E+00 -0.44482809001E+00 -0.96882082678E+00  0.90007743793E+02  0.90000005211E+02 0.  0.
        -12    1    1    2    0    0  0.50647693979E+00  0.44482809001E+00  0.96882082678E+00  0.11802562072E+01  0.00000000000E+00 0.  1.
         11    1    3    3    0    0  0.44974377165E+01  0.42574545083E+01  0.10875299879E+02  0.12514991515E+02  0.51100000000E-03 0. -1.
        -11    1    3    3    0    0 -0.35975872054E+02  0.15421673801E+02 -0.16521023847E+01  0.39176789499E+02  0.51100000000E-03 0.  1.
         12    1    3    3    0    0  0.30971957398E+02 -0.20123956400E+02 -0.10192018321E+02  0.38315962779E+02  0.00000000000E+00 0. -1.
</event>
<event>
 7    1  0.2641103E-015  0.9000774E+02  0.7816164E-02  0.1186339E+00
        -11   -1    0    0    0    0  0.00000000000E+00  0.00000000000E+00  0.45593999997E+02  0.45594000000E+02  0.51100000000E-03 0.  1.
         11   -1    0    0    0    0 -0.00000000000E+00 -0.00000000000E+00 -0.45593999997E+02  0.45594000000E+02  0.51100000000E-03 0. -1.
    9900012    2    1    2    0    0 -0.10986189577E+01 -0.80153058155E-01 -0.42381583176E+00  0.90007742407E+02  0.90000003807E+02 0.  0.
        -12    1    1    2    0    0  0.10986189577E+01  0.80153058155E-01  0.42381583176E+00  0.11802575932E+01  0.00000000000E+00 0.  1.
         11    1    3    3    0    0 -0.35105671344E+01  0.33279877588E+02 -0.22430434070E+02  0.40286458105E+02  0.51100000000E-03 0. -1.
        -11    1    3    3    0    0  0.13679526136E+01 -0.38637139413E+01 -0.71449547381E+01  0.82371086094E+01  0.51100000000E-03 0.  1.
        -12    1    3    3    0    0  0.10439955631E+01 -0.29496316705E+02  0.29151572976E+02  0.41484175692E+02  0.00000000000E+00 0.  1.
</event>
<event>
 7    1  0.2641103E-015  0.9000771E+02  0.7816164E-02  0.1186339E+00
        -11   -1    0    0    0    0  0.00000000000E+00  0.00000000000E+00  0.45593999997E+02  0.45594000000E+02  0.51100000000E-03 0. -1.
         11   -1    0    0    0    0 -0.00000000000E+00 -0.00000000000E+00 -0.45593999997E+02  0.45594000000E+02  0.51100000000E-03 0.  1.
    9900012    2    1    2    0    0 -0.58224747831E+00 -0.22652470569E+00  0.10013832039E+01  0.90007706016E+02  0.89999966935E+02 0.  0.
        -12    1    1    2    0    0  0.58224747831E+00  0.22652470569E+00 -0.10013832039E+01  0.11802939843E+01  0.00000000000E+00 0.  1.
         11    1    3    3    0    0 -0.48622704701E+01 -0.89820896338E+01  0.13501996621E+01  0.10302555397E+02  0.51100000000E-03 0. -1.
        -11    1    3    3    0    0  0.15894320626E+02 -0.32851758216E+02  0.52057606459E+00  0.36498471828E+02  0.51100000000E-03 0.  1.
         12    1    3    3    0    0 -0.11614297635E+02  0.41607323144E+02 -0.86939252275E+00  0.43206678791E+02  0.00000000000E+00 0. -1.
</event>
<event>
 7    1  0.3328987E-015  0.9000771E+02  0.7816164E-02  0.1186339E+00
        -11   -1    0    0    0    0  0.00000000000E+00  0.00000000000E+00  0.45593999997E+02  0.45594000000E+02  0.51100000000E-03 0.  1.
         11   -1    0    0    0    0 -0.00000000000E+00 -0.00000000000E+00 -0.45593999997E+02  0.45594000000E+02  0.51100000000E-03 0. -1.
    9900012    2    1    2    0    0 -0.62008913554E+00 -0.99022831250E+00  0.16742330415E+00  0.90007706304E+02  0.89999967227E+02 0.  0.
        -12    1    1    2    0    0  0.62008913554E+00  0.99022831250E+00 -0.16742330415E+00  0.11802936964E+01  0.00000000000E+00 0.  1.
         11    1    3    3    0    0 -0.22708099393E+01 -0.76841039037E+01 -0.55732741391E+01  0.97602979193E+01  0.51100000000E-03 0. -1.
        -11    1    3    3    0    0 -0.35413923275E+02 -0.12373601371E+02 -0.30907713144E+01  0.37640468119E+02  0.51100000000E-03 0.  1.
         12    1    3    3    0    0  0.37064644079E+02  0.19067476963E+02  0.88314687577E+01  0.42606940266E+02  0.00000000000E+00 0. -1.
</event>
<event>
 7    1  0.2641103E-015  0.9000702E+02  0.7816164E-02  0.1186340E+00
        -11   -1    0    0    0    0  0.00000000000E+00  0.00000000000E+00  0.45593999997E+02  0.45594000000E+02  0.51100000000E-03 0.  1.
         11   -1    0    0    0    0 -0.00000000000E+00 -0.00000000000E+00 -0.45593999997E+02  0.45594000000E+02  0.51100000000E-03 0. -1.
    9900012    2    1    2    0    0 -0.65266830386E+00 -0.34672999474E-01 -0.98362809730E+00  0.90007024824E+02  0.89999276749E+02 0.  0.
        -12    1    1    2    0    0  0.65266830386E+00  0.34672999474E-01  0.98362809730E+00  0.11809751757E+01  0.00000000000E+00 0.  1.
         11    1    3    3    0    0  0.12243360394E+02 -0.34612632911E+02 -0.63478544552E+01  0.37258951772E+02  0.51100000000E-03 0. -1.
        -11    1    3    3    0    0  0.10025982858E+01 -0.72528122667E+01  0.46295692934E+01  0.86626440076E+01  0.51100000000E-03 0.  1.
        -12    1    3    3    0    0 -0.13898626983E+02  0.41830772178E+02  0.73465706446E+00  0.44085429044E+02  0.00000000000E+00 0.  1.
</event>
<event>
 7    1  0.2641103E-015  0.9000769E+02  0.7816164E-02  0.1186339E+00
        -11   -1    0    0    0    0  0.00000000000E+00  0.00000000000E+00  0.45593999997E+02  0.45594000000E+02  0.51100000000E-03 0.  1.
         11   -1    0    0    0    0 -0.00000000000E+00 -0.00000000000E+00 -0.45593999997E+02  0.45594000000E+02  0.51100000000E-03 0. -1.
    9900012    2    1    2    0    0  0.11756075710E+00 -0.11698054428E+01 -0.10423820192E+00  0.90007690334E+02  0.89999951046E+02 0.  0.
        -12    1    1    2    0    0 -0.11756075710E+00  0.11698054428E+01  0.10423820192E+00  0.11803096663E+01  0.00000000000E+00 0.  1.
         11    1    3    3    0    0  0.22163118030E+02  0.27176430451E+02 -0.61355520602E+01  0.35600662525E+02  0.51100000000E-03 0. -1.
        -11    1    3    3    0    0 -0.35644148349E+01  0.10474494502E+02  0.77344360082E+00  0.11091361659E+02  0.51100000000E-03 0.  1.
        -12    1    3    3    0    0 -0.18481142438E+02 -0.38820730396E+02  0.52578702575E+01  0.43315666149E+02  0.00000000000E+00 0.  1.
</event>
<event>
 7    1  0.2641103E-015  0.9000778E+02  0.7816164E-02  0.1186339E+00
        -11   -1    0    0    0    0  0.00000000000E+00  0.00000000000E+00  0.45593999997E+02  0.45594000000E+02  0.51100000000E-03 0.  1.
         11   -1    0    0    0    0 -0.00000000000E+00 -0.00000000000E+00 -0.45593999997E+02  0.45594000000E+02  0.51100000000E-03 0. -1.
    9900012    2    1    2    0    0 -0.44774816376E+00  0.54784013922E+00 -0.94462540419E+00  0.90007777822E+02  0.90000039689E+02 0.  0.
        -12    1    1    2    0    0  0.44774816376E+00 -0.54784013922E+00  0.94462540419E+00  0.11802221785E+01  0.00000000000E+00 0.  1.
         11    1    3    3    0    0 -0.64951294654E+01  0.42662880651E+01  0.52570870968E+01  0.93821578344E+01  0.51100000000E-03 0. -1.
        -11    1    3    3    0    0 -0.27991560665E+02  0.23009495738E+02  0.30713240536E+01  0.36364782335E+02  0.51100000000E-03 0.  1.
         12    1    3    3    0    0  0.34038941966E+02 -0.26727943664E+02 -0.92730365546E+01  0.44260837652E+02  0.00000000000E+00 0. -1.
</event>
<event>
 7    1  0.2641103E-015  0.9000771E+02  0.7816164E-02  0.1186339E+00
        -11   -1    0    0    0    0  0.00000000000E+00  0.00000000000E+00  0.45593999997E+02  0.45594000000E+02  0.51100000000E-03 0. -1.
         11   -1    0    0    0    0 -0.00000000000E+00 -0.00000000000E+00 -0.45593999997E+02  0.45594000000E+02  0.51100000000E-03 0.  1.
    9900012    2    1    2    0    0  0.18940431294E+00  0.95097742097E+00  0.67294083789E+00  0.90007711298E+02  0.89999972287E+02 0.  0.
        -12    1    1    2    0    0 -0.18940431294E+00 -0.95097742097E+00 -0.67294083789E+00  0.11802887021E+01  0.00000000000E+00 0.  1.
         11    1    3    3    0    0 -0.11342821289E+01  0.59326046331E+01 -0.57305403881E+01  0.83259526231E+01  0.51100000000E-03 0. -1.
        -11    1    3    3    0    0 -0.19039104302E+02  0.21167073786E+02 -0.23597217256E+02  0.36977846987E+02  0.51100000000E-03 0.  1.
         12    1    3    3    0    0  0.20362790744E+02 -0.26148700998E+02  0.30000698482E+02  0.44703911688E+02  0.00000000000E+00 0. -1.
</event>
<event>
 7    1  0.2641103E-015  0.9000774E+02  0.7816164E-02  0.1186339E+00
        -11   -1    0    0    0    0  0.00000000000E+00  0.00000000000E+00  0.45593999997E+02  0.45594000000E+02  0.51100000000E-03 0. -1.
         11   -1    0    0    0    0 -0.00000000000E+00 -0.00000000000E+00 -0.45593999997E+02  0.45594000000E+02  0.51100000000E-03 0.  1.
    9900012    2    1    2    0    0 -0.16959465761E+00  0.31260409783E+00  0.11254019705E+01  0.90007740171E+02  0.90000001541E+02 0.  0.
        -12    1    1    2    0    0  0.16959465761E+00 -0.31260409783E+00 -0.11254019705E+01  0.11802598295E+01  0.00000000000E+00 0.  1.
         11    1    3    3    0    0 -0.20105648361E+02 -0.29314769157E+02  0.21623379789E+01  0.35612757440E+02  0.51100000000E-03 0. -1.
        -11    1    3    3    0    0 -0.40177248979E+01 -0.84506645249E+01  0.63015522939E+00  0.93783228854E+01  0.51100000000E-03 0.  1.
        -12    1    3    3    0    0  0.23953778601E+02  0.38078037779E+02 -0.16670912378E+01  0.45016659845E+02  0.00000000000E+00 0.  1.
</event>
<event>
 7    1  0.2641103E-015  0.9000776E+02  0.7816164E-02  0.1186339E+00
        -11   -1    0    0    0    0  0.00000000000E+00  0.00000000000E+00  0.45593999997E+02  0.45594000000E+02  0.51100000000E-03 0.  1.
         11   -1    0    0    0    0 -0.00000000000E+00 -0.00000000000E+00 -0.45593999997E+02  0.45594000000E+02  0.51100000000E-03 0. -1.
    9900012    2    1    2    0    0 -0.10295542364E+01 -0.32091307032E+00 -0.47958369383E+00  0.90007759498E+02  0.90000021123E+02 0.  0.
        -12    1    1    2    0    0  0.10295542364E+01  0.32091307032E+00  0.47958369383E+00  0.11802405025E+01  0.00000000000E+00 0.  1.
         11    1    3    3    0    0  0.22025619471E+01 -0.21793604067E+02 -0.32660402427E+02  0.39325746583E+02  0.51100000000E-03 0. -1.
        -11    1    3    3    0    0  0.80431873398E+00 -0.84183459121E+01  0.38168787422E+01  0.92781485284E+01  0.51100000000E-03 0.  1.
        -12    1    3    3    0    0 -0.40364349175E+01  0.29891036909E+02  0.28363939991E+02  0.41403864386E+02  0.00000000000E+00 0.  1.
</event>
<event>
 7    1  0.2641103E-015  0.9000771E+02  0.7816164E-02  0.1186339E+00
        -11   -1    0    0    0    0  0.00000000000E+00  0.00000000000E+00  0.45593999997E+02  0.45594000000E+02  0.51100000000E-03 0.  1.
         11   -1    0    0    0    0 -0.00000000000E+00 -0.00000000000E+00 -0.45593999997E+02  0.45594000000E+02  0.51100000000E-03 0. -1.
    9900012    2    1    2    0    0  0.18596323855E+00 -0.55108672387E+00 -0.10270316327E+01  0.90007714917E+02  0.89999975954E+02 0.  0.
        -12    1    1    2    0    0 -0.18596323855E+00  0.55108672387E+00  0.10270316327E+01  0.11802850833E+01  0.00000000000E+00 0.  1.
         11    1    3    3    0    0  0.19492119779E+01  0.33233227320E+02 -0.20563827067E+02  0.39129500500E+02  0.51100000000E-03 0. -1.
        -11    1    3    3    0    0  0.70189548309E+01  0.33533071674E+01  0.76442557680E+01  0.10906192846E+02  0.51100000000E-03 0.  1.
        -12    1    3    3    0    0 -0.87822035703E+01 -0.37137621211E+02  0.11892539666E+02  0.39972021571E+02  0.00000000000E+00 0.  1.
</event>
<event>
 7    1  0.2641103E-015  0.9000798E+02  0.7816164E-02  0.1186339E+00
        -11   -1    0    0    0    0  0.00000000000E+00  0.00000000000E+00  0.45593999997E+02  0.45594000000E+02  0.51100000000E-03 0. -1.
         11   -1    0    0    0    0 -0.00000000000E+00 -0.00000000000E+00 -0.45593999997E+02  0.45594000000E+02  0.51100000000E-03 0.  1.
    9900012    2    1    2    0    0  0.20097940916E+00 -0.51938690167E+00  0.10403377907E+01  0.90007975341E+02  0.90000239815E+02 0.  0.
        -12    1    1    2    0    0 -0.20097940916E+00  0.51938690167E+00 -0.10403377907E+01  0.11800246587E+01  0.00000000000E+00 0.  1.
         11    1    3    3    0    0  0.30353373899E+01  0.80689198017E+01  0.13342660659E+01  0.87235890568E+01  0.51100000000E-03 0. -1.
        -11    1    3    3    0    0  0.20642537870E+02 -0.37448137369E+02 -0.74352112877E+01  0.43402300968E+02  0.51100000000E-03 0.  1.
         12    1    3    3    0    0 -0.23476895851E+02  0.28859830666E+02  0.71412830125E+01  0.37882085317E+02  0.00000000000E+00 0. -1.
</event>
<event>
 7    1  0.2641103E-015  0.9000759E+02  0.7816164E-02  0.1186339E+00
        -11   -1    0    0    0    0  0.00000000000E+00  0.00000000000E+00  0.45593999997E+02  0.45594000000E+02  0.51100000000E-03 0.  1.
         11   -1    0    0    0    0 -0.00000000000E+00 -0.00000000000E+00 -0.45593999997E+02  0.45594000000E+02  0.51100000000E-03 0. -1.
    9900012    2    1    2    0    0  0.69149216219E+00 -0.66569196536E+00 -0.68707199404E+00  0.90007586882E+02  0.89999846229E+02 0.  0.
        -12    1    1    2    0    0 -0.69149216219E+00  0.66569196536E+00  0.68707199404E+00  0.11804131176E+01  0.00000000000E+00 0.  1.
         11    1    3    3    0    0  0.30346265550E+02  0.95275799183E+01 -0.31826090994E+02  0.44995229527E+02  0.51100000000E-03 0. -1.
        -11    1    3    3    0    0 -0.35508720450E+01 -0.24462703890E+01  0.87716283663E+01  0.97741698140E+01  0.51100000000E-03 0.  1.
        -12    1    3    3    0    0 -0.26103901343E+02 -0.77470014947E+01  0.22367390634E+02  0.35238187542E+02  0.00000000000E+00 0.  1.
</event>
<event>
 7    1  0.2641103E-015  0.9000775E+02  0.7816164E-02  0.1186339E+00
        -11   -1    0    0    0    0  0.00000000000E+00  0.00000000000E+00  0.45593999997E+02  0.45594000000E+02  0.51100000000E-03 0. -1.
         11   -1    0    0    0    0 -0.00000000000E+00 -0.00000000000E+00 -0.45593999997E+02  0.45594000000E+02  0.51100000000E-03 0.  1.
    9900012    2    1    2    0    0 -0.73241982310E-01  0.56484044780E+00  0.10337177604E+01  0.90007753616E+02  0.90000015163E+02 0.  0.
        -12    1    1    2    0    0  0.73241982310E-01 -0.56484044780E+00 -0.10337177604E+01  0.11802463843E+01  0.00000000000E+00 0.  1.
         11    1    3    3    0    0 -0.25893860943E+02  0.58692911976E+01  0.33782714207E+02  0.42967573740E+02  0.51100000000E-03 0. -1.
        -11    1    3    3    0    0  0.10273665864E+02 -0.22559444870E+01  0.15619957378E+00  0.10519595732E+02  0.51100000000E-03 0.  1.
        -12    1    3    3    0    0  0.15546953097E+02 -0.30485062628E+01 -0.32905196020E+02  0.36520584143E+02  0.00000000000E+00 0.  1.
</event>
<event>
 7    1  0.2641103E-015  0.9000770E+02  0.7816164E-02  0.1186339E+00
        -11   -1    0    0    0    0  0.00000000000E+00  0.00000000000E+00  0.45593999997E+02  0.45594000000E+02  0.51100000000E-03 0. -1.
         11   -1    0    0    0    0 -0.00000000000E+00 -0.00000000000E+00 -0.45593999997E+02  0.45594000000E+02  0.51100000000E-03 0.  1.
    9900012    2    1    2    0    0 -0.12100745445E+00  0.14550450544E+00  0.11650304143E+01  0.90007699093E+02  0.89999959921E+02 0.  0.
        -12    1    1    2    0    0  0.12100745445E+00 -0.14550450544E+00 -0.11650304143E+01  0.11803009071E+01  0.00000000000E+00 0.  1.
         11    1    3    3    0    0 -0.46739563886E+01  0.12188885494E+01  0.64696799613E+01  0.80739282063E+01  0.51100000000E-03 0. -1.
        -11    1    3    3    0    0 -0.36697449365E+02 -0.12803707948E+02 -0.19114891787E+01  0.38913898780E+02  0.51100000000E-03 0.  1.
         12    1    3    3    0    0  0.41250398299E+02  0.11730323904E+02 -0.33931603682E+01  0.43019872106E+02  0.00000000000E+00 0. -1.
</event>
<event>
 7    1  0.2641103E-015  0.9000754E+02  0.7816164E-02  0.1186339E+00
        -11   -1    0    0    0    0  0.00000000000E+00  0.00000000000E+00  0.45593999997E+02  0.45594000000E+02  0.51100000000E-03 0.  1.
         11   -1    0    0    0    0 -0.00000000000E+00 -0.00000000000E+00 -0.45593999997E+02  0.45594000000E+02  0.51100000000E-03 0. -1.
    9900012    2    1    2    0    0  0.10441374208E+01 -0.37674164428E+00 -0.40164741179E+00  0.90007543367E+02  0.89999802139E+02 0.  0.
        -12    1    1    2    0    0 -0.10441374208E+01  0.37674164428E+00  0.40164741179E+00  0.11804566335E+01  0.00000000000E+00 0.  1.
         11    1    3    3    0    0  0.24500127215E+02 -0.20764245477E+02 -0.21649185392E+02  0.38731090253E+02  0.51100000000E-03 0. -1.
        -11    1    3    3    0    0 -0.56593524162E+01 -0.36930131782E+01 -0.72703675396E+01  0.99259689969E+01  0.51100000000E-03 0.  1.
        -12    1    3    3    0    0 -0.17796637378E+02  0.24080517011E+02  0.28517905520E+02  0.41350484117E+02  0.00000000000E+00 0.  1.
</event>
<event>
 7    1  0.2641103E-015  0.9000781E+02  0.7816164E-02  0.1186339E+00
        -11   -1    0    0    0    0  0.00000000000E+00  0.00000000000E+00  0.45593999997E+02  0.45594000000E+02  0.51100000000E-03 0.  1.
         11   -1    0    0    0    0 -0.00000000000E+00 -0.00000000000E+00 -0.45593999997E+02  0.45594000000E+02  0.51100000000E-03 0. -1.
    9900012    2    1    2    0    0 -0.26931994617E+00  0.19320607034E+00 -0.11326891849E+01  0.90007810774E+02  0.90000073076E+02 0.  0.
        -12    1    1    2    0    0  0.26931994617E+00 -0.19320607034E+00  0.11326891849E+01  0.11801892257E+01  0.00000000000E+00 0.  1.
         11    1    3    3    0    0 -0.27424395704E+01 -0.95187120213E+01  0.20824972905E+01  0.10122432937E+02  0.51100000000E-03 0. -1.
        -11    1    3    3    0    0 -0.34491284157E+02 -0.65250972035E+01 -0.14476362644E+02  0.37970918503E+02  0.51100000000E-03 0.  1.
         12    1    3    3    0    0  0.36964403781E+02  0.16237015295E+02  0.11261176169E+02  0.41914459334E+02  0.00000000000E+00 0. -1.
</event>
<event>
 7    1  0.2641103E-015  0.9000779E+02  0.7816164E-02  0.1186339E+00
        -11   -1    0    0    0    0  0.00000000000E+00  0.00000000000E+00  0.45593999997E+02  0.45594000000E+02  0.51100000000E-03 0.  1.
         11   -1    0    0    0    0 -0.00000000000E+00 -0.00000000000E+00 -0.45593999997E+02  0.45594000000E+02  0.51100000000E-03 0. -1.
    9900012    2    1    2    0    0  0.57702489912E+00 -0.25586675785E+00 -0.99723434689E+00  0.90007787360E+02  0.90000049354E+02 0.  0.
        -12    1    1    2    0    0 -0.57702489912E+00  0.25586675785E+00  0.99723434689E+00  0.11802126396E+01  0.00000000000E+00 0.  1.
         11    1    3    3    0    0 -0.10283208572E+02  0.28291170136E+02  0.17019893931E+02  0.34580507166E+02  0.51100000000E-03 0. -1.
        -11    1    3    3    0    0 -0.16584072111E+01  0.91465497736E+01  0.38801175421E+01  0.10072983651E+02  0.51100000000E-03 0.  1.
        -12    1    3    3    0    0  0.12518640682E+02 -0.37693586668E+02 -0.21897245820E+02  0.45354296543E+02  0.00000000000E+00 0.  1.
</event>
<event>
 7    1  0.2641103E-015  0.9000774E+02  0.7816164E-02  0.1186339E+00
        -11   -1    0    0    0    0  0.00000000000E+00  0.00000000000E+00  0.45593999997E+02  0.45594000000E+02  0.51100000000E-03 0.  1.
         11   -1    0    0    0    0 -0.00000000000E+00 -0.00000000000E+00 -0.45593999997E+02  0.45594000000E+02  0.51100000000E-03 0. -1.
    9900012    2    1    2    0    0 -0.57940512913E+00  0.79255460731E+00 -0.65509476097E+00  0.90007744835E+02  0.90000006267E+02 0.  0.
        -12    1    1    2    0    0  0.57940512913E+00 -0.79255460731E+00  0.65509476097E+00  0.11802551652E+01  0.00000000000E+00 0.  1.
         11    1    3    3    0    0 -0.31205977537E+02  0.22006798849E+02  0.57297833278E+01  0.38612726488E+02  0.51100000000E-03 0. -1.
        -11    1    3    3    0    0  0.73080795526E+01  0.88806267661E+01  0.35718190215E+01  0.12042900394E+02  0.51100000000E-03 0.  1.
        -12    1    3    3    0    0  0.23318492856E+02 -0.30094871008E+02 -0.99566971103E+01  0.39352117953E+02  0.00000000000E+00 0.  1.
</event>
<event>
 7    1  0.2641103E-015  0.9000774E+02  0.7816164E-02  0.1186339E+00
        -11   -1    0    0    0    0  0.00000000000E+00  0.00000000000E+00  0.45593999997E+02  0.45594000000E+02  0.51100000000E-03 0.  1.
         11   -1    0    0    0    0 -0.00000000000E+00 -0.00000000000E+00 -0.45593999997E+02  0.45594000000E+02  0.51100000000E-03 0. -1.
    9900012    2    1    2    0    0  0.94396432742E+00  0.18661577172E+00 -0.68345334352E+00  0.90007744701E+02  0.90000006131E+02 0.  0.
        -12    1    1    2    0    0 -0.94396432742E+00 -0.18661577172E+00  0.68345334352E+00  0.11802552989E+01  0.00000000000E+00 0.  1.
         11    1    3    3    0    0  0.13879678093E+02 -0.21932134423E+02  0.56311953821E+01  0.26558884503E+02  0.51100000000E-03 0. -1.
        -11    1    3    3    0    0  0.20142039423E+02  0.16579753206E+02  0.75485880433E+01  0.27158261177E+02  0.51100000000E-03 0.  1.
        -12    1    3    3    0    0 -0.33077753188E+02  0.55389969892E+01 -0.13863236769E+02  0.36290599021E+02  0.00000000000E+00 0.  1.
</event>
<event>
 7    1  0.2641103E-015  0.9000773E+02  0.7816164E-02  0.1186339E+00
        -11   -1    0    0    0    0  0.00000000000E+00  0.00000000000E+00  0.45593999997E+02  0.45594000000E+02  0.51100000000E-03 0.  1.
         11   -1    0    0    0    0 -0.00000000000E+00 -0.00000000000E+00 -0.45593999997E+02  0.45594000000E+02  0.51100000000E-03 0. -1.
    9900012    2    1    2    0    0  0.12811038034E+00  0.70804646756E+00 -0.93556669494E+00  0.90007734305E+02  0.89999995598E+02 0.  0.
        -12    1    1    2    0    0 -0.12811038034E+00 -0.70804646756E+00  0.93556669494E+00  0.11802656949E+01  0.00000000000E+00 0.  1.
         11    1    3    3    0    0  0.14562348150E+01  0.27648850217E+02 -0.26276123003E+02  0.38170855092E+02  0.51100000000E-03 0. -1.
        -11    1    3    3    0    0 -0.16020317990E+01  0.46547463567E+01 -0.57085049653E+01  0.75379174001E+01  0.51100000000E-03 0.  1.
        -12    1    3    3    0    0  0.27390736437E+00 -0.31595550106E+02  0.31049061273E+02  0.44298961813E+02  0.00000000000E+00 0.  1.
</event>
<event>
 7    1  0.2641103E-015  0.9000792E+02  0.7816164E-02  0.1186339E+00
        -11   -1    0    0    0    0  0.00000000000E+00  0.00000000000E+00  0.45593999997E+02  0.45594000000E+02  0.51100000000E-03 0.  1.
         11   -1    0    0    0    0 -0.00000000000E+00 -0.00000000000E+00 -0.45593999997E+02  0.45594000000E+02  0.51100000000E-03 0. -1.
    9900012    2    1    2    0    0 -0.10928980692E+01 -0.17220014145E+00 -0.41050933240E+00  0.90007916532E+02  0.90000180230E+02 0.  0.
        -12    1    1    2    0    0  0.10928980692E+01  0.17220014145E+00  0.41050933240E+00  0.11800834675E+01  0.00000000000E+00 0.  1.
         11    1    3    3    0    0 -0.33608504553E+02 -0.16025595353E+02 -0.17805432756E+02  0.41272081612E+02  0.51100000000E-03 0. -1.
        -11    1    3    3    0    0  0.62873383301E+01 -0.29441693310E+01 -0.57585191856E+01  0.90199390130E+01  0.51100000000E-03 0.  1.
        -12    1    3    3    0    0  0.26228268154E+02  0.18797564543E+02  0.23153442609E+02  0.39715895907E+02  0.00000000000E+00 0.  1.
</event>
<event>
 7    1  0.2641103E-015  0.9000772E+02  0.7816164E-02  0.1186339E+00
        -11   -1    0    0    0    0  0.00000000000E+00  0.00000000000E+00  0.45593999997E+02  0.45594000000E+02  0.51100000000E-03 0. -1.
         11   -1    0    0    0    0 -0.00000000000E+00 -0.00000000000E+00 -0.45593999997E+02  0.45594000000E+02  0.51100000000E-03 0.  1.
    9900012    2    1    2    0    0  0.49414455739E+00 -0.97132308816E+00  0.45323591412E+00  0.90007716060E+02  0.89999977112E+02 0.  0.
        -12    1    1    2    0    0 -0.49414455739E+00  0.97132308816E+00 -0.45323591412E+00  0.11802839400E+01  0.00000000000E+00 0.  1.
         11    1    3    3    0    0  0.27139193403E+02 -0.22687583482E+02  0.37973639977E+01  0.35576428101E+02  0.51100000000E-03 0. -1.
        -11    1    3    3    0    0  0.90414579566E+01 -0.34592559997E+01 -0.46483536328E+01  0.10738789774E+02  0.51100000000E-03 0.  1.
        -12    1    3    3    0    0 -0.35686506802E+02  0.25175516393E+02  0.13042255491E+01  0.43692498185E+02  0.00000000000E+00 0.  1.
</event>
<event>
 7    1  0.2641103E-015  0.9000781E+02  0.7816164E-02  0.1186339E+00
        -11   -1    0    0    0    0  0.00000000000E+00  0.00000000000E+00  0.45593999997E+02  0.45594000000E+02  0.51100000000E-03 0.  1.
         11   -1    0    0    0    0 -0.00000000000E+00 -0.00000000000E+00 -0.45593999997E+02  0.45594000000E+02  0.51100000000E-03 0. -1.
    9900012    2    1    2    0    0 -0.86510787066E+00  0.12551631116E+00  0.79289427498E+00  0.90007810480E+02  0.90000072778E+02 0.  0.
        -12    1    1    2    0    0  0.86510787066E+00 -0.12551631116E+00 -0.79289427498E+00  0.11801895202E+01  0.00000000000E+00 0.  1.
         11    1    3    3    0    0 -0.20120933100E+01  0.34426419471E+02 -0.14384540143E+02  0.37364981901E+02  0.51100000000E-03 0. -1.
        -11    1    3    3    0    0 -0.65469646638E+01  0.51374538443E+01 -0.25790508409E+01  0.87125014669E+01  0.51100000000E-03 0.  1.
        -12    1    3    3    0    0  0.76939501031E+01 -0.39438357004E+02  0.17756485259E+02  0.43930327112E+02  0.00000000000E+00 0.  1.
</event>
<event>
 7    1  0.2641103E-015  0.9000777E+02  0.7816164E-02  0.1186339E+00
        -11   -1    0    0    0    0  0.00000000000E+00  0.00000000000E+00  0.45593999997E+02  0.45594000000E+02  0.51100000000E-03 0.  1.
         11   -1    0    0    0    0 -0.00000000000E+00 -0.00000000000E+00 -0.45593999997E+02  0.45594000000E+02  0.51100000000E-03 0. -1.
    9900012    2    1    2    0    0 -0.89260862610E+00 -0.77135916821E+00  0.34617571987E-01  0.90007769725E+02  0.90000031485E+02 0.  0.
        -12    1    1    2    0    0  0.89260862610E+00  0.77135916821E+00 -0.34617571987E-01  0.11802302750E+01  0.00000000000E+00 0.  1.
         11    1    3    3    0    0 -0.13545708396E+02 -0.21393261359E+02  0.32049642433E+01  0.25523119786E+02  0.51100000000E-03 0. -1.
        -11    1    3    3    0    0 -0.44477694528E+01 -0.96050235638E+01 -0.22408817998E+02  0.24782942825E+02  0.51100000000E-03 0.  1.
        -12    1    3    3    0    0  0.17100869223E+02  0.30226925755E+02  0.19238471326E+02  0.39701707114E+02  0.00000000000E+00 0.  1.
</event>
<event>
 7    1  0.2641103E-015  0.9000820E+02  0.7816164E-02  0.1186338E+00
        -11   -1    0    0    0    0  0.00000000000E+00  0.00000000000E+00  0.45593999997E+02  0.45594000000E+02  0.51100000000E-03 0.  1.
         11   -1    0    0    0    0 -0.00000000000E+00 -0.00000000000E+00 -0.45593999997E+02  0.45594000000E+02  0.51100000000E-03 0. -1.
    9900012    2    1    2    0    0  0.15095389028E+00  0.60025957918E-01 -0.11685626939E+01  0.90008199609E+02  0.90000467043E+02 0.  0.
        -12    1    1    2    0    0 -0.15095389028E+00 -0.60025957918E-01  0.11685626939E+01  0.11798003908E+01  0.00000000000E+00 0.  1.
         11    1    3    3    0    0 -0.68830617394E+01  0.36219391570E+01 -0.10510882799E+02  0.13075688878E+02  0.51100000000E-03 0. -1.
        -11    1    3    3    0    0  0.31903275715E+02 -0.19100179362E+02 -0.13711260970E+02  0.39631231758E+02  0.51100000000E-03 0.  1.
         12    1    3    3    0    0 -0.24869260086E+02  0.15538266163E+02  0.23053581076E+02  0.37301278972E+02  0.00000000000E+00 0. -1.
</event>
<event>
 7    1  0.2641103E-015  0.9000777E+02  0.7816164E-02  0.1186339E+00
        -11   -1    0    0    0    0  0.00000000000E+00  0.00000000000E+00  0.45593999997E+02  0.45594000000E+02  0.51100000000E-03 0. -1.
         11   -1    0    0    0    0 -0.00000000000E+00 -0.00000000000E+00 -0.45593999997E+02  0.45594000000E+02  0.51100000000E-03 0.  1.
    9900012    2    1    2    0    0  0.99311081375E+00  0.30712987710E+00  0.55887672064E+00  0.90007770769E+02  0.90000032543E+02 0.  0.
        -12    1    1    2    0    0 -0.99311081375E+00 -0.30712987710E+00 -0.55887672064E+00  0.11802292314E+01  0.00000000000E+00 0.  1.
         11    1    3    3    0    0  0.14642013651E+02  0.15664009384E+02  0.10394570991E+02  0.23828488413E+02  0.51100000000E-03 0. -1.
        -11    1    3    3    0    0  0.63688502942E+00  0.12189566838E+02  0.19806750545E+02  0.23265823210E+02  0.51100000000E-03 0.  1.
        -12    1    3    3    0    0 -0.14285787866E+02 -0.27546446344E+02 -0.29642444816E+02  0.42913459145E+02  0.00000000000E+00 0.  1.
</event>
<event>
 7    1  0.2641103E-015  0.9000773E+02  0.7816164E-02  0.1186339E+00
        -11   -1    0    0    0    0  0.00000000000E+00  0.00000000000E+00  0.45593999997E+02  0.45594000000E+02  0.51100000000E-03 0. -1.
         11   -1    0    0    0    0 -0.00000000000E+00 -0.00000000000E+00 -0.45593999997E+02  0.45594000000E+02  0.51100000000E-03 0.  1.
    9900012    2    1    2    0    0  0.23624129341E+00  0.69512341375E+00  0.92413213875E+00  0.90007734471E+02  0.89999995766E+02 0.  0.
        -12    1    1    2    0    0 -0.23624129341E+00 -0.69512341375E+00 -0.92413213875E+00  0.11802655290E+01  0.00000000000E+00 0.  1.
         11    1    3    3    0    0 -0.16439280558E+02  0.24030870964E+02  0.31623187269E+02  0.42985563599E+02  0.51100000000E-03 0. -1.
        -11    1    3    3    0    0  0.83090581696E+01  0.18829441838E+01 -0.42086778795E+01  0.95025731367E+01  0.51100000000E-03 0.  1.
        -12    1    3    3    0    0  0.83664636819E+01 -0.25218691734E+02 -0.26490377251E+02  0.37519597736E+02  0.00000000000E+00 0.  1.
</event>
<event>
 7    1  0.2641103E-015  0.9000781E+02  0.7816164E-02  0.1186339E+00
        -11   -1    0    0    0    0  0.00000000000E+00  0.00000000000E+00  0.45593999997E+02  0.45594000000E+02  0.51100000000E-03 0.  1.
         11   -1    0    0    0    0 -0.00000000000E+00 -0.00000000000E+00 -0.45593999997E+02  0.45594000000E+02  0.51100000000E-03 0. -1.
    9900012    2    1    2    0    0  0.10268565553E+01  0.36015916560E+00 -0.45683731979E+00  0.90007809614E+02  0.90000071901E+02 0.  0.
        -12    1    1    2    0    0 -0.10268565553E+01 -0.36015916560E+00  0.45683731979E+00  0.11801903857E+01  0.00000000000E+00 0.  1.
         11    1    3    3    0    0 -0.53713936556E+01  0.70496795253E+01  0.90373074904E+01  0.12657913657E+02  0.51100000000E-03 0. -1.
        -11    1    3    3    0    0 -0.11477099564E+01 -0.36914885433E+02  0.12748749750E+02  0.39071173838E+02  0.51100000000E-03 0.  1.
         12    1    3    3    0    0  0.75459601672E+01  0.30225365073E+02 -0.22242894560E+02  0.38278722119E+02  0.00000000000E+00 0. -1.
</event>
<event>
 7    1  0.2641103E-015  0.9000775E+02  0.7816164E-02  0.1186339E+00
        -11   -1    0    0    0    0  0.00000000000E+00  0.00000000000E+00  0.45593999997E+02  0.45594000000E+02  0.51100000000E-03 0. -1.
         11   -1    0    0    0    0 -0.00000000000E+00 -0.00000000000E+00 -0.45593999997E+02  0.45594000000E+02  0.51100000000E-03 0.  1.
    9900012    2    1    2    0    0  0.73935478829E+00  0.81838831128E+00  0.42022593264E+00  0.90007748008E+02  0.90000009481E+02 0.  0.
        -12    1    1    2    0    0 -0.73935478829E+00 -0.81838831128E+00 -0.42022593264E+00  0.11802519924E+01  0.00000000000E+00 0.  1.
         11    1    3    3    0    0  0.88275173941E+01  0.71948247341E+01 -0.35406974775E+01  0.11925900603E+02  0.51100000000E-03 0. -1.
        -11    1    3    3    0    0  0.19993049459E+02 -0.83800370195E+01 -0.28051138765E+02  0.35451564611E+02  0.51100000000E-03 0.  1.
         12    1    3    3    0    0 -0.28081212065E+02  0.20036005967E+01  0.32012062175E+02  0.42630282794E+02  0.00000000000E+00 0. -1.
</event>
<event>
 7    1  0.2641103E-015  0.9000767E+02  0.7816164E-02  0.1186339E+00
        -11   -1    0    0    0    0  0.00000000000E+00  0.00000000000E+00  0.45593999997E+02  0.45594000000E+02  0.51100000000E-03 0.  1.
         11   -1    0    0    0    0 -0.00000000000E+00 -0.00000000000E+00 -0.45593999997E+02  0.45594000000E+02  0.51100000000E-03 0. -1.
    9900012    2    1    2    0    0  0.88844530565E+00  0.50132232968E+00 -0.59372806622E+00  0.90007672861E+02  0.89999933342E+02 0.  0.
        -12    1    1    2    0    0 -0.88844530565E+00 -0.50132232968E+00  0.59372806622E+00  0.11803271394E+01  0.00000000000E+00 0.  1.
         11    1    3    3    0    0  0.56446544107E+01 -0.56280828702E+01 -0.35458168673E+01  0.87241193096E+01  0.51100000000E-03 0. -1.
        -11    1    3    3    0    0  0.26195977527E+02  0.82866572057E+01 -0.26738916428E+02  0.38338852073E+02  0.51100000000E-03 0.  1.
         12    1    3    3    0    0 -0.30952186632E+02 -0.21572520058E+01  0.29691005229E+02  0.42944701478E+02  0.00000000000E+00 0. -1.
</event>
<event>
 7    1  0.2641103E-015  0.9000772E+02  0.7816164E-02  0.1186339E+00
        -11   -1    0    0    0    0  0.00000000000E+00  0.00000000000E+00  0.45593999997E+02  0.45594000000E+02  0.51100000000E-03 0.  1.
         11   -1    0    0    0    0 -0.00000000000E+00 -0.00000000000E+00 -0.45593999997E+02  0.45594000000E+02  0.51100000000E-03 0. -1.
    9900012    2    1    2    0    0  0.40968478241E+00  0.89203907045E+00  0.65535726757E+00  0.90007716783E+02  0.89999977845E+02 0.  0.
        -12    1    1    2    0    0 -0.40968478241E+00 -0.89203907045E+00 -0.65535726757E+00  0.11802832170E+01  0.00000000000E+00 0.  1.
         11    1    3    3    0    0  0.47409075607E+01  0.10197249311E+02  0.58819319324E+01  0.12690832184E+02  0.51100000000E-03 0. -1.
        -11    1    3    3    0    0  0.34269733904E+02  0.43309165837E+01  0.55456343206E+01  0.34984647498E+02  0.51100000000E-03 0.  1.
         12    1    3    3    0    0 -0.38600956682E+02 -0.13636126824E+02 -0.10772208985E+02  0.42332237101E+02  0.00000000000E+00 0. -1.
</event>
<event>
 7    1  0.2641103E-015  0.9000775E+02  0.7816164E-02  0.1186339E+00
        -11   -1    0    0    0    0  0.00000000000E+00  0.00000000000E+00  0.45593999997E+02  0.45594000000E+02  0.51100000000E-03 0.  1.
         11   -1    0    0    0    0 -0.00000000000E+00 -0.00000000000E+00 -0.45593999997E+02  0.45594000000E+02  0.51100000000E-03 0. -1.
    9900012    2    1    2    0    0 -0.42211682874E-01  0.11955222932E-01 -0.11794374932E+01  0.90007746826E+02  0.90000008284E+02 0.  0.
        -12    1    1    2    0    0  0.42211682874E-01 -0.11955222932E-01  0.11794374932E+01  0.11802531736E+01  0.00000000000E+00 0.  1.
         11    1    3    3    0    0  0.90952928775E+01 -0.34377591528E+01  0.10060641767E+01  0.97752087400E+01  0.51100000000E-03 0. -1.
        -11    1    3    3    0    0  0.59701920105E+01 -0.35826331676E+02  0.74156501173E+01  0.37069678997E+02  0.51100000000E-03 0.  1.
         12    1    3    3    0    0 -0.15107696571E+02  0.39276046052E+02 -0.96011517872E+01  0.43162859090E+02  0.00000000000E+00 0. -1.
</event>
<event>
 7    1  0.2641103E-015  0.9000765E+02  0.7816164E-02  0.1186339E+00
        -11   -1    0    0    0    0  0.00000000000E+00  0.00000000000E+00  0.45593999997E+02  0.45594000000E+02  0.51100000000E-03 0.  1.
         11   -1    0    0    0    0 -0.00000000000E+00 -0.00000000000E+00 -0.45593999997E+02  0.45594000000E+02  0.51100000000E-03 0. -1.
    9900012    2    1    2    0    0 -0.83595571648E+00  0.63387938333E+00 -0.54092446377E+00  0.90007650769E+02  0.89999910959E+02 0.  0.
        -12    1    1    2    0    0  0.83595571648E+00 -0.63387938333E+00  0.54092446377E+00  0.11803492314E+01  0.00000000000E+00 0.  1.
         11    1    3    3    0    0 -0.47120713277E+01  0.18163162417E+02 -0.32964906014E+02  0.37931373742E+02  0.51100000000E-03 0. -1.
        -11    1    3    3    0    0  0.17923255176E+01  0.94271887040E+01 -0.33394882477E+00  0.96018664696E+01  0.51100000000E-03 0.  1.
        -12    1    3    3    0    0  0.20837900936E+01 -0.26956471738E+02  0.32757930375E+02  0.42474410557E+02  0.00000000000E+00 0.  1.
</event>
<event>
 7    1  0.2641103E-015  0.9000773E+02  0.7816164E-02  0.1186339E+00
        -11   -1    0    0    0    0  0.00000000000E+00  0.00000000000E+00  0.45593999997E+02  0.45594000000E+02  0.51100000000E-03 0.  1.
         11   -1    0    0    0    0 -0.00000000000E+00 -0.00000000000E+00 -0.45593999997E+02  0.45594000000E+02  0.51100000000E-03 0. -1.
    9900012    2    1    2    0    0  0.11177895455E+01  0.24091927907E+00 -0.29245770682E+00  0.90007734319E+02  0.89999995612E+02 0.  0.
        -12    1    1    2    0    0 -0.11177895455E+01 -0.24091927907E+00  0.29245770682E+00  0.11802656808E+01  0.00000000000E+00 0.  1.
         11    1    3    3    0    0 -0.40734991596E+00  0.35754577457E+01  0.54330215229E+01  0.65167135256E+01  0.51100000000E-03 0. -1.
        -11    1    3    3    0    0 -0.13923198489E+02  0.74681499702E+00  0.36109768926E+02  0.38708249779E+02  0.51100000000E-03 0.  1.
         12    1    3    3    0    0  0.15448337950E+02 -0.40813534636E+01 -0.41835248156E+02  0.44782771015E+02  0.00000000000E+00 0. -1.
</event>
<event>
 7    1  0.2641103E-015  0.9000776E+02  0.7816164E-02  0.1186339E+00
        -11   -1    0    0    0    0  0.00000000000E+00  0.00000000000E+00  0.45593999997E+02  0.45594000000E+02  0.51100000000E-03 0.  1.
         11   -1    0    0    0    0 -0.00000000000E+00 -0.00000000000E+00 -0.45593999997E+02  0.45594000000E+02  0.51100000000E-03 0. -1.
    9900012    2    1    2    0    0 -0.10577957421E+01 -0.51381140438E+00  0.10010839191E+00  0.90007764565E+02  0.90000026257E+02 0.  0.
        -12    1    1    2    0    0  0.10577957421E+01  0.51381140438E+00 -0.10010839191E+00  0.11802354348E+01  0.00000000000E+00 0.  1.
         11    1    3    3    0    0  0.19647542567E+02  0.13077123700E+02 -0.18770145103E+02  0.30155520898E+02  0.51100000000E-03 0. -1.
        -11    1    3    3    0    0 -0.12256180744E+02  0.19189968519E+02  0.99186285288E+01  0.24836425877E+02  0.51100000000E-03 0.  1.
        -12    1    3    3    0    0 -0.84491575653E+01 -0.32780903624E+02  0.89516249663E+01  0.35015817790E+02  0.00000000000E+00 0.  1.
</event>
<event>
 7    1  0.2641103E-015  0.9000795E+02  0.7816164E-02  0.1186339E+00
        -11   -1    0    0    0    0  0.00000000000E+00  0.00000000000E+00  0.45593999997E+02  0.45594000000E+02  0.51100000000E-03 0. -1.
         11   -1    0    0    0    0 -0.00000000000E+00 -0.00000000000E+00 -0.45593999997E+02  0.45594000000E+02  0.51100000000E-03 0.  1.
    9900012    2    1    2    0    0 -0.10398316198E+01  0.49333055293E+00  0.26057648064E+00  0.90007947063E+02  0.90000211164E+02 0.  0.
        -12    1    1    2    0    0  0.10398316198E+01 -0.49333055293E+00 -0.26057648064E+00  0.11800529371E+01  0.00000000000E+00 0.  1.
         11    1    3    3    0    0  0.10420913461E+02  0.28702296771E+02  0.22449370570E+02  0.37899756154E+02  0.51100000000E-03 0. -1.
        -11    1    3    3    0    0  0.43350283434E+01  0.45212910511E+01  0.38932618113E+01  0.73750953417E+01  0.51100000000E-03 0.  1.
        -12    1    3    3    0    0 -0.15795773424E+02 -0.32730257269E+02 -0.26082055901E+02  0.44733095567E+02  0.00000000000E+00 0.  1.
</event>
<event>
 7    1  0.2641103E-015  0.9000777E+02  0.7816164E-02  0.1186339E+00
        -11   -1    0    0    0    0  0.00000000000E+00  0.00000000000E+00  0.45593999997E+02  0.45594000000E+02  0.51100000000E-03 0. -1.
         11   -1    0    0    0    0 -0.00000000000E+00 -0.00000000000E+00 -0.45593999997E+02  0.45594000000E+02  0.51100000000E-03 0.  1.
    9900012    2    1    2    0    0 -0.79167998485E+00  0.56630385040E+00  0.66744851156E+00  0.90007769190E+02  0.90000030943E+02 0.  0.
        -12    1    1    2    0    0  0.79167998485E+00 -0.56630385040E+00 -0.66744851156E+00  0.11802308100E+01  0.00000000000E+00 0.  1.
         11    1    3    3    0    0 -0.32890634299E+01 -0.36771280093E+02  0.11957256294E+02  0.38806197395E+02  0.51100000000E-03 0. -1.
        -11    1    3    3    0    0  0.76222901842E+01 -0.80306844179E+00  0.52751879269E+01  0.93043986640E+01  0.51100000000E-03 0.  1.
        -12    1    3    3    0    0 -0.51249067392E+01  0.38140652385E+02 -0.16564995709E+02  0.41897173131E+02  0.00000000000E+00 0.  1.
</event>
<event>
 7    1  0.2641103E-015  0.9000778E+02  0.7816164E-02  0.1186339E+00
        -11   -1    0    0    0    0  0.00000000000E+00  0.00000000000E+00  0.45593999997E+02  0.45594000000E+02  0.51100000000E-03 0.  1.
         11   -1    0    0    0    0 -0.00000000000E+00 -0.00000000000E+00 -0.45593999997E+02  0.45594000000E+02  0.51100000000E-03 0. -1.
    9900012    2    1    2    0    0  0.37794447299E+00 -0.53716238517E+00 -0.98058098310E+00  0.90007777768E+02  0.90000039634E+02 0.  0.
        -12    1    1    2    0    0 -0.37794447299E+00  0.53716238517E+00  0.98058098310E+00  0.11802222321E+01  0.00000000000E+00 0.  1.
         11    1    3    3    0    0  0.12396477068E+02  0.31109769447E+02  0.67900754732E+01  0.34170096927E+02  0.51100000000E-03 0. -1.
        -11    1    3    3    0    0 -0.96224354768E+01  0.52918546672E+01  0.99313217248E+01  0.14806287238E+02  0.51100000000E-03 0.  1.
        -12    1    3    3    0    0 -0.23960971186E+01 -0.36938786500E+02 -0.17701978181E+02  0.41031393603E+02  0.00000000000E+00 0.  1.
</event>
<event>
 7    1  0.2641103E-015  0.9000775E+02  0.7816164E-02  0.1186339E+00
        -11   -1    0    0    0    0  0.00000000000E+00  0.00000000000E+00  0.45593999997E+02  0.45594000000E+02  0.51100000000E-03 0. -1.
         11   -1    0    0    0    0 -0.00000000000E+00 -0.00000000000E+00 -0.45593999997E+02  0.45594000000E+02  0.51100000000E-03 0.  1.
    9900012    2    1    2    0    0 -0.11438537388E+01  0.24459647109E+00 -0.15738657545E+00  0.90007746068E+02  0.90000007516E+02 0.  0.
        -12    1    1    2    0    0  0.11438537388E+01 -0.24459647109E+00  0.15738657545E+00  0.11802539319E+01  0.00000000000E+00 0.  1.
         11    1    3    3    0    0 -0.14755855804E+02  0.31000616063E+02  0.17448705166E+02  0.38512735413E+02  0.51100000000E-03 0. -1.
        -11    1    3    3    0    0 -0.35013906291E+01  0.61722042878E+01 -0.56606503149E+01  0.90773787162E+01  0.51100000000E-03 0.  1.
        -12    1    3    3    0    0  0.17113392694E+02 -0.36928223880E+02 -0.11945441426E+02  0.42417631939E+02  0.00000000000E+00 0.  1.
</event>
<event>
 7    1  0.2641103E-015  0.9000763E+02  0.7816164E-02  0.1186339E+00
        -11   -1    0    0    0    0  0.00000000000E+00  0.00000000000E+00  0.45593999997E+02  0.45594000000E+02  0.51100000000E-03 0. -1.
         11   -1    0    0    0    0 -0.00000000000E+00 -0.00000000000E+00 -0.45593999997E+02  0.45594000000E+02  0.51100000000E-03 0.  1.
    9900012    2    1    2    0    0 -0.61112924249E+00 -0.84241038893E+00  0.55689866840E+00  0.90007631269E+02  0.89999891202E+02 0.  0.
        -12    1    1    2    0    0  0.61112924249E+00  0.84241038893E+00 -0.55689866840E+00  0.11803687311E+01  0.00000000000E+00 0.  1.
         11    1    3    3    0    0 -0.99706466240E+01  0.25068223419E+01  0.36831723239E+02  0.38239688667E+02  0.51100000000E-03 0. -1.
        -11    1    3    3    0    0 -0.10222226366E+02  0.68168128648E+01 -0.45013445493E+01  0.13085295279E+02  0.51100000000E-03 0.  1.
        -12    1    3    3    0    0  0.19581743748E+02 -0.10166045596E+02 -0.31773480021E+02  0.38682647323E+02  0.00000000000E+00 0.  1.
</event>
<event>
 7    1  0.2641103E-015  0.9000784E+02  0.7816164E-02  0.1186339E+00
        -11   -1    0    0    0    0  0.00000000000E+00  0.00000000000E+00  0.45593999997E+02  0.45594000000E+02  0.51100000000E-03 0.  1.
         11   -1    0    0    0    0 -0.00000000000E+00 -0.00000000000E+00 -0.45593999997E+02  0.45594000000E+02  0.51100000000E-03 0. -1.
    9900012    2    1    2    0    0  0.83247061976E+00  0.16941509260E+00 -0.81919502978E+00  0.90007835053E+02  0.90000097675E+02 0.  0.
        -12    1    1    2    0    0 -0.83247061976E+00 -0.16941509260E+00  0.81919502978E+00  0.11801649474E+01  0.00000000000E+00 0.  1.
         11    1    3    3    0    0  0.75236096750E+01 -0.13305566973E+01  0.12517000254E+01  0.77422113689E+01  0.51100000000E-03 0. -1.
        -11    1    3    3    0    0 -0.18216700786E+02  0.21515591917E+00  0.37144404877E+02  0.41371503399E+02  0.51100000000E-03 0.  1.
         12    1    3    3    0    0  0.11525561731E+02  0.12848158707E+01 -0.39215299932E+02  0.40894120284E+02  0.00000000000E+00 0. -1.
</event>
<event>
 7    1  0.2641103E-015  0.9000785E+02  0.7816164E-02  0.1186339E+00
        -11   -1    0    0    0    0  0.00000000000E+00  0.00000000000E+00  0.45593999997E+02  0.45594000000E+02  0.51100000000E-03 0.  1.
         11   -1    0    0    0    0 -0.00000000000E+00 -0.00000000000E+00 -0.45593999997E+02  0.45594000000E+02  0.51100000000E-03 0. -1.
    9900012    2    1    2    0    0 -0.30859656228E-01  0.34082022665E+00 -0.11294451795E+01  0.90007848671E+02  0.90000111474E+02 0.  0.
        -12    1    1    2    0    0  0.30859656228E-01 -0.34082022665E+00  0.11294451795E+01  0.11801513288E+01  0.00000000000E+00 0.  1.
         11    1    3    3    0    0 -0.41146154402E+01  0.31481892429E+02  0.18538137652E+02  0.36765502295E+02  0.51100000000E-03 0. -1.
        -11    1    3    3    0    0  0.52339540336E+01  0.40802257928E+01  0.65461343490E+01  0.93217161790E+01  0.51100000000E-03 0.  1.
        -12    1    3    3    0    0 -0.11501982496E+01 -0.35221297995E+02 -0.26213717181E+02  0.43920630197E+02  0.00000000000E+00 0.  1.
</event>
<event>
 7    1  0.2641103E-015  0.9000771E+02  0.7816164E-02  0.1186339E+00
        -11   -1    0    0    0    0  0.00000000000E+00  0.00000000000E+00  0.45593999997E+02  0.45594000000E+02  0.51100000000E-03 0.  1.
         11   -1    0    0    0    0 -0.00000000000E+00 -0.00000000000E+00 -0.45593999997E+02  0.45594000000E+02  0.51100000000E-03 0. -1.
    9900012    2    1    2    0    0  0.50858885216E+00  0.50646463732E+00 -0.93697084789E+00  0.90007710451E+02  0.89999971429E+02 0.  0.
        -12    1    1    2    0    0 -0.50858885216E+00 -0.50646463732E+00  0.93697084789E+00  0.11802895489E+01  0.00000000000E+00 0.  1.
         11    1    3    3    0    0  0.16967702704E+01  0.12899414992E+02 -0.77164739548E+00  0.13033394664E+02  0.51100000000E-03 0. -1.
        -11    1    3    3    0    0  0.17876679542E+02  0.20360159736E+02  0.20344861803E+02  0.33882520242E+02  0.51100000000E-03 0.  1.
         12    1    3    3    0    0 -0.19064860960E+02 -0.32753110091E+02 -0.20510185255E+02  0.43091795545E+02  0.00000000000E+00 0. -1.
</event>
<event>
 7    1  0.2641103E-015  0.9000775E+02  0.7816164E-02  0.1186339E+00
        -11   -1    0    0    0    0  0.00000000000E+00  0.00000000000E+00  0.45593999997E+02  0.45594000000E+02  0.51100000000E-03 0.  1.
         11   -1    0    0    0    0 -0.00000000000E+00 -0.00000000000E+00 -0.45593999997E+02  0.45594000000E+02  0.51100000000E-03 0. -1.
    9900012    2    1    2    0    0 -0.20698383708E+00 -0.10258964332E+01 -0.54561017687E+00  0.90007747372E+02  0.90000008837E+02 0.  0.
        -12    1    1    2    0    0  0.20698383708E+00  0.10258964332E+01  0.54561017687E+00  0.11802526278E+01  0.00000000000E+00 0.  1.
         11    1    3    3    0    0  0.29443601886E+01  0.15971506026E+01 -0.80222608760E+01  0.86934927843E+01  0.51100000000E-03 0. -1.
        -11    1    3    3    0    0  0.31911759531E+01  0.32218679023E+02  0.25838394144E+02  0.41422813692E+02  0.51100000000E-03 0.  1.
         12    1    3    3    0    0 -0.63425199787E+01 -0.34841726059E+02 -0.18361743444E+02  0.39891440896E+02  0.00000000000E+00 0. -1.
</event>
<event>
 7    1  0.2641103E-015  0.9000773E+02  0.7816164E-02  0.1186339E+00
        -11   -1    0    0    0    0  0.00000000000E+00  0.00000000000E+00  0.45593999997E+02  0.45594000000E+02  0.51100000000E-03 0.  1.
         11   -1    0    0    0    0 -0.00000000000E+00 -0.00000000000E+00 -0.45593999997E+02  0.45594000000E+02  0.51100000000E-03 0. -1.
    9900012    2    1    2    0    0  0.30309230165E+00 -0.75243001822E+00 -0.85733788965E+00  0.90007727094E+02  0.89999988292E+02 0.  0.
        -12    1    1    2    0    0 -0.30309230165E+00  0.75243001822E+00  0.85733788965E+00  0.11802729060E+01  0.00000000000E+00 0.  1.
         11    1    3    3    0    0  0.17814449827E+01  0.50622064318E+01 -0.85041271586E+01  0.10055827125E+02  0.51100000000E-03 0. -1.
        -11    1    3    3    0    0  0.22517002389E+02 -0.15774874143E+02 -0.25730311995E+02  0.37655159094E+02  0.51100000000E-03 0.  1.
         12    1    3    3    0    0 -0.23995355070E+02  0.99602376932E+01  0.33377101264E+02  0.42296740874E+02  0.00000000000E+00 0. -1.
</event>
<event>
 7    1  0.2641103E-015  0.9000776E+02  0.7816164E-02  0.1186339E+00
        -11   -1    0    0    0    0  0.00000000000E+00  0.00000000000E+00  0.45593999997E+02  0.45594000000E+02  0.51100000000E-03 0. -1.
         11   -1    0    0    0    0 -0.00000000000E+00 -0.00000000000E+00 -0.45593999997E+02  0.45594000000E+02  0.51100000000E-03 0.  1.
    9900012    2    1    2    0    0  0.90556485294E+00 -0.68029036013E+00  0.33186111446E+00  0.90007756603E+02  0.90000018190E+02 0.  0.
        -12    1    1    2    0    0 -0.90556485294E+00  0.68029036013E+00 -0.33186111446E+00  0.11802433970E+01  0.00000000000E+00 0.  1.
         11    1    3    3    0    0  0.30977258530E+02 -0.24059704102E+02  0.40000529303E+01  0.39426644940E+02  0.51100000000E-03 0. -1.
        -11    1    3    3    0    0 -0.69737825726E+01 -0.85400634201E+01 -0.18363285469E+00  0.11027241172E+02  0.51100000000E-03 0.  1.
        -12    1    3    3    0    0 -0.23097911104E+02  0.31919477162E+02 -0.34845589612E+01  0.39553870491E+02  0.00000000000E+00 0.  1.
</event>
<event>
 7    1  0.2641103E-015  0.9000774E+02  0.7816164E-02  0.1186339E+00
        -11   -1    0    0    0    0  0.00000000000E+00  0.00000000000E+00  0.45593999997E+02  0.45594000000E+02  0.51100000000E-03 0.  1.
         11   -1    0    0    0    0 -0.00000000000E+00 -0.00000000000E+00 -0.45593999997E+02  0.45594000000E+02  0.51100000000E-03 0. -1.
    9900012    2    1    2    0    0 -0.26243294325E-01  0.70491106675E-01 -0.11778650320E+01  0.90007735733E+02  0.89999997045E+02 0.  0.
        -12    1    1    2    0    0  0.26243294325E-01 -0.70491106675E-01  0.11778650320E+01  0.11802642671E+01  0.00000000000E+00 0.  1.
         11    1    3    3    0    0 -0.39259048816E+02 -0.37107068470E+00 -0.19325845714E+02  0.43759558044E+02  0.51100000000E-03 0. -1.
        -11    1    3    3    0    0  0.52354812397E+01 -0.57711740431E+01  0.50692839997E+01  0.92959321307E+01  0.51100000000E-03 0.  1.
        -12    1    3    3    0    0  0.33997324282E+02  0.62127358345E+01  0.13078696683E+02  0.36952245558E+02  0.00000000000E+00 0.  1.
</event>
<event>
 7    1  0.2641103E-015  0.9000756E+02  0.7816164E-02  0.1186339E+00
        -11   -1    0    0    0    0  0.00000000000E+00  0.00000000000E+00  0.45593999997E+02  0.45594000000E+02  0.51100000000E-03 0.  1.
         11   -1    0    0    0    0 -0.00000000000E+00 -0.00000000000E+00 -0.45593999997E+02  0.45594000000E+02  0.51100000000E-03 0. -1.
    9900012    2    1    2    0    0  0.93026343854E+00 -0.49073597057E+00 -0.53594526447E+00  0.90007555514E+02  0.89999814447E+02 0.  0.
        -12    1    1    2    0    0 -0.93026343854E+00  0.49073597057E+00  0.53594526447E+00  0.11804444859E+01  0.00000000000E+00 0.  1.
         11    1    3    3    0    0 -0.17325163027E+01 -0.47360744588E+01 -0.74232021866E+01  0.89741821345E+01  0.51100000000E-03 0. -1.
        -11    1    3    3    0    0 -0.47049485397E+01 -0.18932138941E+02  0.37299302668E+02  0.42092759537E+02  0.51100000000E-03 0.  1.
         12    1    3    3    0    0  0.73677282810E+01  0.23177477429E+02 -0.30412045746E+02  0.38940613843E+02  0.00000000000E+00 0. -1.
</event>
<event>
 7    1  0.2641103E-015  0.9000779E+02  0.7816164E-02  0.1186339E+00
        -11   -1    0    0    0    0  0.00000000000E+00  0.00000000000E+00  0.45593999997E+02  0.45594000000E+02  0.51100000000E-03 0.  1.
         11   -1    0    0    0    0 -0.00000000000E+00 -0.00000000000E+00 -0.45593999997E+02  0.45594000000E+02  0.51100000000E-03 0. -1.
    9900012    2    1    2    0    0 -0.10117100525E+01 -0.40976012467E+00 -0.44880755652E+00  0.90007792894E+02  0.90000054960E+02 0.  0.
        -12    1    1    2    0    0  0.10117100525E+01  0.40976012467E+00  0.44880755652E+00  0.11802071059E+01  0.00000000000E+00 0.  1.
         11    1    3    3    0    0 -0.12464682210E+02 -0.16509944798E+02 -0.31875298273E+02  0.37999752895E+02  0.51100000000E-03 0. -1.
        -11    1    3    3    0    0 -0.61865499018E+01 -0.21429615030E+01 -0.45566650805E+01  0.79767713148E+01  0.51100000000E-03 0.  1.
        -12    1    3    3    0    0  0.17639522059E+02  0.18243146176E+02  0.35983155797E+02  0.44031268685E+02  0.00000000000E+00 0.  1.
</event>
<event>
 7    1  0.2641103E-015  0.9000770E+02  0.7816164E-02  0.1186339E+00
        -11   -1    0    0    0    0  0.00000000000E+00  0.00000000000E+00  0.45593999997E+02  0.45594000000E+02  0.51100000000E-03 0.  1.
         11   -1    0    0    0    0 -0.00000000000E+00 -0.00000000000E+00 -0.45593999997E+02  0.45594000000E+02  0.51100000000E-03 0. -1.
    9900012    2    1    2    0    0  0.15945272979E+00 -0.51755826583E+00 -0.10487230005E+01  0.90007698486E+02  0.89999959306E+02 0.  0.
        -12    1    1    2    0    0 -0.15945272979E+00  0.51755826583E+00  0.10487230005E+01  0.11803015138E+01  0.00000000000E+00 0.  1.
         11    1    3    3    0    0  0.49769942891E+01  0.51445219342E+01 -0.71272917292E+01  0.10101230902E+02  0.51100000000E-03 0. -1.
        -11    1    3    3    0    0 -0.79144034463E+01 -0.21163838076E+02  0.38042701944E+02  0.44246954646E+02  0.51100000000E-03 0.  1.
         12    1    3    3    0    0  0.30968618870E+01  0.15501757876E+02 -0.31964133215E+02  0.35659512938E+02  0.00000000000E+00 0. -1.
</event>
<event>
 7    1  0.2641103E-015  0.9000777E+02  0.7816164E-02  0.1186339E+00
        -11   -1    0    0    0    0  0.00000000000E+00  0.00000000000E+00  0.45593999997E+02  0.45594000000E+02  0.51100000000E-03 0. -1.
         11   -1    0    0    0    0 -0.00000000000E+00 -0.00000000000E+00 -0.45593999997E+02  0.45594000000E+02  0.51100000000E-03 0.  1.
    9900012    2    1    2    0    0  0.34357077967E+00  0.11044533634E+01  0.23470598514E+00  0.90007769085E+02  0.90000030837E+02 0.  0.
        -12    1    1    2    0    0 -0.34357077967E+00 -0.11044533634E+01 -0.23470598514E+00  0.11802309147E+01  0.00000000000E+00 0.  1.
         11    1    3    3    0    0 -0.63208549459E+01  0.74121664690E+01 -0.43389941206E+01  0.10663971551E+02  0.51100000000E-03 0. -1.
        -11    1    3    3    0    0 -0.12322740857E+02 -0.30992192355E+02 -0.20685097827E+02  0.39245881333E+02  0.51100000000E-03 0.  1.
         12    1    3    3    0    0  0.18987166582E+02  0.24684479250E+02  0.25258797933E+02  0.40097916201E+02  0.00000000000E+00 0. -1.
</event>
<event>
 7    1  0.2641103E-015  0.9000775E+02  0.7816164E-02  0.1186339E+00
        -11   -1    0    0    0    0  0.00000000000E+00  0.00000000000E+00  0.45593999997E+02  0.45594000000E+02  0.51100000000E-03 0. -1.
         11   -1    0    0    0    0 -0.00000000000E+00 -0.00000000000E+00 -0.45593999997E+02  0.45594000000E+02  0.51100000000E-03 0.  1.
    9900012    2    1    2    0    0 -0.84856427381E+00 -0.81894507966E+00  0.47424983528E-01  0.90007753628E+02  0.90000015176E+02 0.  0.
        -12    1    1    2    0    0  0.84856427381E+00  0.81894507966E+00 -0.47424983528E-01  0.11802463723E+01  0.00000000000E+00 0.  1.
         11    1    3    3    0    0  0.33845792878E+02  0.19998376635E+02 -0.41302592577E+01  0.39528873059E+02  0.51100000000E-03 0. -1.
        -11    1    3    3    0    0 -0.35913524148E+01  0.74477902735E+01  0.31952939745E+00  0.82746293828E+01  0.51100000000E-03 0.  1.
        -12    1    3    3    0    0 -0.31103004737E+02 -0.28265111988E+02  0.38581548437E+01  0.42204251186E+02  0.00000000000E+00 0.  1.
</event>
<event>
 7    1  0.2641103E-015  0.9000769E+02  0.7816164E-02  0.1186339E+00
        -11   -1    0    0    0    0  0.00000000000E+00  0.00000000000E+00  0.45593999997E+02  0.45594000000E+02  0.51100000000E-03 0. -1.
         11   -1    0    0    0    0 -0.00000000000E+00 -0.00000000000E+00 -0.45593999997E+02  0.45594000000E+02  0.51100000000E-03 0.  1.
    9900012    2    1    2    0    0 -0.48214271430E+00  0.69496108205E+00  0.82322236835E+00  0.90007691748E+02  0.89999952479E+02 0.  0.
        -12    1    1    2    0    0  0.48214271430E+00 -0.69496108205E+00 -0.82322236835E+00  0.11803082522E+01  0.00000000000E+00 0.  1.
         11    1    3    3    0    0 -0.57368921094E+01 -0.51604926245E+01 -0.51281979811E+01  0.92650434428E+01  0.51100000000E-03 0. -1.
        -11    1    3    3    0    0 -0.36450917698E+02 -0.43054998582E+01 -0.32298239991E+01  0.36846146248E+02  0.51100000000E-03 0.  1.
         12    1    3    3    0    0  0.41705667093E+02  0.10160953565E+02  0.91812443485E+01  0.43896502056E+02  0.00000000000E+00 0. -1.
</event>
<event>
 7    1  0.2641103E-015  0.9000774E+02  0.7816164E-02  0.1186339E+00
        -11   -1    0    0    0    0  0.00000000000E+00  0.00000000000E+00  0.45593999997E+02  0.45594000000E+02  0.51100000000E-03 0. -1.
         11   -1    0    0    0    0 -0.00000000000E+00 -0.00000000000E+00 -0.45593999997E+02  0.45594000000E+02  0.51100000000E-03 0.  1.
    9900012    2    1    2    0    0  0.41579624467E+00  0.10143814223E+01 -0.43721282960E+00  0.90007741026E+02  0.90000002408E+02 0.  0.
        -12    1    1    2    0    0 -0.41579624467E+00 -0.10143814223E+01  0.43721282960E+00  0.11802589739E+01  0.00000000000E+00 0.  1.
         11    1    3    3    0    0 -0.68240157205E+01  0.83326983363E+01 -0.43640037723E+01  0.11620911380E+02  0.51100000000E-03 0. -1.
        -11    1    3    3    0    0 -0.20582461297E+02  0.25312972497E+02 -0.85496127485E+01  0.33726549899E+02  0.51100000000E-03 0.  1.
         12    1    3    3    0    0  0.27822273262E+02 -0.32631289411E+02  0.12476403691E+02  0.44660279748E+02  0.00000000000E+00 0. -1.
</event>
<event>
 7    1  0.2641103E-015  0.9000772E+02  0.7816164E-02  0.1186339E+00
        -11   -1    0    0    0    0  0.00000000000E+00  0.00000000000E+00  0.45593999997E+02  0.45594000000E+02  0.51100000000E-03 0.  1.
         11   -1    0    0    0    0 -0.00000000000E+00 -0.00000000000E+00 -0.45593999997E+02  0.45594000000E+02  0.51100000000E-03 0. -1.
    9900012    2    1    2    0    0  0.11043515059E+01 -0.24535228845E+00  0.33656502618E+00  0.90007717826E+02  0.89999978901E+02 0.  0.
        -12    1    1    2    0    0 -0.11043515059E+01  0.24535228845E+00 -0.33656502618E+00  0.11802821742E+01  0.00000000000E+00 0.  1.
         11    1    3    3    0    0 -0.20243912415E+01  0.61016653987E+01  0.68954537936E+01  0.94273943281E+01  0.51100000000E-03 0. -1.
        -11    1    3    3    0    0 -0.88954425189E+01  0.27293004851E+02  0.20911620016E+02  0.35515248322E+02  0.51100000000E-03 0.  1.
         12    1    3    3    0    0  0.12024185266E+02 -0.33640022539E+02 -0.27470508784E+02  0.45065075175E+02  0.00000000000E+00 0. -1.
</event>
<event>
 7    1  0.2641103E-015  0.9000777E+02  0.7816164E-02  0.1186339E+00
        -11   -1    0    0    0    0  0.00000000000E+00  0.00000000000E+00  0.45593999997E+02  0.45594000000E+02  0.51100000000E-03 0.  1.
         11   -1    0    0    0    0 -0.00000000000E+00 -0.00000000000E+00 -0.45593999997E+02  0.45594000000E+02  0.51100000000E-03 0. -1.
    9900012    2    1    2    0    0  0.11571976281E+00  0.11735374248E+01 -0.48658329027E-01  0.90007767487E+02  0.90000029218E+02 0.  0.
        -12    1    1    2    0    0 -0.11571976281E+00 -0.11735374248E+01  0.48658329027E-01  0.11802325126E+01  0.00000000000E+00 0.  1.
         11    1    3    3    0    0  0.32154886315E+01  0.62968665483E+01 -0.25849393015E+01  0.75280679407E+01  0.51100000000E-03 0. -1.
        -11    1    3    3    0    0 -0.65100844437E+01  0.34432845002E+02  0.18572764468E+02  0.39660428574E+02  0.51100000000E-03 0.  1.
         12    1    3    3    0    0  0.34103155751E+01 -0.39556174126E+02 -0.16036483495E+02  0.42819270973E+02  0.00000000000E+00 0. -1.
</event>
<event>
 7    1  0.2641103E-015  0.9000782E+02  0.7816164E-02  0.1186339E+00
        -11   -1    0    0    0    0  0.00000000000E+00  0.00000000000E+00  0.45593999997E+02  0.45594000000E+02  0.51100000000E-03 0.  1.
         11   -1    0    0    0    0 -0.00000000000E+00 -0.00000000000E+00 -0.45593999997E+02  0.45594000000E+02  0.51100000000E-03 0. -1.
    9900012    2    1    2    0    0 -0.90525694085E+00 -0.31314474875E+00 -0.68941007127E+00  0.90007815265E+02  0.90000077626E+02 0.  0.
        -12    1    1    2    0    0  0.90525694085E+00  0.31314474875E+00  0.68941007127E+00  0.11801847351E+01  0.00000000000E+00 0.  1.
         11    1    3    3    0    0  0.32318135463E+02 -0.10342227785E+02 -0.84078318809E+01  0.34958764174E+02  0.51100000000E-03 0. -1.
        -11    1    3    3    0    0  0.90496102872E+01 -0.37956471192E+01 -0.47330164140E+00  0.98247848886E+01  0.51100000000E-03 0.  1.
        -12    1    3    3    0    0 -0.42273002691E+02  0.13824730156E+02  0.81917234510E+01  0.45224266202E+02  0.00000000000E+00 0.  1.
</event>
<event>
 7    1  0.2641103E-015  0.9000773E+02  0.7816164E-02  0.1186339E+00
        -11   -1    0    0    0    0  0.00000000000E+00  0.00000000000E+00  0.45593999997E+02  0.45594000000E+02  0.51100000000E-03 0. -1.
         11   -1    0    0    0    0 -0.00000000000E+00 -0.00000000000E+00 -0.45593999997E+02  0.45594000000E+02  0.51100000000E-03 0.  1.
    9900012    2    1    2    0    0 -0.31806098252E+00 -0.62307248000E+00  0.95061357497E+00  0.90007725340E+02  0.89999986515E+02 0.  0.
        -12    1    1    2    0    0  0.31806098252E+00  0.62307248000E+00 -0.95061357497E+00  0.11802746599E+01  0.00000000000E+00 0.  1.
         11    1    3    3    0    0 -0.14054463728E+01 -0.52982512946E+01 -0.70053521186E+01  0.88950382154E+01  0.51100000000E-03 0. -1.
        -11    1    3    3    0    0 -0.34389999075E+02  0.20563334691E+02 -0.44333841277E+01  0.40313492345E+02  0.51100000000E-03 0.  1.
         12    1    3    3    0    0  0.35477384465E+02 -0.15888155876E+02  0.12389349821E+02  0.40799194779E+02  0.00000000000E+00 0. -1.
</event>
<event>
 7    1  0.2641103E-015  0.9000774E+02  0.7816164E-02  0.1186339E+00
        -11   -1    0    0    0    0  0.00000000000E+00  0.00000000000E+00  0.45593999997E+02  0.45594000000E+02  0.51100000000E-03 0. -1.
         11   -1    0    0    0    0 -0.00000000000E+00 -0.00000000000E+00 -0.45593999997E+02  0.45594000000E+02  0.51100000000E-03 0.  1.
    9900012    2    1    2    0    0 -0.68140547754E+00  0.95684711118E+00  0.11462486906E+00  0.90007742113E+02  0.90000003509E+02 0.  0.
        -12    1    1    2    0    0  0.68140547754E+00 -0.95684711118E+00 -0.11462486906E+00  0.11802578869E+01  0.00000000000E+00 0.  1.
         11    1    3    3    0    0 -0.17219991816E+02  0.55547896724E+01 -0.18525655168E+02  0.25895631024E+02  0.51100000000E-03 0. -1.
        -11    1    3    3    0    0  0.14186504814E+02  0.37251866234E+01 -0.19839291958E+02  0.24672483456E+02  0.51100000000E-03 0.  1.
         12    1    3    3    0    0  0.23520815251E+01 -0.83231291846E+01  0.38479571995E+02  0.39439627633E+02  0.00000000000E+00 0. -1.
</event>
<event>
 7    1  0.2641103E-015  0.9000775E+02  0.7816164E-02  0.1186339E+00
        -11   -1    0    0    0    0  0.00000000000E+00  0.00000000000E+00  0.45593999997E+02  0.45594000000E+02  0.51100000000E-03 0.  1.
         11   -1    0    0    0    0 -0.00000000000E+00 -0.00000000000E+00 -0.45593999997E+02  0.45594000000E+02  0.51100000000E-03 0. -1.
    9900012    2    1    2    0    0 -0.51785918127E+00 -0.40650751910E+00 -0.97957051818E+00  0.90007752189E+02  0.90000013718E+02 0.  0.
        -12    1    1    2    0    0  0.51785918127E+00  0.40650751910E+00  0.97957051818E+00  0.11802478108E+01  0.00000000000E+00 0.  1.
         11    1    3    3    0    0 -0.99296711638E+01  0.12949517633E+02 -0.31605772534E+02  0.35569836014E+02  0.51100000000E-03 0. -1.
        -11    1    3    3    0    0 -0.58613615399E+01  0.35254906884E+01 -0.74258307211E+01  0.10095920258E+02  0.51100000000E-03 0.  1.
        -12    1    3    3    0    0  0.15273173522E+02 -0.16881515840E+02  0.38052032737E+02  0.44341995917E+02  0.00000000000E+00 0.  1.
</event>
<event>
 7    1  0.2641103E-015  0.9000778E+02  0.7816164E-02  0.1186339E+00
        -11   -1    0    0    0    0  0.00000000000E+00  0.00000000000E+00  0.45593999997E+02  0.45594000000E+02  0.51100000000E-03 0.  1.
         11   -1    0    0    0    0 -0.00000000000E+00 -0.00000000000E+00 -0.45593999997E+02  0.45594000000E+02  0.51100000000E-03 0. -1.
    9900012    2    1    2    0    0  0.42695293438E+00  0.74530894707E-02 -0.11002563410E+01  0.90007784607E+02  0.90000046564E+02 0.  0.
        -12    1    1    2    0    0 -0.42695293438E+00 -0.74530894707E-02  0.11002563410E+01  0.11802153925E+01  0.00000000000E+00 0.  1.
         11    1    3    3    0    0  0.23187410002E+02 -0.20855728514E+02 -0.23551596758E+02  0.39080623134E+02  0.51100000000E-03 0. -1.
        -11    1    3    3    0    0  0.87037643317E+01  0.30453609071E+01  0.71296665762E+01  0.11655980540E+02  0.51100000000E-03 0.  1.
        -12    1    3    3    0    0 -0.31464221400E+02  0.17817820696E+02  0.15321673840E+02  0.39271180934E+02  0.00000000000E+00 0.  1.
</event>
<event>
 7    1  0.2641103E-015  0.9000770E+02  0.7816164E-02  0.1186339E+00
        -11   -1    0    0    0    0  0.00000000000E+00  0.00000000000E+00  0.45593999997E+02  0.45594000000E+02  0.51100000000E-03 0. -1.
         11   -1    0    0    0    0 -0.00000000000E+00 -0.00000000000E+00 -0.45593999997E+02  0.45594000000E+02  0.51100000000E-03 0.  1.
    9900012    2    1    2    0    0 -0.31041067473E+00  0.79839905918E+00 -0.81198274846E+00  0.90007698416E+02  0.89999959235E+02 0.  0.
        -12    1    1    2    0    0  0.31041067473E+00 -0.79839905918E+00  0.81198274846E+00  0.11803015837E+01  0.00000000000E+00 0.  1.
         11    1    3    3    0    0  0.28877919837E+02 -0.71055030136E+01 -0.19970269633E+02  0.35822257002E+02  0.51100000000E-03 0. -1.
        -11    1    3    3    0    0 -0.21821908111E+01 -0.12533933559E+02  0.15601473338E+02  0.20131254749E+02  0.51100000000E-03 0.  1.
        -12    1    3    3    0    0 -0.27006139701E+02  0.20437835631E+02  0.35568135474E+01  0.34054186666E+02  0.00000000000E+00 0.  1.
</event>
<event>
 7    1  0.2641103E-015  0.9000772E+02  0.7816164E-02  0.1186339E+00
        -11   -1    0    0    0    0  0.00000000000E+00  0.00000000000E+00  0.45593999997E+02  0.45594000000E+02  0.51100000000E-03 0. -1.
         11   -1    0    0    0    0 -0.00000000000E+00 -0.00000000000E+00 -0.45593999997E+02  0.45594000000E+02  0.51100000000E-03 0.  1.
    9900012    2    1    2    0    0 -0.89542165416E-01 -0.78687155353E+00  0.87514792336E+00  0.90007716759E+02  0.89999977820E+02 0.  0.
        -12    1    1    2    0    0  0.89542165416E-01  0.78687155353E+00 -0.87514792336E+00  0.11802832410E+01  0.00000000000E+00 0.  1.
         11    1    3    3    0    0 -0.34654723857E+02 -0.33821734275E+01  0.45766013681E+01  0.35118859080E+02  0.51100000000E-03 0. -1.
        -11    1    3    3    0    0 -0.96337287511E+01 -0.22132251157E+01 -0.33205483441E+01  0.10427518239E+02  0.51100000000E-03 0.  1.
        -12    1    3    3    0    0  0.44198910443E+02  0.48085269897E+01 -0.38090510073E+00  0.44461339440E+02  0.00000000000E+00 0.  1.
</event>
<event>
 7    1  0.2641103E-015  0.9000771E+02  0.7816164E-02  0.1186339E+00
        -11   -1    0    0    0    0  0.00000000000E+00  0.00000000000E+00  0.45593999997E+02  0.45594000000E+02  0.51100000000E-03 0. -1.
         11   -1    0    0    0    0 -0.00000000000E+00 -0.00000000000E+00 -0.45593999997E+02  0.45594000000E+02  0.51100000000E-03 0.  1.
    9900012    2    1    2    0    0  0.11584999680E+01 -0.21407472985E+00  0.71664130121E-01  0.90007709395E+02  0.89999970359E+02 0.  0.
        -12    1    1    2    0    0 -0.11584999680E+01  0.21407472985E+00 -0.71664130121E-01  0.11802906054E+01  0.00000000000E+00 0.  1.
         11    1    3    3    0    0 -0.18834416317E+01  0.48361571742E+01  0.11440935900E+02  0.12563072201E+02  0.51100000000E-03 0. -1.
        -11    1    3    3    0    0  0.21973526635E+02 -0.17061295625E+02  0.23211908634E+02  0.36231428124E+02  0.51100000000E-03 0.  1.
         12    1    3    3    0    0 -0.18931585036E+02  0.12011063721E+02 -0.34581180404E+02  0.41213209070E+02  0.00000000000E+00 0. -1.
</event>
<event>
 7    1  0.2641103E-015  0.9000773E+02  0.7816164E-02  0.1186339E+00
        -11   -1    0    0    0    0  0.00000000000E+00  0.00000000000E+00  0.45593999997E+02  0.45594000000E+02  0.51100000000E-03 0. -1.
         11   -1    0    0    0    0 -0.00000000000E+00 -0.00000000000E+00 -0.45593999997E+02  0.45594000000E+02  0.51100000000E-03 0.  1.
    9900012    2    1    2    0    0  0.91411026791E+00  0.36091016269E+00  0.65359946580E+00  0.90007726308E+02  0.89999987495E+02 0.  0.
        -12    1    1    2    0    0 -0.91411026791E+00 -0.36091016269E+00 -0.65359946580E+00  0.11802736925E+01  0.00000000000E+00 0.  1.
         11    1    3    3    0    0  0.70697380521E+00  0.78648396243E+01  0.63517370305E+00  0.79220552997E+01  0.51100000000E-03 0. -1.
        -11    1    3    3    0    0  0.39623439144E+02  0.49625542742E+01  0.57665694403E+01  0.40347208056E+02  0.51100000000E-03 0.  1.
         12    1    3    3    0    0 -0.39416302682E+02 -0.12466483736E+02 -0.57481436776E+01  0.41738462952E+02  0.00000000000E+00 0. -1.
</event>
<event>
 7    1  0.2641103E-015  0.9000792E+02  0.7816164E-02  0.1186339E+00
        -11   -1    0    0    0    0  0.00000000000E+00  0.00000000000E+00  0.45593999997E+02  0.45594000000E+02  0.51100000000E-03 0. -1.
         11   -1    0    0    0    0 -0.00000000000E+00 -0.00000000000E+00 -0.45593999997E+02  0.45594000000E+02  0.51100000000E-03 0.  1.
    9900012    2    1    2    0    0  0.66532475850E-01 -0.21406801838E+00  0.11585947646E+01  0.90007918005E+02  0.90000181722E+02 0.  0.
        -12    1    1    2    0    0 -0.66532475850E-01  0.21406801838E+00 -0.11585947646E+01  0.11800819952E+01  0.00000000000E+00 0.  1.
         11    1    3    3    0    0 -0.20574143671E+02  0.33412112243E+01  0.34866483288E+02  0.40621801257E+02  0.51100000000E-03 0. -1.
        -11    1    3    3    0    0  0.83978761783E+00  0.80275521966E+01  0.62405217461E+00  0.80954480352E+01  0.51100000000E-03 0.  1.
        -12    1    3    3    0    0  0.19800888529E+02 -0.11582831439E+02 -0.34331940698E+02  0.41290668713E+02  0.00000000000E+00 0.  1.
</event>
<event>
 7    1  0.2641103E-015  0.9000773E+02  0.7816164E-02  0.1186339E+00
        -11   -1    0    0    0    0  0.00000000000E+00  0.00000000000E+00  0.45593999997E+02  0.45594000000E+02  0.51100000000E-03 0.  1.
         11   -1    0    0    0    0 -0.00000000000E+00 -0.00000000000E+00 -0.45593999997E+02  0.45594000000E+02  0.51100000000E-03 0. -1.
    9900012    2    1    2    0    0  0.12284680760E+00 -0.11595087661E+01 -0.18301887035E+00  0.90007725530E+02  0.89999986707E+02 0.  0.
        -12    1    1    2    0    0 -0.12284680760E+00  0.11595087661E+01  0.18301887035E+00  0.11802744697E+01  0.00000000000E+00 0.  1.
         11    1    3    3    0    0  0.27226177256E+02  0.31539138750E+02  0.89040665267E+01  0.42605919800E+02  0.51100000000E-03 0. -1.
        -11    1    3    3    0    0  0.29713575293E+01 -0.30197074450E+01 -0.13482691065E+01  0.44458327077E+01  0.51100000000E-03 0.  1.
        -12    1    3    3    0    0 -0.30074687977E+02 -0.29678940071E+02 -0.77388162905E+01  0.42955973022E+02  0.00000000000E+00 0.  1.
</event>
<event>
 7    1  0.2641103E-015  0.9000778E+02  0.7816164E-02  0.1186339E+00
        -11   -1    0    0    0    0  0.00000000000E+00  0.00000000000E+00  0.45593999997E+02  0.45594000000E+02  0.51100000000E-03 0.  1.
         11   -1    0    0    0    0 -0.00000000000E+00 -0.00000000000E+00 -0.45593999997E+02  0.45594000000E+02  0.51100000000E-03 0. -1.
    9900012    2    1    2    0    0  0.10124291511E+01  0.29611330494E+00  0.52937031026E+00  0.90007775953E+02  0.90000037796E+02 0.  0.
        -12    1    1    2    0    0 -0.10124291511E+01 -0.29611330494E+00 -0.52937031026E+00  0.11802240468E+01  0.00000000000E+00 0.  1.
         11    1    3    3    0    0  0.13076847082E+02  0.35484481611E+02 -0.50591111314E+01  0.38154252325E+02  0.51100000000E-03 0. -1.
        -11    1    3    3    0    0  0.16874976670E+01  0.63866719917E+01  0.46041808236E+01  0.80520623956E+01  0.51100000000E-03 0.  1.
        -12    1    3    3    0    0 -0.13751915597E+02 -0.41575040298E+02  0.98430061809E+00  0.43801461232E+02  0.00000000000E+00 0.  1.
</event>
<event>
 7    1  0.2641103E-015  0.9000784E+02  0.7816164E-02  0.1186339E+00
        -11   -1    0    0    0    0  0.00000000000E+00  0.00000000000E+00  0.45593999997E+02  0.45594000000E+02  0.51100000000E-03 0.  1.
         11   -1    0    0    0    0 -0.00000000000E+00 -0.00000000000E+00 -0.45593999997E+02  0.45594000000E+02  0.51100000000E-03 0. -1.
    9900012    2    1    2    0    0  0.24030856903E+00 -0.31335517639E+00 -0.11121351889E+01  0.90007837150E+02  0.90000099800E+02 0.  0.
        -12    1    1    2    0    0 -0.24030856903E+00  0.31335517639E+00  0.11121351889E+01  0.11801628503E+01  0.00000000000E+00 0.  1.
         11    1    3    3    0    0 -0.18728094425E+01 -0.83956994926E+01  0.39393472066E+01  0.94611649311E+01  0.51100000000E-03 0. -1.
        -11    1    3    3    0    0 -0.31628310255E+02 -0.40665620241E+01  0.19229547421E+02  0.37237916571E+02  0.51100000000E-03 0.  1.
         12    1    3    3    0    0  0.33741428267E+02  0.12148906340E+02 -0.24281029817E+02  0.43308755647E+02  0.00000000000E+00 0. -1.
</event>
<event>
 7    1  0.2641103E-015  0.9000772E+02  0.7816164E-02  0.1186339E+00
        -11   -1    0    0    0    0  0.00000000000E+00  0.00000000000E+00  0.45593999997E+02  0.45594000000E+02  0.51100000000E-03 0.  1.
         11   -1    0    0    0    0 -0.00000000000E+00 -0.00000000000E+00 -0.45593999997E+02  0.45594000000E+02  0.51100000000E-03 0. -1.
    9900012    2    1    2    0    0 -0.70242432339E+00 -0.56803972783E+00 -0.75960260482E+00  0.90007718178E+02  0.89999979258E+02 0.  0.
        -12    1    1    2    0    0  0.70242432339E+00  0.56803972783E+00  0.75960260482E+00  0.11802818222E+01  0.00000000000E+00 0.  1.
         11    1    3    3    0    0  0.30962682815E+01  0.14342622895E+01 -0.77706710692E+01  0.84868907565E+01  0.51100000000E-03 0. -1.
        -11    1    3    3    0    0  0.35745812348E+02 -0.16133118559E+02  0.28324174590E+01  0.39320010221E+02  0.51100000000E-03 0.  1.
         12    1    3    3    0    0 -0.39544504953E+02  0.14130816542E+02  0.41786510054E+01  0.42200817200E+02  0.00000000000E+00 0. -1.
</event>
<event>
 7    1  0.2641103E-015  0.9000776E+02  0.7816164E-02  0.1186339E+00
        -11   -1    0    0    0    0  0.00000000000E+00  0.00000000000E+00  0.45593999997E+02  0.45594000000E+02  0.51100000000E-03 0.  1.
         11   -1    0    0    0    0 -0.00000000000E+00 -0.00000000000E+00 -0.45593999997E+02  0.45594000000E+02  0.51100000000E-03 0. -1.
    9900012    2    1    2    0    0  0.78238737232E-01 -0.11714943072E+01 -0.12018837125E+00  0.90007760424E+02  0.90000022062E+02 0.  0.
        -12    1    1    2    0    0 -0.78238737232E-01  0.11714943072E+01  0.12018837125E+00  0.11802395759E+01  0.00000000000E+00 0.  1.
         11    1    3    3    0    0  0.67055296114E+01 -0.22605972118E+01  0.78994878202E+01  0.10605486090E+02  0.51100000000E-03 0. -1.
        -11    1    3    3    0    0 -0.38219501493E+02  0.18393259982E+02  0.37241000853E+00  0.42416753725E+02  0.51100000000E-03 0.  1.
         12    1    3    3    0    0  0.31592210618E+02 -0.17304157078E+02 -0.83920862000E+01  0.36985520609E+02  0.00000000000E+00 0. -1.
</event>
<event>
 7    1  0.2641103E-015  0.9000767E+02  0.7816164E-02  0.1186339E+00
        -11   -1    0    0    0    0  0.00000000000E+00  0.00000000000E+00  0.45593999997E+02  0.45594000000E+02  0.51100000000E-03 0.  1.
         11   -1    0    0    0    0 -0.00000000000E+00 -0.00000000000E+00 -0.45593999997E+02  0.45594000000E+02  0.51100000000E-03 0. -1.
    9900012    2    1    2    0    0 -0.44462530889E-01 -0.71373334079E+00 -0.93902908669E+00  0.90007674696E+02  0.89999935202E+02 0.  0.
        -12    1    1    2    0    0  0.44462530889E-01  0.71373334079E+00  0.93902908669E+00  0.11803253043E+01  0.00000000000E+00 0.  1.
         11    1    3    3    0    0  0.95809579536E+01  0.65087145383E+00  0.42539632458E+01  0.10503075384E+02  0.51100000000E-03 0. -1.
        -11    1    3    3    0    0  0.12958170456E+02  0.34490448248E+02 -0.45587396052E+01  0.37125292039E+02  0.51100000000E-03 0.  1.
         12    1    3    3    0    0 -0.22583590940E+02 -0.35855053043E+02 -0.63425272730E+00  0.42379307273E+02  0.00000000000E+00 0. -1.
</event>
<event>
 7    1  0.2641103E-015  0.9000776E+02  0.7816164E-02  0.1186339E+00
        -11   -1    0    0    0    0  0.00000000000E+00  0.00000000000E+00  0.45593999997E+02  0.45594000000E+02  0.51100000000E-03 0. -1.
         11   -1    0    0    0    0 -0.00000000000E+00 -0.00000000000E+00 -0.45593999997E+02  0.45594000000E+02  0.51100000000E-03 0.  1.
    9900012    2    1    2    0    0  0.37079789801E+00 -0.49179041971E+00  0.10067821618E+01  0.90007763066E+02  0.90000024739E+02 0.  0.
        -12    1    1    2    0    0 -0.37079789801E+00  0.49179041971E+00 -0.10067821618E+01  0.11802369336E+01  0.00000000000E+00 0.  1.
         11    1    3    3    0    0  0.20436511983E+02  0.21798156138E+02  0.25354464749E+02  0.39187491831E+02  0.51100000000E-03 0. -1.
        -11    1    3    3    0    0 -0.89136138617E+01 -0.43095133645E+01  0.76140313194E+01  0.12489911557E+02  0.51100000000E-03 0.  1.
        -12    1    3    3    0    0 -0.11152100223E+02 -0.17980433193E+02 -0.31961713907E+02  0.38330359678E+02  0.00000000000E+00 0.  1.
</event>
<event>
 7    1  0.2641103E-015  0.9000784E+02  0.7816164E-02  0.1186339E+00
        -11   -1    0    0    0    0  0.00000000000E+00  0.00000000000E+00  0.45593999997E+02  0.45594000000E+02  0.51100000000E-03 0. -1.
         11   -1    0    0    0    0 -0.00000000000E+00 -0.00000000000E+00 -0.45593999997E+02  0.45594000000E+02  0.51100000000E-03 0.  1.
    9900012    2    1    2    0    0 -0.30151308953E+00 -0.79007643740E+00  0.82319815000E+00  0.90007836404E+02  0.90000099044E+02 0.  0.
        -12    1    1    2    0    0  0.30151308953E+00  0.79007643740E+00 -0.82319815000E+00  0.11801635964E+01  0.00000000000E+00 0.  1.
         11    1    3    3    0    0  0.96067629802E+01  0.32913673763E+01 -0.16118531429E+01  0.10282074935E+02  0.51100000000E-03 0. -1.
        -11    1    3    3    0    0  0.23467672831E+02  0.21476376761E+02 -0.13782019427E+02  0.34668580684E+02  0.51100000000E-03 0.  1.
         12    1    3    3    0    0 -0.33375948900E+02 -0.25557820574E+02  0.16217070720E+02  0.45057180785E+02  0.00000000000E+00 0. -1.
</event>
<event>
 7    1  0.2641103E-015  0.9000793E+02  0.7816164E-02  0.1186339E+00
        -11   -1    0    0    0    0  0.00000000000E+00  0.00000000000E+00  0.45593999997E+02  0.45594000000E+02  0.51100000000E-03 0. -1.
         11   -1    0    0    0    0 -0.00000000000E+00 -0.00000000000E+00 -0.45593999997E+02  0.45594000000E+02  0.51100000000E-03 0.  1.
    9900012    2    1    2    0    0  0.63477541676E+00 -0.85417002045E+00  0.50991659057E+00  0.90007931704E+02  0.90000195602E+02 0.  0.
        -12    1    1    2    0    0 -0.63477541676E+00  0.85417002045E+00 -0.50991659057E+00  0.11800682959E+01  0.00000000000E+00 0.  1.
         11    1    3    3    0    0 -0.51943238823E+01  0.69699119166E+01  0.55017096686E+00  0.87099575816E+01  0.51100000000E-03 0. -1.
        -11    1    3    3    0    0 -0.50296314931E+01 -0.41307553714E+02 -0.13295042637E+02  0.43684886926E+02  0.51100000000E-03 0.  1.
         12    1    3    3    0    0  0.10858730792E+02  0.33483471777E+02  0.13254788260E+02  0.37613087197E+02  0.00000000000E+00 0. -1.
</event>
<event>
 7    1  0.2641103E-015  0.9000770E+02  0.7816164E-02  0.1186339E+00
        -11   -1    0    0    0    0  0.00000000000E+00  0.00000000000E+00  0.45593999997E+02  0.45594000000E+02  0.51100000000E-03 0.  1.
         11   -1    0    0    0    0 -0.00000000000E+00 -0.00000000000E+00 -0.45593999997E+02  0.45594000000E+02  0.51100000000E-03 0. -1.
    9900012    2    1    2    0    0  0.29742410018E+00 -0.36602840203E+00 -0.10819786917E+01  0.90007696744E+02  0.89999957541E+02 0.  0.
        -12    1    1    2    0    0 -0.29742410018E+00  0.36602840203E+00  0.10819786917E+01  0.11803032559E+01  0.00000000000E+00 0.  1.
         11    1    3    3    0    0 -0.34163145855E+01  0.87581579250E+01  0.15216061513E+01  0.95232253531E+01  0.51100000000E-03 0. -1.
        -11    1    3    3    0    0 -0.31991970927E+02 -0.12410879692E+02  0.18392081269E+02  0.38933080949E+02  0.51100000000E-03 0.  1.
         12    1    3    3    0    0  0.35705709612E+02  0.32866933650E+01 -0.20995666112E+02  0.41551390442E+02  0.00000000000E+00 0. -1.
</event>
<event>
 7    1  0.2641103E-015  0.9000775E+02  0.7816164E-02  0.1186339E+00
        -11   -1    0    0    0    0  0.00000000000E+00  0.00000000000E+00  0.45593999997E+02  0.45594000000E+02  0.51100000000E-03 0. -1.
         11   -1    0    0    0    0 -0.00000000000E+00 -0.00000000000E+00 -0.45593999997E+02  0.45594000000E+02  0.51100000000E-03 0.  1.
    9900012    2    1    2    0    0  0.82627183065E+00 -0.38202801399E+00 -0.75120491275E+00  0.90007754533E+02  0.90000016093E+02 0.  0.
        -12    1    1    2    0    0 -0.82627183065E+00  0.38202801399E+00  0.75120491275E+00  0.11802454671E+01  0.00000000000E+00 0.  1.
         11    1    3    3    0    0  0.28649806146E+02 -0.16264144268E+02  0.13789421388E+02  0.35713889783E+02  0.51100000000E-03 0. -1.
        -11    1    3    3    0    0  0.12909939259E+00 -0.30830959246E+01  0.11332115393E+02  0.11744742938E+02  0.51100000000E-03 0.  1.
        -12    1    3    3    0    0 -0.27952633708E+02  0.18965212178E+02 -0.25872741694E+02  0.42549121812E+02  0.00000000000E+00 0.  1.
</event>
<event>
 7    1  0.2641103E-015  0.9000779E+02  0.7816164E-02  0.1186339E+00
        -11   -1    0    0    0    0  0.00000000000E+00  0.00000000000E+00  0.45593999997E+02  0.45594000000E+02  0.51100000000E-03 0. -1.
         11   -1    0    0    0    0 -0.00000000000E+00 -0.00000000000E+00 -0.45593999997E+02  0.45594000000E+02  0.51100000000E-03 0.  1.
    9900012    2    1    2    0    0 -0.52801985190E-01 -0.97725999628E+00  0.65959988902E+00  0.90007789356E+02  0.90000051376E+02 0.  0.
        -12    1    1    2    0    0  0.52801985190E-01  0.97725999628E+00 -0.65959988902E+00  0.11802106437E+01  0.00000000000E+00 0.  1.
         11    1    3    3    0    0 -0.95033622601E+01  0.34028714728E+01 -0.22686337374E+01  0.10346019902E+02  0.51100000000E-03 0. -1.
        -11    1    3    3    0    0 -0.30830330490E+02 -0.14717996466E+02  0.13530688788E+02  0.36745179785E+02  0.51100000000E-03 0.  1.
         12    1    3    3    0    0  0.40280890764E+02  0.10337864997E+02 -0.10602455162E+02  0.42916589670E+02  0.00000000000E+00 0. -1.
</event>
<event>
 7    1  0.2641103E-015  0.9000743E+02  0.7816164E-02  0.1186340E+00
        -11   -1    0    0    0    0  0.00000000000E+00  0.00000000000E+00  0.45593999997E+02  0.45594000000E+02  0.51100000000E-03 0.  1.
         11   -1    0    0    0    0 -0.00000000000E+00 -0.00000000000E+00 -0.45593999997E+02  0.45594000000E+02  0.51100000000E-03 0. -1.
    9900012    2    1    2    0    0 -0.40820593142E+00  0.13189774580E+00 -0.10998671635E+01  0.90007433663E+02  0.89999690987E+02 0.  0.
        -12    1    1    2    0    0  0.40820593142E+00 -0.13189774580E+00  0.10998671635E+01  0.11805663366E+01  0.00000000000E+00 0.  1.
         11    1    3    3    0    0 -0.72774260166E+01 -0.36959359268E+02 -0.11717358594E+02  0.39449355630E+02  0.51100000000E-03 0. -1.
        -11    1    3    3    0    0 -0.77071263021E+01  0.48425549620E+01 -0.65598241645E+01  0.11219689288E+02  0.51100000000E-03 0.  1.
        -12    1    3    3    0    0  0.14576346387E+02  0.32248702052E+02  0.17177315595E+02  0.39338388745E+02  0.00000000000E+00 0.  1.
</event>
<event>
 7    1  0.2641103E-015  0.9000773E+02  0.7816164E-02  0.1186339E+00
        -11   -1    0    0    0    0  0.00000000000E+00  0.00000000000E+00  0.45593999997E+02  0.45594000000E+02  0.51100000000E-03 0.  1.
         11   -1    0    0    0    0 -0.00000000000E+00 -0.00000000000E+00 -0.45593999997E+02  0.45594000000E+02  0.51100000000E-03 0. -1.
    9900012    2    1    2    0    0 -0.32740322921E+00  0.10857206158E+01  0.32720438150E+00  0.90007726795E+02  0.89999987989E+02 0.  0.
        -12    1    1    2    0    0  0.32740322921E+00 -0.10857206158E+01 -0.32720438150E+00  0.11802732045E+01  0.00000000000E+00 0.  1.
         11    1    3    3    0    0  0.17418615363E+02  0.91688358259E+01 -0.32965974490E+02  0.38395718328E+02  0.51100000000E-03 0. -1.
        -11    1    3    3    0    0  0.81245380128E+01  0.12630260994E+01 -0.25818741375E+00  0.82261785691E+01  0.51100000000E-03 0.  1.
        -12    1    3    3    0    0 -0.25870556605E+02 -0.93461413094E+01  0.33551366285E+02  0.43385829899E+02  0.00000000000E+00 0.  1.
</event>
<event>
 7    1  0.2641103E-015  0.9000767E+02  0.7816164E-02  0.1186339E+00
        -11   -1    0    0    0    0  0.00000000000E+00  0.00000000000E+00  0.45593999997E+02  0.45594000000E+02  0.51100000000E-03 0.  1.
         11   -1    0    0    0    0 -0.00000000000E+00 -0.00000000000E+00 -0.45593999997E+02  0.45594000000E+02  0.51100000000E-03 0. -1.
    9900012    2    1    2    0    0 -0.18772890912E+00 -0.79746796222E+00 -0.84969713145E+00  0.90007668475E+02  0.89999928899E+02 0.  0.
        -12    1    1    2    0    0  0.18772890912E+00  0.79746796222E+00  0.84969713145E+00  0.11803315252E+01  0.00000000000E+00 0.  1.
         11    1    3    3    0    0 -0.33688194138E+02  0.91733822078E+01 -0.67934405520E+01  0.35569596571E+02  0.51100000000E-03 0. -1.
        -11    1    3    3    0    0 -0.68598832414E+01  0.73388861449E+01 -0.46889501925E+00  0.10056694822E+02  0.51100000000E-03 0.  1.
        -12    1    3    3    0    0  0.40360348471E+02 -0.17309736315E+02  0.64126384398E+01  0.44381377082E+02  0.00000000000E+00 0.  1.
</event>
<event>
 7    1  0.2641103E-015  0.9000772E+02  0.7816164E-02  0.1186339E+00
        -11   -1    0    0    0    0  0.00000000000E+00  0.00000000000E+00  0.45593999997E+02  0.45594000000E+02  0.51100000000E-03 0.  1.
         11   -1    0    0    0    0 -0.00000000000E+00 -0.00000000000E+00 -0.45593999997E+02  0.45594000000E+02  0.51100000000E-03 0. -1.
    9900012    2    1    2    0    0  0.96493184790E-01 -0.11260654552E+01  0.34017618599E+00  0.90007722837E+02  0.89999983978E+02 0.  0.
        -12    1    1    2    0    0 -0.96493184790E-01  0.11260654552E+01 -0.34017618599E+00  0.11802771631E+01  0.00000000000E+00 0.  1.
         11    1    3    3    0    0 -0.28353773335E+02  0.20548229468E+02 -0.15508994659E+02  0.38297455688E+02  0.51100000000E-03 0. -1.
        -11    1    3    3    0    0 -0.44410358939E+01 -0.74972158124E+01 -0.52185404884E+01  0.10156978381E+02  0.51100000000E-03 0.  1.
        -12    1    3    3    0    0  0.32891302414E+02 -0.14177079111E+02  0.21067711333E+02  0.41553288768E+02  0.00000000000E+00 0.  1.
</event>
<event>
 7    1  0.2641103E-015  0.9000773E+02  0.7816164E-02  0.1186339E+00
        -11   -1    0    0    0    0  0.00000000000E+00  0.00000000000E+00  0.45593999997E+02  0.45594000000E+02  0.51100000000E-03 0.  1.
         11   -1    0    0    0    0 -0.00000000000E+00 -0.00000000000E+00 -0.45593999997E+02  0.45594000000E+02  0.51100000000E-03 0. -1.
    9900012    2    1    2    0    0 -0.92760238743E+00  0.12896422344E+00  0.71830127980E+00  0.90007731095E+02  0.89999992345E+02 0.  0.
        -12    1    1    2    0    0  0.92760238743E+00 -0.12896422344E+00 -0.71830127980E+00  0.11802689052E+01  0.00000000000E+00 0.  1.
         11    1    3    3    0    0  0.34663140426E+01  0.13347537993E+02 -0.37056305059E+02  0.39539117951E+02  0.51100000000E-03 0. -1.
        -11    1    3    3    0    0  0.68302580804E+01 -0.53474572807E+01 -0.15598274646E+01  0.88136704496E+01  0.51100000000E-03 0.  1.
        -12    1    3    3    0    0 -0.11224174510E+02 -0.78711164887E+01  0.39334433803E+02  0.41654942694E+02  0.00000000000E+00 0.  1.
</event>
<event>
 7    1  0.2641103E-015  0.9000776E+02  0.7816164E-02  0.1186339E+00
        -11   -1    0    0    0    0  0.00000000000E+00  0.00000000000E+00  0.45593999997E+02  0.45594000000E+02  0.51100000000E-03 0.  1.
         11   -1    0    0    0    0 -0.00000000000E+00 -0.00000000000E+00 -0.45593999997E+02  0.45594000000E+02  0.51100000000E-03 0. -1.
    9900012    2    1    2    0    0 -0.10041599593E+01  0.47629703899E+00  0.39720341528E+00  0.90007759920E+02  0.90000021551E+02 0.  0.
        -12    1    1    2    0    0  0.10041599593E+01 -0.47629703899E+00 -0.39720341528E+00  0.11802400799E+01  0.00000000000E+00 0.  1.
         11    1    3    3    0    0 -0.84529747945E+00 -0.72044983898E+01  0.45425715222E+01  0.85588714894E+01  0.51100000000E-03 0. -1.
        -11    1    3    3    0    0 -0.47807766518E+01 -0.18998920174E+02  0.31250621345E+02  0.36883819323E+02  0.51100000000E-03 0.  1.
         12    1    3    3    0    0  0.46219141720E+01  0.26679715602E+02 -0.35395989452E+02  0.44565069107E+02  0.00000000000E+00 0. -1.
</event>
<event>
 7    1  0.2641103E-015  0.9000766E+02  0.7816164E-02  0.1186339E+00
        -11   -1    0    0    0    0  0.00000000000E+00  0.00000000000E+00  0.45593999997E+02  0.45594000000E+02  0.51100000000E-03 0. -1.
         11   -1    0    0    0    0 -0.00000000000E+00 -0.00000000000E+00 -0.45593999997E+02  0.45594000000E+02  0.51100000000E-03 0.  1.
    9900012    2    1    2    0    0  0.10063792682E+01 -0.61054196717E+00  0.87409805395E-01  0.90007660558E+02  0.89999920877E+02 0.  0.
        -12    1    1    2    0    0 -0.10063792682E+01  0.61054196717E+00 -0.87409805395E-01  0.11803394424E+01  0.00000000000E+00 0.  1.
         11    1    3    3    0    0 -0.24905072394E+02 -0.23907495976E+02  0.15334915000E+02  0.37775529289E+02  0.51100000000E-03 0. -1.
        -11    1    3    3    0    0  0.26183293588E+01 -0.22326153840E+01  0.92512056124E+01  0.98704116240E+01  0.51100000000E-03 0.  1.
        -12    1    3    3    0    0  0.23293122303E+02  0.25529569393E+02 -0.24498710807E+02  0.42361719644E+02  0.00000000000E+00 0.  1.
</event>
<event>
 7    1  0.2641103E-015  0.9000790E+02  0.7816164E-02  0.1186339E+00
        -11   -1    0    0    0    0  0.00000000000E+00  0.00000000000E+00  0.45593999997E+02  0.45594000000E+02  0.51100000000E-03 0.  1.
         11   -1    0    0    0    0 -0.00000000000E+00 -0.00000000000E+00 -0.45593999997E+02  0.45594000000E+02  0.51100000000E-03 0. -1.
    9900012    2    1    2    0    0  0.49042421299E-01  0.10320205682E+01 -0.57022907195E+00  0.90007901357E+02  0.90000164855E+02 0.  0.
        -12    1    1    2    0    0 -0.49042421299E-01 -0.10320205682E+01  0.57022907195E+00  0.11800986428E+01  0.00000000000E+00 0.  1.
         11    1    3    3    0    0 -0.66439690308E+01 -0.39442618879E+01  0.32398043743E+01  0.83782969013E+01  0.51100000000E-03 0. -1.
        -11    1    3    3    0    0  0.36509889475E+02 -0.10970993644E+02  0.17196944347E+02  0.41821879753E+02  0.51100000000E-03 0.  1.
         12    1    3    3    0    0 -0.29816878023E+02  0.15947276100E+02 -0.21006977793E+02  0.39807724703E+02  0.00000000000E+00 0. -1.
</event>
<event>
 7    1  0.2641103E-015  0.9000774E+02  0.7816164E-02  0.1186339E+00
        -11   -1    0    0    0    0  0.00000000000E+00  0.00000000000E+00  0.45593999997E+02  0.45594000000E+02  0.51100000000E-03 0.  1.
         11   -1    0    0    0    0 -0.00000000000E+00 -0.00000000000E+00 -0.45593999997E+02  0.45594000000E+02  0.51100000000E-03 0. -1.
    9900012    2    1    2    0    0 -0.52336678240E+00 -0.12371907042E+00 -0.10506126105E+01  0.90007743225E+02  0.90000004636E+02 0.  0.
        -12    1    1    2    0    0  0.52336678240E+00  0.12371907042E+00  0.10506126105E+01  0.11802567749E+01  0.00000000000E+00 0.  1.
         11    1    3    3    0    0 -0.32382939645E+02 -0.20340982412E+02 -0.20376378807E+02  0.43331364612E+02  0.51100000000E-03 0. -1.
        -11    1    3    3    0    0  0.18740654160E+01  0.87134368593E+01 -0.51156100404E+00  0.89273623208E+01  0.51100000000E-03 0.  1.
        -12    1    3    3    0    0  0.29985507447E+02  0.11503826482E+02  0.19837327201E+02  0.37749016293E+02  0.00000000000E+00 0.  1.
</event>
<event>
 7    1  0.2641103E-015  0.9000775E+02  0.7816164E-02  0.1186339E+00
        -11   -1    0    0    0    0  0.00000000000E+00  0.00000000000E+00  0.45593999997E+02  0.45594000000E+02  0.51100000000E-03 0.  1.
         11   -1    0    0    0    0 -0.00000000000E+00 -0.00000000000E+00 -0.45593999997E+02  0.45594000000E+02  0.51100000000E-03 0. -1.
    9900012    2    1    2    0    0 -0.86315154319E+00  0.57639971133E+00 -0.56188712452E+00  0.90007752418E+02  0.90000013950E+02 0.  0.
        -12    1    1    2    0    0  0.86315154319E+00 -0.57639971133E+00  0.56188712452E+00  0.11802475818E+01  0.00000000000E+00 0.  1.
         11    1    3    3    0    0  0.73959761911E+00  0.69596183437E+01  0.91515160271E+01  0.11521004209E+02  0.51100000000E-03 0. -1.
        -11    1    3    3    0    0  0.15657708885E+01  0.35531473703E+02 -0.11231968416E+01  0.35583687743E+02  0.51100000000E-03 0.  1.
         12    1    3    3    0    0 -0.31685200508E+01 -0.41914692336E+02 -0.85902063100E+01  0.42903060466E+02  0.00000000000E+00 0. -1.
</event>
<event>
 7    1  0.2641103E-015  0.9000777E+02  0.7816164E-02  0.1186339E+00
        -11   -1    0    0    0    0  0.00000000000E+00  0.00000000000E+00  0.45593999997E+02  0.45594000000E+02  0.51100000000E-03 0. -1.
         11   -1    0    0    0    0 -0.00000000000E+00 -0.00000000000E+00 -0.45593999997E+02  0.45594000000E+02  0.51100000000E-03 0.  1.
    9900012    2    1    2    0    0  0.93790181784E+00 -0.42076557960E+00 -0.57985955740E+00  0.90007770955E+02  0.90000032731E+02 0.  0.
        -12    1    1    2    0    0 -0.93790181784E+00  0.42076557960E+00  0.57985955740E+00  0.11802290452E+01  0.00000000000E+00 0.  1.
         11    1    3    3    0    0  0.16390384386E+01  0.10721201735E+02  0.47673624553E+01  0.11847293306E+02  0.51100000000E-03 0. -1.
        -11    1    3    3    0    0 -0.24280495731E-01 -0.58905612422E+01 -0.41351494917E+02  0.41768952985E+02  0.51100000000E-03 0.  1.
         12    1    3    3    0    0 -0.67685612503E+00 -0.52514060721E+01  0.36004272905E+02  0.36391524664E+02  0.00000000000E+00 0. -1.
</event>
<event>
 7    1  0.2641103E-015  0.9000769E+02  0.7816164E-02  0.1186339E+00
        -11   -1    0    0    0    0  0.00000000000E+00  0.00000000000E+00  0.45593999997E+02  0.45594000000E+02  0.51100000000E-03 0.  1.
         11   -1    0    0    0    0 -0.00000000000E+00 -0.00000000000E+00 -0.45593999997E+02  0.45594000000E+02  0.51100000000E-03 0. -1.
    9900012    2    1    2    0    0  0.84424109645E-01 -0.11762573883E+01 -0.49173863130E-01  0.90007692014E+02  0.89999952748E+02 0.  0.
        -12    1    1    2    0    0 -0.84424109645E-01  0.11762573883E+01  0.49173863130E-01  0.11803079864E+01  0.00000000000E+00 0.  1.
         11    1    3    3    0    0  0.26244974557E+02 -0.49619678169E+01 -0.16058130506E+02  0.31165419453E+02  0.51100000000E-03 0. -1.
        -11    1    3    3    0    0  0.73848724656E+01 -0.15868389711E+02  0.75064155314E+01  0.19044379952E+02  0.51100000000E-03 0.  1.
        -12    1    3    3    0    0 -0.33545422913E+02  0.19654100140E+02  0.85025411114E+01  0.39797892608E+02  0.00000000000E+00 0.  1.
</event>
<event>
 7    1  0.2641103E-015  0.9000771E+02  0.7816164E-02  0.1186339E+00
        -11   -1    0    0    0    0  0.00000000000E+00  0.00000000000E+00  0.45593999997E+02  0.45594000000E+02  0.51100000000E-03 0. -1.
         11   -1    0    0    0    0 -0.00000000000E+00 -0.00000000000E+00 -0.45593999997E+02  0.45594000000E+02  0.51100000000E-03 0.  1.
    9900012    2    1    2    0    0 -0.54033855999E+00 -0.54692659344E+00  0.89554426497E+00  0.90007705974E+02  0.89999966893E+02 0.  0.
        -12    1    1    2    0    0  0.54033855999E+00  0.54692659344E+00 -0.89554426497E+00  0.11802940263E+01  0.00000000000E+00 0.  1.
         11    1    3    3    0    0  0.13352050037E+02  0.19623902689E+02 -0.34868744464E+01  0.23990270749E+02  0.51100000000E-03 0. -1.
        -11    1    3    3    0    0  0.20991953432E+02  0.58093074376E+01  0.56547422821E+01  0.22503028070E+02  0.51100000000E-03 0.  1.
         12    1    3    3    0    0 -0.34884342029E+02 -0.25980136720E+02 -0.12723235707E+01  0.43514407155E+02  0.00000000000E+00 0. -1.
</event>
<event>
 7    1  0.2641103E-015  0.9000776E+02  0.7816164E-02  0.1186339E+00
        -11   -1    0    0    0    0  0.00000000000E+00  0.00000000000E+00  0.45593999997E+02  0.45594000000E+02  0.51100000000E-03 0.  1.
         11   -1    0    0    0    0 -0.00000000000E+00 -0.00000000000E+00 -0.45593999997E+02  0.45594000000E+02  0.51100000000E-03 0. -1.
    9900012    2    1    2    0    0  0.83583824021E+00  0.78274595924E+00 -0.28576009815E+00  0.90007756112E+02  0.90000017693E+02 0.  0.
        -12    1    1    2    0    0 -0.83583824021E+00 -0.78274595924E+00  0.28576009815E+00  0.11802438876E+01  0.00000000000E+00 0.  1.
         11    1    3    3    0    0  0.36621020494E+01 -0.23027268142E+02 -0.35541371467E+02  0.42507118880E+02  0.51100000000E-03 0. -1.
        -11    1    3    3    0    0  0.58402152707E+01 -0.62030914573E+00  0.74419543333E+01  0.94802733296E+01  0.51100000000E-03 0.  1.
        -12    1    3    3    0    0 -0.86664790799E+01  0.24430323247E+02  0.27813657035E+02  0.38020363902E+02  0.00000000000E+00 0.  1.
</event>
<event>
 7    1  0.3958765E-015  0.9000773E+02  0.7816164E-02  0.1186339E+00
        -11   -1    0    0    0    0  0.00000000000E+00  0.00000000000E+00  0.45593999997E+02  0.45594000000E+02  0.51100000000E-03 0. -1.
         11   -1    0    0    0    0 -0.00000000000E+00 -0.00000000000E+00 -0.45593999997E+02  0.45594000000E+02  0.51100000000E-03 0.  1.
    9900012    2    1    2    0    0 -0.93969584784E+00  0.28093479907E+00  0.65657593478E+00  0.90007726894E+02  0.89999988089E+02 0.  0.
        -12    1    1    2    0    0  0.93969584784E+00 -0.28093479907E+00 -0.65657593478E+00  0.11802731065E+01  0.00000000000E+00 0.  1.
         11    1    3    3    0    0  0.10612470493E+01 -0.47863361961E+01 -0.78542193524E+01  0.92587267687E+01  0.51100000000E-03 0. -1.
        -11    1    3    3    0    0  0.29459001933E+01  0.26946193828E+02 -0.27313712936E+02  0.38481353983E+02  0.51100000000E-03 0.  1.
         12    1    3    3    0    0 -0.49468430904E+01 -0.21878922833E+02  0.35824508224E+02  0.42267646141E+02  0.00000000000E+00 0. -1.
</event>
<event>
 7    1  0.2641103E-015  0.9000772E+02  0.7816164E-02  0.1186339E+00
        -11   -1    0    0    0    0  0.00000000000E+00  0.00000000000E+00  0.45593999997E+02  0.45594000000E+02  0.51100000000E-03 0. -1.
         11   -1    0    0    0    0 -0.00000000000E+00 -0.00000000000E+00 -0.45593999997E+02  0.45594000000E+02  0.51100000000E-03 0.  1.
    9900012    2    1    2    0    0 -0.52705220271E+00 -0.68957818910E+00  0.79985526736E+00  0.90007715902E+02  0.89999976952E+02 0.  0.
        -12    1    1    2    0    0  0.52705220271E+00  0.68957818910E+00 -0.79985526736E+00  0.11802840980E+01  0.00000000000E+00 0.  1.
         11    1    3    3    0    0  0.86369790883E+01 -0.94733082620E+01 -0.98022380959E-01  0.12819929245E+02  0.51100000000E-03 0. -1.
        -11    1    3    3    0    0 -0.12717262577E+01 -0.69028727704E+01 -0.35812405676E+02  0.36493771259E+02  0.51100000000E-03 0.  1.
         12    1    3    3    0    0 -0.78923050333E+01  0.15686602843E+02  0.36710283324E+02  0.40694015398E+02  0.00000000000E+00 0. -1.
</event>
<event>
 7    1  0.2641103E-015  0.9000733E+02  0.7816164E-02  0.1186340E+00
        -11   -1    0    0    0    0  0.00000000000E+00  0.00000000000E+00  0.45593999997E+02  0.45594000000E+02  0.51100000000E-03 0. -1.
         11   -1    0    0    0    0 -0.00000000000E+00 -0.00000000000E+00 -0.45593999997E+02  0.45594000000E+02  0.51100000000E-03 0.  1.
    9900012    2    1    2    0    0  0.68276821327E+00  0.75461297529E+00 -0.59863719854E+00  0.90007330838E+02  0.89999586804E+02 0.  0.
        -12    1    1    2    0    0 -0.68276821327E+00 -0.75461297529E+00  0.59863719854E+00  0.11806691624E+01  0.00000000000E+00 0.  1.
         11    1    3    3    0    0 -0.20646847091E+02 -0.20881203100E+02 -0.29767176490E+02  0.41813894032E+02  0.51100000000E-03 0. -1.
        -11    1    3    3    0    0 -0.58176295104E+00 -0.42061544163E+01  0.16897807355E+01  0.45700702730E+01  0.51100000000E-03 0.  1.
        -12    1    3    3    0    0  0.21911378255E+02  0.25841970491E+02  0.27478758556E+02  0.43623366533E+02  0.00000000000E+00 0.  1.
</event>
<event>
 7    1  0.3649504E-015  0.9000769E+02  0.7816164E-02  0.1186339E+00
        -11   -1    0    0    0    0  0.00000000000E+00  0.00000000000E+00  0.45593999997E+02  0.45594000000E+02  0.51100000000E-03 0.  1.
         11   -1    0    0    0    0 -0.00000000000E+00 -0.00000000000E+00 -0.45593999997E+02  0.45594000000E+02  0.51100000000E-03 0. -1.
    9900012    2    1    2    0    0 -0.11310459286E+01  0.27023295972E+00 -0.20208998168E+00  0.90007690250E+02  0.89999950961E+02 0.  0.
        -12    1    1    2    0    0  0.11310459286E+01 -0.27023295972E+00  0.20208998168E+00  0.11803097500E+01  0.00000000000E+00 0.  1.
         11    1    3    3    0    0  0.23242014328E+01 -0.59890486255E+01  0.73464332344E+01  0.97591340428E+01  0.51100000000E-03 0. -1.
        -11    1    3    3    0    0 -0.10614726023E+02 -0.19471087650E+02  0.28042127176E+02  0.35751315495E+02  0.51100000000E-03 0.  1.
         12    1    3    3    0    0  0.71594786621E+01  0.25730369235E+02 -0.35590650392E+02  0.44497240712E+02  0.00000000000E+00 0. -1.
</event>
<event>
 7    1  0.2641103E-015  0.9000779E+02  0.7816164E-02  0.1186339E+00
        -11   -1    0    0    0    0  0.00000000000E+00  0.00000000000E+00  0.45593999997E+02  0.45594000000E+02  0.51100000000E-03 0. -1.
         11   -1    0    0    0    0 -0.00000000000E+00 -0.00000000000E+00 -0.45593999997E+02  0.45594000000E+02  0.51100000000E-03 0.  1.
    9900012    2    1    2    0    0 -0.10243486042E+01 -0.58024901877E+00  0.83222704535E-01  0.90007786034E+02  0.90000048010E+02 0.  0.
        -12    1    1    2    0    0  0.10243486042E+01  0.58024901877E+00 -0.83222704535E-01  0.11802139659E+01  0.00000000000E+00 0.  1.
         11    1    3    3    0    0  0.10581731709E+02 -0.40686180380E+02  0.83743984567E+01  0.42865707385E+02  0.51100000000E-03 0. -1.
        -11    1    3    3    0    0 -0.36490182334E+01  0.25632676043E+01 -0.75377493609E+01  0.87580443346E+01  0.51100000000E-03 0.  1.
        -12    1    3    3    0    0 -0.79570620799E+01  0.37542663757E+02 -0.75342639130E+00  0.38384034314E+02  0.00000000000E+00 0.  1.
</event>
<event>
 7    1  0.2641103E-015  0.9000774E+02  0.7816164E-02  0.1186339E+00
        -11   -1    0    0    0    0  0.00000000000E+00  0.00000000000E+00  0.45593999997E+02  0.45594000000E+02  0.51100000000E-03 0.  1.
         11   -1    0    0    0    0 -0.00000000000E+00 -0.00000000000E+00 -0.45593999997E+02  0.45594000000E+02  0.51100000000E-03 0. -1.
    9900012    2    1    2    0    0  0.31136502516E+00 -0.10732021050E+01 -0.37988432131E+00  0.90007736032E+02  0.89999997347E+02 0.  0.
        -12    1    1    2    0    0 -0.31136502516E+00  0.10732021050E+01  0.37988432131E+00  0.11802639682E+01  0.00000000000E+00 0.  1.
         11    1    3    3    0    0 -0.38255979135E+02 -0.55675089222E+01 -0.58448668487E+01  0.39098331984E+02  0.51100000000E-03 0. -1.
        -11    1    3    3    0    0 -0.33673431624E+01 -0.64355627335E+01  0.33307655053E+00  0.72709289585E+01  0.51100000000E-03 0.  1.
        -12    1    3    3    0    0  0.41934687322E+02  0.10929869551E+02  0.51319059768E+01  0.43638475090E+02  0.00000000000E+00 0.  1.
</event>
<event>
 7    1  0.2641103E-015  0.9000769E+02  0.7816164E-02  0.1186339E+00
        -11   -1    0    0    0    0  0.00000000000E+00  0.00000000000E+00  0.45593999997E+02  0.45594000000E+02  0.51100000000E-03 0. -1.
         11   -1    0    0    0    0 -0.00000000000E+00 -0.00000000000E+00 -0.45593999997E+02  0.45594000000E+02  0.51100000000E-03 0.  1.
    9900012    2    1    2    0    0  0.11046547851E+01  0.13825053572E+00  0.39211454689E+00  0.90007691048E+02  0.89999951770E+02 0.  0.
        -12    1    1    2    0    0 -0.11046547851E+01 -0.13825053572E+00 -0.39211454689E+00  0.11803089522E+01  0.00000000000E+00 0.  1.
         11    1    3    3    0    0 -0.23089420374E+01 -0.28972471400E+02  0.16930091941E+02  0.33635744763E+02  0.51100000000E-03 0. -1.
        -11    1    3    3    0    0  0.11537546940E+01 -0.99246358967E+01  0.55850665363E+01  0.11446506718E+02  0.51100000000E-03 0.  1.
        -12    1    3    3    0    0  0.22598421284E+01  0.39035357832E+02 -0.22123043931E+02  0.44925439567E+02  0.00000000000E+00 0.  1.
</event>
<event>
 7    1  0.2641103E-015  0.9000766E+02  0.7816164E-02  0.1186339E+00
        -11   -1    0    0    0    0  0.00000000000E+00  0.00000000000E+00  0.45593999997E+02  0.45594000000E+02  0.51100000000E-03 0.  1.
         11   -1    0    0    0    0 -0.00000000000E+00 -0.00000000000E+00 -0.45593999997E+02  0.45594000000E+02  0.51100000000E-03 0. -1.
    9900012    2    1    2    0    0 -0.29519855930E+00 -0.11368581478E+01 -0.11672260406E+00  0.90007655642E+02  0.89999915896E+02 0.  0.
        -12    1    1    2    0    0  0.29519855930E+00  0.11368581478E+01  0.11672260406E+00  0.11803443582E+01  0.00000000000E+00 0.  1.
         11    1    3    3    0    0  0.29955177590E+02 -0.20844387906E+01 -0.18413583323E+02  0.35223821493E+02  0.51100000000E-03 0. -1.
        -11    1    3    3    0    0  0.93537465581E+01 -0.15589455346E+00 -0.29728125256E+01  0.98160324143E+01  0.51100000000E-03 0.  1.
        -12    1    3    3    0    0 -0.39604122707E+02  0.11034751962E+01  0.21269673244E+02  0.44967801735E+02  0.00000000000E+00 0.  1.
</event>
<event>
 7    1  0.2641103E-015  0.9000742E+02  0.7816164E-02  0.1186340E+00
        -11   -1    0    0    0    0  0.00000000000E+00  0.00000000000E+00  0.45593999997E+02  0.45594000000E+02  0.51100000000E-03 0. -1.
         11   -1    0    0    0    0 -0.00000000000E+00 -0.00000000000E+00 -0.45593999997E+02  0.45594000000E+02  0.51100000000E-03 0.  1.
    9900012    2    1    2    0    0  0.61990626495E+00  0.93530471412E+00 -0.36700923432E+00  0.90007417744E+02  0.89999674857E+02 0.  0.
        -12    1    1    2    0    0 -0.61990626495E+00 -0.93530471412E+00  0.36700923432E+00  0.11805822562E+01  0.00000000000E+00 0.  1.
         11    1    3    3    0    0 -0.33905148170E+01 -0.21241640945E+00  0.92903427604E+01  0.98919755520E+01  0.51100000000E-03 0. -1.
        -11    1    3    3    0    0 -0.23344299818E+02 -0.26733098783E+02 -0.18565016002E+02  0.40053398407E+02  0.51100000000E-03 0.  1.
         12    1    3    3    0    0  0.27354720900E+02  0.27880819907E+02  0.89076640068E+01  0.40062043785E+02  0.00000000000E+00 0. -1.
</event>
<event>
 7    1  0.2641103E-015  0.9000780E+02  0.7816164E-02  0.1186339E+00
        -11   -1    0    0    0    0  0.00000000000E+00  0.00000000000E+00  0.45593999997E+02  0.45594000000E+02  0.51100000000E-03 0.  1.
         11   -1    0    0    0    0 -0.00000000000E+00 -0.00000000000E+00 -0.45593999997E+02  0.45594000000E+02  0.51100000000E-03 0. -1.
    9900012    2    1    2    0    0  0.28345784778E+00  0.86081409293E-01 -0.11424191871E+01  0.90007796645E+02  0.90000058761E+02 0.  0.
        -12    1    1    2    0    0 -0.28345784778E+00 -0.86081409293E-01  0.11424191871E+01  0.11802033551E+01  0.00000000000E+00 0.  1.
         11    1    3    3    0    0  0.95787767005E+01  0.17591319837E+01 -0.15032862752E+00  0.97401287143E+01  0.51100000000E-03 0. -1.
        -11    1    3    3    0    0  0.48354564565E+01  0.20384275714E+02  0.31933800615E+02  0.38192511799E+02  0.51100000000E-03 0.  1.
         12    1    3    3    0    0 -0.14130775309E+02 -0.22057326288E+02 -0.32925891175E+02  0.42075156131E+02  0.00000000000E+00 0. -1.
</event>
<event>
 7    1  0.2641103E-015  0.9000773E+02  0.7816164E-02  0.1186339E+00
        -11   -1    0    0    0    0  0.00000000000E+00  0.00000000000E+00  0.45593999997E+02  0.45594000000E+02  0.51100000000E-03 0.  1.
         11   -1    0    0    0    0 -0.00000000000E+00 -0.00000000000E+00 -0.45593999997E+02  0.45594000000E+02  0.51100000000E-03 0. -1.
    9900012    2    1    2    0    0 -0.48440674618E+00 -0.43595531595E+00 -0.98404322031E+00  0.90007725459E+02  0.89999986635E+02 0.  0.
        -12    1    1    2    0    0  0.48440674618E+00  0.43595531595E+00  0.98404322031E+00  0.11802745412E+01  0.00000000000E+00 0.  1.
         11    1    3    3    0    0  0.17843131195E+02 -0.19795398522E+02 -0.28349101349E+02  0.38908953739E+02  0.51100000000E-03 0. -1.
        -11    1    3    3    0    0  0.93976594180E+01  0.47164708216E+01  0.18539457977E+01  0.10676994653E+02  0.51100000000E-03 0.  1.
        -12    1    3    3    0    0 -0.27725197359E+02  0.14642972384E+02  0.25511112331E+02  0.40421777067E+02  0.00000000000E+00 0.  1.
</event>
<event>
 7    1  0.2641103E-015  0.9000768E+02  0.7816164E-02  0.1186339E+00
        -11   -1    0    0    0    0  0.00000000000E+00  0.00000000000E+00  0.45593999997E+02  0.45594000000E+02  0.51100000000E-03 0.  1.
         11   -1    0    0    0    0 -0.00000000000E+00 -0.00000000000E+00 -0.45593999997E+02  0.45594000000E+02  0.51100000000E-03 0. -1.
    9900012    2    1    2    0    0  0.10411675727E+01  0.19263842637E+00 -0.52156019518E+00  0.90007676097E+02  0.89999936622E+02 0.  0.
        -12    1    1    2    0    0 -0.10411675727E+01 -0.19263842637E+00  0.52156019518E+00  0.11803239026E+01  0.00000000000E+00 0.  1.
         11    1    3    3    0    0 -0.24252985333E+02  0.34663342788E+01 -0.28866069940E+02  0.37861230368E+02  0.51100000000E-03 0. -1.
        -11    1    3    3    0    0  0.39308863966E+01  0.15780447998E+01 -0.83768017628E+01  0.93868472496E+01  0.51100000000E-03 0.  1.
        -12    1    3    3    0    0  0.21363266509E+02 -0.48517406522E+01  0.36721311508E+02  0.42759598480E+02  0.00000000000E+00 0.  1.
</event>
<event>
 7    1  0.2641103E-015  0.9000762E+02  0.7816164E-02  0.1186339E+00
        -11   -1    0    0    0    0  0.00000000000E+00  0.00000000000E+00  0.45593999997E+02  0.45594000000E+02  0.51100000000E-03 0. -1.
         11   -1    0    0    0    0 -0.00000000000E+00 -0.00000000000E+00 -0.45593999997E+02  0.45594000000E+02  0.51100000000E-03 0.  1.
    9900012    2    1    2    0    0  0.27235851065E+00 -0.70683383984E+00  0.90526899574E+00  0.90007616507E+02  0.89999876245E+02 0.  0.
        -12    1    1    2    0    0 -0.27235851065E+00  0.70683383984E+00 -0.90526899574E+00  0.11803834928E+01  0.00000000000E+00 0.  1.
         11    1    3    3    0    0  0.82823327870E+01 -0.17676636134E+02 -0.30563520177E+01  0.19758587736E+02  0.51100000000E-03 0. -1.
        -11    1    3    3    0    0 -0.31964008896E+02 -0.10524530257E+02  0.27314197473E+01  0.33762764340E+02  0.51100000000E-03 0.  1.
        -12    1    3    3    0    0  0.23954034619E+02  0.27494332551E+02  0.12302012662E+01  0.36486264431E+02  0.00000000000E+00 0.  1.
</event>
<event>
 7    1  0.2641103E-015  0.9000772E+02  0.7816164E-02  0.1186339E+00
        -11   -1    0    0    0    0  0.00000000000E+00  0.00000000000E+00  0.45593999997E+02  0.45594000000E+02  0.51100000000E-03 0.  1.
         11   -1    0    0    0    0 -0.00000000000E+00 -0.00000000000E+00 -0.45593999997E+02  0.45594000000E+02  0.51100000000E-03 0. -1.
    9900012    2    1    2    0    0 -0.60294458175E+00  0.65770651619E+00 -0.77262168288E+00  0.90007718553E+02  0.89999979638E+02 0.  0.
        -12    1    1    2    0    0  0.60294458175E+00 -0.65770651619E+00  0.77262168288E+00  0.11802814474E+01  0.00000000000E+00 0.  1.
         11    1    3    3    0    0  0.94895185673E+01  0.11821714628E+01 -0.52675399128E+01  0.10917667745E+02  0.51100000000E-03 0. -1.
        -11    1    3    3    0    0  0.16286982325E+02 -0.94603506714E+00  0.35086095838E+02  0.38693602791E+02  0.51100000000E-03 0.  1.
         12    1    3    3    0    0 -0.26379445474E+02  0.42157012057E+00 -0.30591177608E+02  0.40396448016E+02  0.00000000000E+00 0. -1.
</event>
<event>
 7    1  0.2641103E-015  0.9000775E+02  0.7816164E-02  0.1186339E+00
        -11   -1    0    0    0    0  0.00000000000E+00  0.00000000000E+00  0.45593999997E+02  0.45594000000E+02  0.51100000000E-03 0. -1.
         11   -1    0    0    0    0 -0.00000000000E+00 -0.00000000000E+00 -0.45593999997E+02  0.45594000000E+02  0.51100000000E-03 0.  1.
    9900012    2    1    2    0    0  0.95978426040E-01  0.20183314727E+00  0.11588984195E+01  0.90007748322E+02  0.90000009799E+02 0.  0.
        -12    1    1    2    0    0 -0.95978426040E-01 -0.20183314727E+00 -0.11588984195E+01  0.11802516784E+01  0.00000000000E+00 0.  1.
         11    1    3    3    0    0 -0.42965242885E+01  0.38373693333E+01  0.68437552383E+00  0.58011976764E+01  0.51100000000E-03 0. -1.
        -11    1    3    3    0    0 -0.14401681194E+02  0.36194592410E+02  0.73194278398E+01  0.39636232983E+02  0.51100000000E-03 0.  1.
         12    1    3    3    0    0  0.18794183909E+02 -0.39830128596E+02 -0.68449049441E+01  0.44570317662E+02  0.00000000000E+00 0. -1.
</event>
<event>
 7    1  0.2641103E-015  0.9000769E+02  0.7816164E-02  0.1186339E+00
        -11   -1    0    0    0    0  0.00000000000E+00  0.00000000000E+00  0.45593999997E+02  0.45594000000E+02  0.51100000000E-03 0. -1.
         11   -1    0    0    0    0 -0.00000000000E+00 -0.00000000000E+00 -0.45593999997E+02  0.45594000000E+02  0.51100000000E-03 0.  1.
    9900012    2    1    2    0    0 -0.31661189885E+00 -0.93727279677E+00  0.64374612695E+00  0.90007689674E+02  0.89999950378E+02 0.  0.
        -12    1    1    2    0    0  0.31661189885E+00  0.93727279677E+00 -0.64374612695E+00  0.11803103262E+01  0.00000000000E+00 0.  1.
         11    1    3    3    0    0  0.75475466585E+01 -0.36751994799E+01 -0.42044865948E+01  0.93888369656E+01  0.51100000000E-03 0. -1.
        -11    1    3    3    0    0  0.76769783929E+01 -0.36731874506E+02  0.68797854238E+01  0.38150990153E+02  0.51100000000E-03 0.  1.
         12    1    3    3    0    0 -0.15541136950E+02  0.39469801189E+02 -0.20315527021E+01  0.42467862555E+02  0.00000000000E+00 0. -1.
</event>
<event>
 7    1  0.2641103E-015  0.9000765E+02  0.7816164E-02  0.1186339E+00
        -11   -1    0    0    0    0  0.00000000000E+00  0.00000000000E+00  0.45593999997E+02  0.45594000000E+02  0.51100000000E-03 0. -1.
         11   -1    0    0    0    0 -0.00000000000E+00 -0.00000000000E+00 -0.45593999997E+02  0.45594000000E+02  0.51100000000E-03 0.  1.
    9900012    2    1    2    0    0  0.32724559850E+00  0.10735569712E+01  0.36552802202E+00  0.90007650481E+02  0.89999910667E+02 0.  0.
        -12    1    1    2    0    0 -0.32724559850E+00 -0.10735569712E+01 -0.36552802202E+00  0.11803495190E+01  0.00000000000E+00 0.  1.
         11    1    3    3    0    0  0.44900711699E+01  0.21150320715E+02  0.29829845888E+02  0.36841776713E+02  0.51100000000E-03 0. -1.
        -11    1    3    3    0    0 -0.15518649907E+01  0.72599934291E+01  0.51100684420E+01  0.90126904575E+01  0.51100000000E-03 0.  1.
        -12    1    3    3    0    0 -0.26109605807E+01 -0.27336757173E+02 -0.34574386308E+02  0.44153183310E+02  0.00000000000E+00 0.  1.
</event>
<event>
 7    1  0.2641103E-015  0.9000775E+02  0.7816164E-02  0.1186339E+00
        -11   -1    0    0    0    0  0.00000000000E+00  0.00000000000E+00  0.45593999997E+02  0.45594000000E+02  0.51100000000E-03 0. -1.
         11   -1    0    0    0    0 -0.00000000000E+00 -0.00000000000E+00 -0.45593999997E+02  0.45594000000E+02  0.51100000000E-03 0.  1.
    9900012    2    1    2    0    0 -0.38529998496E+00 -0.10431423663E+01  0.39547177873E+00  0.90007745789E+02  0.90000007233E+02 0.  0.
        -12    1    1    2    0    0  0.38529998496E+00  0.10431423663E+01 -0.39547177873E+00  0.11802542110E+01  0.00000000000E+00 0.  1.
         11    1    3    3    0    0 -0.14357571292E+02 -0.25867326583E+02  0.25659662859E+02  0.39162185029E+02  0.51100000000E-03 0. -1.
        -11    1    3    3    0    0 -0.59316696355E+01  0.82293062383E+01  0.47421006420E+01  0.11197933050E+02  0.51100000000E-03 0.  1.
        -12    1    3    3    0    0  0.19903940943E+02  0.16594877978E+02 -0.30006291722E+02  0.39647627710E+02  0.00000000000E+00 0.  1.
</event>
<event>
 7    1  0.2641103E-015  0.9000776E+02  0.7816164E-02  0.1186339E+00
        -11   -1    0    0    0    0  0.00000000000E+00  0.00000000000E+00  0.45593999997E+02  0.45594000000E+02  0.51100000000E-03 0.  1.
         11   -1    0    0    0    0 -0.00000000000E+00 -0.00000000000E+00 -0.45593999997E+02  0.45594000000E+02  0.51100000000E-03 0. -1.
    9900012    2    1    2    0    0 -0.10587215875E+01  0.73002940585E-01 -0.51647227946E+00  0.90007760853E+02  0.90000022496E+02 0.  0.
        -12    1    1    2    0    0  0.10587215875E+01 -0.73002940585E-01  0.51647227946E+00  0.11802391473E+01  0.00000000000E+00 0.  1.
         11    1    3    3    0    0 -0.33087111662E+02  0.18083718723E+02 -0.13007610983E+02  0.39887037804E+02  0.51100000000E-03 0. -1.
        -11    1    3    3    0    0 -0.20613173056E+01  0.41152658677E+01  0.80040568307E+01  0.92330584427E+01  0.51100000000E-03 0.  1.
        -12    1    3    3    0    0  0.34089707380E+02 -0.22125981650E+02  0.44870818733E+01  0.40887664606E+02  0.00000000000E+00 0.  1.
</event>
<event>
 7    1  0.2641103E-015  0.9000663E+02  0.7816164E-02  0.1186341E+00
        -11   -1    0    0    0    0  0.00000000000E+00  0.00000000000E+00  0.45593999997E+02  0.45594000000E+02  0.51100000000E-03 0.  1.
         11   -1    0    0    0    0 -0.00000000000E+00 -0.00000000000E+00 -0.45593999997E+02  0.45594000000E+02  0.51100000000E-03 0. -1.
    9900012    2    1    2    0    0  0.26184332204E+00 -0.10479288997E+01 -0.47844209391E+00  0.90006634798E+02  0.89998881570E+02 0.  0.
        -12    1    1    2    0    0 -0.26184332204E+00  0.10479288997E+01  0.47844209391E+00  0.11813652024E+01  0.00000000000E+00 0.  1.
         11    1    3    3    0    0  0.19145690532E+02  0.24882918882E+02 -0.92733612331E+01  0.32737017990E+02  0.51100000000E-03 0. -1.
        -11    1    3    3    0    0 -0.53205636218E+01  0.95094684674E+01 -0.10118663675E+02  0.14870297327E+02  0.51100000000E-03 0.  1.
        -12    1    3    3    0    0 -0.13563283588E+02 -0.35440316249E+02  0.18913582814E+02  0.42399319480E+02  0.00000000000E+00 0.  1.
</event>
<event>
 7    1  0.2641103E-015  0.9000776E+02  0.7816164E-02  0.1186339E+00
        -11   -1    0    0    0    0  0.00000000000E+00  0.00000000000E+00  0.45593999997E+02  0.45594000000E+02  0.51100000000E-03 0. -1.
         11   -1    0    0    0    0 -0.00000000000E+00 -0.00000000000E+00 -0.45593999997E+02  0.45594000000E+02  0.51100000000E-03 0.  1.
    9900012    2    1    2    0    0  0.34848858926E-01  0.86268690015E+00  0.80469338670E+00  0.90007756560E+02  0.90000018147E+02 0.  0.
        -12    1    1    2    0    0 -0.34848858926E-01 -0.86268690015E+00 -0.80469338670E+00  0.11802434398E+01  0.00000000000E+00 0.  1.
         11    1    3    3    0    0  0.19911102284E+01  0.49806113198E+01  0.85274251928E+01  0.10074124763E+02  0.51100000000E-03 0. -1.
        -11    1    3    3    0    0  0.22850937852E+02 -0.30099517151E+02  0.11087973712E+02  0.39383873029E+02  0.51100000000E-03 0.  1.
         12    1    3    3    0    0 -0.24807199221E+02  0.25981592732E+02 -0.18810705519E+02  0.40549758768E+02  0.00000000000E+00 0. -1.
</event>
<event>
 7    1  0.2641103E-015  0.9000795E+02  0.7816164E-02  0.1186339E+00
        -11   -1    0    0    0    0  0.00000000000E+00  0.00000000000E+00  0.45593999997E+02  0.45594000000E+02  0.51100000000E-03 0.  1.
         11   -1    0    0    0    0 -0.00000000000E+00 -0.00000000000E+00 -0.45593999997E+02  0.45594000000E+02  0.51100000000E-03 0. -1.
    9900012    2    1    2    0    0 -0.35947259099E+00  0.24235445646E+00 -0.10975234818E+01  0.90007951688E+02  0.90000215850E+02 0.  0.
        -12    1    1    2    0    0  0.35947259099E+00 -0.24235445646E+00  0.10975234818E+01  0.11800483123E+01  0.00000000000E+00 0.  1.
         11    1    3    3    0    0 -0.11871581843E+01 -0.27026143995E+01  0.91864277442E+01  0.96490374705E+01  0.51100000000E-03 0. -1.
        -11    1    3    3    0    0 -0.13763796884E+02 -0.86510837522E+01  0.31032651408E+02  0.35032967451E+02  0.51100000000E-03 0.  1.
         12    1    3    3    0    0  0.14591482477E+02  0.11596052608E+02 -0.41316602634E+02  0.45325946766E+02  0.00000000000E+00 0. -1.
</event>
<event>
 7    1  0.2641103E-015  0.9000770E+02  0.7816164E-02  0.1186339E+00
        -11   -1    0    0    0    0  0.00000000000E+00  0.00000000000E+00  0.45593999997E+02  0.45594000000E+02  0.51100000000E-03 0. -1.
         11   -1    0    0    0    0 -0.00000000000E+00 -0.00000000000E+00 -0.45593999997E+02  0.45594000000E+02  0.51100000000E-03 0.  1.
    9900012    2    1    2    0    0  0.60466783096E+00 -0.10111923390E+01  0.70452258809E-01  0.90007704845E+02  0.89999965749E+02 0.  0.
        -12    1    1    2    0    0 -0.60466783096E+00  0.10111923390E+01 -0.70452258809E-01  0.11802951550E+01  0.00000000000E+00 0.  1.
         11    1    3    3    0    0  0.11048704059E+02  0.13859134314E+02  0.24886589430E+01  0.17898125290E+02  0.51100000000E-03 0. -1.
        -11    1    3    3    0    0  0.17549581161E+02  0.15445085476E+02  0.14503077193E+02  0.27511410589E+02  0.51100000000E-03 0.  1.
         12    1    3    3    0    0 -0.27993617389E+02 -0.30315412128E+02 -0.16921283877E+02  0.44598168966E+02  0.00000000000E+00 0. -1.
</event>
<event>
 7    1  0.2641103E-015  0.9000774E+02  0.7816164E-02  0.1186339E+00
        -11   -1    0    0    0    0  0.00000000000E+00  0.00000000000E+00  0.45593999997E+02  0.45594000000E+02  0.51100000000E-03 0.  1.
         11   -1    0    0    0    0 -0.00000000000E+00 -0.00000000000E+00 -0.45593999997E+02  0.45594000000E+02  0.51100000000E-03 0. -1.
    9900012    2    1    2    0    0  0.60070592588E+00 -0.91476179724E+00 -0.44201249322E+00  0.90007740792E+02  0.90000002170E+02 0.  0.
        -12    1    1    2    0    0 -0.60070592588E+00  0.91476179724E+00  0.44201249322E+00  0.11802592085E+01  0.00000000000E+00 0.  1.
         11    1    3    3    0    0  0.76185295066E-01  0.63995085768E+01  0.64396007576E+01  0.90789852077E+01  0.51100000000E-03 0. -1.
        -11    1    3    3    0    0  0.11589180303E+02  0.18435121490E+02  0.28452800104E+02  0.35829103233E+02  0.51100000000E-03 0.  1.
         12    1    3    3    0    0 -0.11064659672E+02 -0.25749391864E+02 -0.35334413355E+02  0.45099652351E+02  0.00000000000E+00 0. -1.
</event>
<event>
 7    1  0.2641103E-015  0.9000770E+02  0.7816164E-02  0.1186339E+00
        -11   -1    0    0    0    0  0.00000000000E+00  0.00000000000E+00  0.45593999997E+02  0.45594000000E+02  0.51100000000E-03 0.  1.
         11   -1    0    0    0    0 -0.00000000000E+00 -0.00000000000E+00 -0.45593999997E+02  0.45594000000E+02  0.51100000000E-03 0. -1.
    9900012    2    1    2    0    0  0.11686460673E+01 -0.14954342955E+00  0.70807801880E-01  0.90007698931E+02  0.89999959757E+02 0.  0.
        -12    1    1    2    0    0 -0.11686460673E+01  0.14954342955E+00 -0.70807801880E-01  0.11803010687E+01  0.00000000000E+00 0.  1.
         11    1    3    3    0    0 -0.21490225105E+01 -0.73907386122E+01 -0.73109810546E+01  0.10615637486E+02  0.51100000000E-03 0. -1.
        -11    1    3    3    0    0  0.40599490205E+02  0.74653298841E+00  0.86914903656E+01  0.41526111321E+02  0.51100000000E-03 0.  1.
         12    1    3    3    0    0 -0.37281821627E+02  0.64946621942E+01 -0.13097015091E+01  0.37865950125E+02  0.00000000000E+00 0. -1.
</event>
<event>
 7    1  0.2641103E-015  0.9000767E+02  0.7816164E-02  0.1186339E+00
        -11   -1    0    0    0    0  0.00000000000E+00  0.00000000000E+00  0.45593999997E+02  0.45594000000E+02  0.51100000000E-03 0. -1.
         11   -1    0    0    0    0 -0.00000000000E+00 -0.00000000000E+00 -0.45593999997E+02  0.45594000000E+02  0.51100000000E-03 0.  1.
    9900012    2    1    2    0    0  0.78616071805E+00  0.63876851421E+00 -0.60588371070E+00  0.90007674214E+02  0.89999934714E+02 0.  0.
        -12    1    1    2    0    0 -0.78616071805E+00 -0.63876851421E+00  0.60588371070E+00  0.11803257856E+01  0.00000000000E+00 0.  1.
         11    1    3    3    0    0 -0.35611257096E+02  0.18682378662E+02  0.11433170794E+02  0.41808017163E+02  0.51100000000E-03 0. -1.
        -11    1    3    3    0    0  0.94506175589E+01  0.15214513898E+01  0.49930324211E+01  0.10796266002E+02  0.51100000000E-03 0.  1.
        -12    1    3    3    0    0  0.26946800255E+02 -0.19565061538E+02 -0.17032086926E+02  0.37403391049E+02  0.00000000000E+00 0.  1.
</event>
<event>
 7    1  0.2641103E-015  0.9000769E+02  0.7816164E-02  0.1186339E+00
        -11   -1    0    0    0    0  0.00000000000E+00  0.00000000000E+00  0.45593999997E+02  0.45594000000E+02  0.51100000000E-03 0.  1.
         11   -1    0    0    0    0 -0.00000000000E+00 -0.00000000000E+00 -0.45593999997E+02  0.45594000000E+02  0.51100000000E-03 0. -1.
    9900012    2    1    2    0    0 -0.38846523406E+00  0.24746002085E+00 -0.10867322697E+01  0.90007691258E+02  0.89999951983E+02 0.  0.
        -12    1    1    2    0    0  0.38846523406E+00 -0.24746002085E+00  0.10867322697E+01  0.11803087419E+01  0.00000000000E+00 0.  1.
         11    1    3    3    0    0 -0.26496533713E+01 -0.80094711680E+01 -0.51727467677E+01  0.98959385994E+01  0.51100000000E-03 0. -1.
        -11    1    3    3    0    0 -0.20441180485E+02 -0.29117901707E+02  0.71010811173E+01  0.36278360116E+02  0.51100000000E-03 0.  1.
         12    1    3    3    0    0  0.22702368622E+02  0.37374832896E+02 -0.30150666194E+01  0.43833392542E+02  0.00000000000E+00 0. -1.
</event>
<event>
 7    1  0.3942826E-015  0.9000774E+02  0.7816164E-02  0.1186339E+00
        -11   -1    0    0    0    0  0.00000000000E+00  0.00000000000E+00  0.45593999997E+02  0.45594000000E+02  0.51100000000E-03 0.  1.
         11   -1    0    0    0    0 -0.00000000000E+00 -0.00000000000E+00 -0.45593999997E+02  0.45594000000E+02  0.51100000000E-03 0. -1.
    9900012    2    1    2    0    0  0.88743707295E+00  0.50470969619E-01 -0.77648265964E+00  0.90007738504E+02  0.89999999853E+02 0.  0.
        -12    1    1    2    0    0 -0.88743707295E+00 -0.50470969619E-01  0.77648265964E+00  0.11802614956E+01  0.00000000000E+00 0.  1.
         11    1    3    3    0    0  0.33128327629E+01 -0.87131665075E+01 -0.15088354043E+01  0.94430247295E+01  0.51100000000E-03 0. -1.
        -11    1    3    3    0    0 -0.10889529684E+00  0.92471433349E+01  0.40086549431E+02  0.41139433195E+02  0.51100000000E-03 0.  1.
         12    1    3    3    0    0 -0.23165003931E+01 -0.48350585770E+00 -0.39354196686E+02  0.39425280580E+02  0.00000000000E+00 0. -1.
</event>
<event>
 7    1  0.3556911E-015  0.9000768E+02  0.7816164E-02  0.1186339E+00
        -11   -1    0    0    0    0  0.00000000000E+00  0.00000000000E+00  0.45593999997E+02  0.45594000000E+02  0.51100000000E-03 0.  1.
         11   -1    0    0    0    0 -0.00000000000E+00 -0.00000000000E+00 -0.45593999997E+02  0.45594000000E+02  0.51100000000E-03 0. -1.
    9900012    2    1    2    0    0 -0.86067101094E+00 -0.45294048588E+00 -0.66875728961E+00  0.90007683947E+02  0.89999944575E+02 0.  0.
        -12    1    1    2    0    0  0.86067101094E+00  0.45294048588E+00  0.66875728961E+00  0.11803160531E+01  0.00000000000E+00 0.  1.
         11    1    3    3    0    0  0.16181712813E+01  0.79755112279E+01 -0.52564906271E+01  0.96880313591E+01  0.51100000000E-03 0. -1.
        -11    1    3    3    0    0 -0.74938182467E+01  0.21735187355E+02  0.31899075098E+02  0.39320817306E+02  0.51100000000E-03 0.  1.
         12    1    3    3    0    0  0.50149759545E+01 -0.30163639068E+02 -0.27311341761E+02  0.40998835282E+02  0.00000000000E+00 0. -1.
</event>
<event>
 7    1  0.2641103E-015  0.9000776E+02  0.7816164E-02  0.1186339E+00
        -11   -1    0    0    0    0  0.00000000000E+00  0.00000000000E+00  0.45593999997E+02  0.45594000000E+02  0.51100000000E-03 0. -1.
         11   -1    0    0    0    0 -0.00000000000E+00 -0.00000000000E+00 -0.45593999997E+02  0.45594000000E+02  0.51100000000E-03 0.  1.
    9900012    2    1    2    0    0 -0.64280312826E+00 -0.21147816907E+00  0.96697513196E+00  0.90007762827E+02  0.90000024497E+02 0.  0.
        -12    1    1    2    0    0  0.64280312826E+00  0.21147816907E+00 -0.96697513196E+00  0.11802371726E+01  0.00000000000E+00 0.  1.
         11    1    3    3    0    0  0.17321268754E+02 -0.19849799366E+02  0.26507778364E+02  0.37372492560E+02  0.51100000000E-03 0. -1.
        -11    1    3    3    0    0  0.56511755308E+01 -0.58494206432E+01  0.19089999991E+01  0.83543873503E+01  0.51100000000E-03 0.  1.
        -12    1    3    3    0    0 -0.23615247413E+02  0.25487741840E+02 -0.27449803231E+02  0.44280882917E+02  0.00000000000E+00 0.  1.
</event>
<event>
 7    1  0.2641103E-015  0.9000786E+02  0.7816164E-02  0.1186339E+00
        -11   -1    0    0    0    0  0.00000000000E+00  0.00000000000E+00  0.45593999997E+02  0.45594000000E+02  0.51100000000E-03 0.  1.
         11   -1    0    0    0    0 -0.00000000000E+00 -0.00000000000E+00 -0.45593999997E+02  0.45594000000E+02  0.51100000000E-03 0. -1.
    9900012    2    1    2    0    0 -0.11483935416E+01  0.27047153371E+00  0.27529770510E-01  0.90007864217E+02  0.90000127225E+02 0.  0.
        -12    1    1    2    0    0  0.11483935416E+01 -0.27047153371E+00 -0.27529770510E-01  0.11801357825E+01  0.00000000000E+00 0.  1.
         11    1    3    3    0    0  0.21445429228E+01  0.40602794875E+01 -0.80675786038E+01  0.92828206195E+01  0.51100000000E-03 0. -1.
        -11    1    3    3    0    0  0.21201280297E+02 -0.25795979145E+02 -0.18701978552E+02  0.38271279418E+02  0.51100000000E-03 0.  1.
         12    1    3    3    0    0 -0.24494216762E+02  0.22006171191E+02  0.26797086926E+02  0.42453764180E+02  0.00000000000E+00 0. -1.
</event>
<event>
 7    1  0.2641103E-015  0.9000795E+02  0.7816164E-02  0.1186339E+00
        -11   -1    0    0    0    0  0.00000000000E+00  0.00000000000E+00  0.45593999997E+02  0.45594000000E+02  0.51100000000E-03 0.  1.
         11   -1    0    0    0    0 -0.00000000000E+00 -0.00000000000E+00 -0.45593999997E+02  0.45594000000E+02  0.51100000000E-03 0. -1.
    9900012    2    1    2    0    0  0.10996907506E+01 -0.42748715523E+00 -0.21282208807E-01  0.90007950023E+02  0.90000214163E+02 0.  0.
        -12    1    1    2    0    0 -0.10996907506E+01  0.42748715523E+00  0.21282208807E-01  0.11800499766E+01  0.00000000000E+00 0.  1.
         11    1    3    3    0    0  0.14958416485E+01 -0.54631169416E+01 -0.12142929072E+02  0.13399026669E+02  0.51100000000E-03 0. -1.
        -11    1    3    3    0    0 -0.49569309823E+01  0.39974711836E+02  0.42464144749E+01  0.40504083588E+02  0.51100000000E-03 0.  1.
         12    1    3    3    0    0  0.45607800845E+01 -0.34939082049E+02  0.78752323885E+01  0.36104839767E+02  0.00000000000E+00 0. -1.
</event>
<event>
 7    1  0.2641103E-015  0.9000774E+02  0.7816164E-02  0.1186339E+00
        -11   -1    0    0    0    0  0.00000000000E+00  0.00000000000E+00  0.45593999997E+02  0.45594000000E+02  0.51100000000E-03 0.  1.
         11   -1    0    0    0    0 -0.00000000000E+00 -0.00000000000E+00 -0.45593999997E+02  0.45594000000E+02  0.51100000000E-03 0. -1.
    9900012    2    1    2    0    0 -0.52930898108E+00  0.96134009569E+00 -0.43435704254E+00  0.90007742055E+02  0.90000003450E+02 0.  0.
        -12    1    1    2    0    0  0.52930898108E+00 -0.96134009569E+00  0.43435704254E+00  0.11802579453E+01  0.00000000000E+00 0.  1.
         11    1    3    3    0    0  0.10984087376E+02 -0.16439819870E+01  0.58399800650E+01  0.12548235720E+02  0.51100000000E-03 0. -1.
        -11    1    3    3    0    0  0.32551602638E+02 -0.76220563927E+00  0.14649933039E+01  0.32593465562E+02  0.51100000000E-03 0.  1.
         12    1    3    3    0    0 -0.44064998995E+02  0.33675277220E+01 -0.77393304114E+01  0.44866040772E+02  0.00000000000E+00 0. -1.
</event>
<event>
 7    1  0.2641103E-015  0.9000780E+02  0.7816164E-02  0.1186339E+00
        -11   -1    0    0    0    0  0.00000000000E+00  0.00000000000E+00  0.45593999997E+02  0.45594000000E+02  0.51100000000E-03 0.  1.
         11   -1    0    0    0    0 -0.00000000000E+00 -0.00000000000E+00 -0.45593999997E+02  0.45594000000E+02  0.51100000000E-03 0. -1.
    9900012    2    1    2    0    0 -0.10761293047E-01  0.94708504393E+00 -0.70411937134E+00  0.90007800875E+02  0.90000063046E+02 0.  0.
        -12    1    1    2    0    0  0.10761293047E-01 -0.94708504393E+00  0.70411937134E+00  0.11801991251E+01  0.00000000000E+00 0.  1.
         11    1    3    3    0    0  0.24244267577E+02  0.28736761609E+02 -0.15662097764E+02  0.40729440025E+02  0.51100000000E-03 0. -1.
        -11    1    3    3    0    0 -0.65989294445E+01  0.41969053077E+00 -0.68259260036E+01  0.95034349591E+01  0.51100000000E-03 0.  1.
        -12    1    3    3    0    0 -0.17656099426E+02 -0.28209367096E+02  0.21783904396E+02  0.39774925891E+02  0.00000000000E+00 0.  1.
</event>
<event>
 7    1  0.2641103E-015  0.9000780E+02  0.7816164E-02  0.1186339E+00
        -11   -1    0    0    0    0  0.00000000000E+00  0.00000000000E+00  0.45593999997E+02  0.45594000000E+02  0.51100000000E-03 0.  1.
         11   -1    0    0    0    0 -0.00000000000E+00 -0.00000000000E+00 -0.45593999997E+02  0.45594000000E+02  0.51100000000E-03 0. -1.
    9900012    2    1    2    0    0  0.79799406531E+00 -0.86913060859E+00 -0.26103696367E-01  0.90007803429E+02  0.90000065634E+02 0.  0.
        -12    1    1    2    0    0 -0.79799406531E+00  0.86913060859E+00  0.26103696367E-01  0.11801965709E+01  0.00000000000E+00 0.  1.
         11    1    3    3    0    0 -0.43763981717E+01 -0.10964101212E+00  0.80962785191E+01  0.92040539019E+01  0.51100000000E-03 0. -1.
        -11    1    3    3    0    0 -0.50021506714E+01 -0.39689791954E+02 -0.15636861888E+01  0.40034312926E+02  0.51100000000E-03 0.  1.
         12    1    3    3    0    0  0.10176542908E+02  0.38930302358E+02 -0.65586960266E+01  0.40769436601E+02  0.00000000000E+00 0. -1.
</event>
<event>
 7    1  0.2641103E-015  0.9000780E+02  0.7816164E-02  0.1186339E+00
        -11   -1    0    0    0    0  0.00000000000E+00  0.00000000000E+00  0.45593999997E+02  0.45594000000E+02  0.51100000000E-03 0. -1.
         11   -1    0    0    0    0 -0.00000000000E+00 -0.00000000000E+00 -0.45593999997E+02  0.45594000000E+02  0.51100000000E-03 0.  1.
    9900012    2    1    2    0    0  0.24351250277E+00  0.26921432793E+00  0.11229881952E+01  0.90007797822E+02  0.90000059954E+02 0.  0.
        -12    1    1    2    0    0 -0.24351250277E+00 -0.26921432793E+00 -0.11229881952E+01  0.11802021776E+01  0.00000000000E+00 0.  1.
         11    1    3    3    0    0  0.41324287867E+01  0.17973038189E+01  0.95064790323E+01  0.10520475871E+02  0.51100000000E-03 0. -1.
        -11    1    3    3    0    0 -0.38457197122E+02 -0.45269622392E+01  0.10313139838E+02  0.40072562324E+02  0.51100000000E-03 0.  1.
         12    1    3    3    0    0  0.34568280838E+02  0.29988727482E+01 -0.18696630675E+02  0.39414759628E+02  0.00000000000E+00 0. -1.
</event>
<event>
 7    1  0.2641103E-015  0.9000766E+02  0.7816164E-02  0.1186339E+00
        -11   -1    0    0    0    0  0.00000000000E+00  0.00000000000E+00  0.45593999997E+02  0.45594000000E+02  0.51100000000E-03 0. -1.
         11   -1    0    0    0    0 -0.00000000000E+00 -0.00000000000E+00 -0.45593999997E+02  0.45594000000E+02  0.51100000000E-03 0.  1.
    9900012    2    1    2    0    0 -0.99627695887E-01  0.83047989615E+00  0.83281492310E+00  0.90007659697E+02  0.89999920005E+02 0.  0.
        -12    1    1    2    0    0  0.99627695887E-01 -0.83047989615E+00 -0.83281492310E+00  0.11803403034E+01  0.00000000000E+00 0.  1.
         11    1    3    3    0    0 -0.89195876309E+01  0.12855162016E+01 -0.41848833589E+01  0.99360376609E+01  0.51100000000E-03 0. -1.
        -11    1    3    3    0    0  0.22412170946E+02  0.27752520374E+02 -0.19178171778E+02  0.40500741556E+02  0.51100000000E-03 0.  1.
         12    1    3    3    0    0 -0.13592211011E+02 -0.28207556679E+02  0.24195870060E+02  0.39570880479E+02  0.00000000000E+00 0. -1.
</event>
<event>
 7    1  0.2641103E-015  0.9000776E+02  0.7816164E-02  0.1186339E+00
        -11   -1    0    0    0    0  0.00000000000E+00  0.00000000000E+00  0.45593999997E+02  0.45594000000E+02  0.51100000000E-03 0. -1.
         11   -1    0    0    0    0 -0.00000000000E+00 -0.00000000000E+00 -0.45593999997E+02  0.45594000000E+02  0.51100000000E-03 0.  1.
    9900012    2    1    2    0    0 -0.99866736487E+00 -0.38369419350E+00  0.49840750636E+00  0.90007759439E+02  0.90000021063E+02 0.  0.
        -12    1    1    2    0    0  0.99866736487E+00  0.38369419350E+00 -0.49840750636E+00  0.11802405611E+01  0.00000000000E+00 0.  1.
         11    1    3    3    0    0  0.38021563453E+01 -0.13167704588E+02 -0.65349783086E+01  0.15183898668E+02  0.51100000000E-03 0. -1.
        -11    1    3    3    0    0 -0.21435560003E+02  0.30036621283E+02 -0.17225204916E+02  0.40723329130E+02  0.51100000000E-03 0.  1.
         12    1    3    3    0    0  0.16634736292E+02 -0.17252610888E+02  0.24258590731E+02  0.34100531641E+02  0.00000000000E+00 0. -1.
</event>
<event>
 7    1  0.2641103E-015  0.9000789E+02  0.7816164E-02  0.1186339E+00
        -11   -1    0    0    0    0  0.00000000000E+00  0.00000000000E+00  0.45593999997E+02  0.45594000000E+02  0.51100000000E-03 0. -1.
         11   -1    0    0    0    0 -0.00000000000E+00 -0.00000000000E+00 -0.45593999997E+02  0.45594000000E+02  0.51100000000E-03 0.  1.
    9900012    2    1    2    0    0 -0.63389496213E+00  0.76988158153E+00  0.63097596539E+00  0.90007885115E+02  0.90000148399E+02 0.  0.
        -12    1    1    2    0    0  0.63389496213E+00 -0.76988158153E+00 -0.63097596539E+00  0.11801148849E+01  0.00000000000E+00 0.  1.
         11    1    3    3    0    0  0.18516723436E+02 -0.32159775919E+02 -0.10452961937E+02  0.38553659327E+02  0.51100000000E-03 0. -1.
        -11    1    3    3    0    0  0.28194065285E+01 -0.28387202981E+01  0.85039687769E+01  0.93981312676E+01  0.51100000000E-03 0.  1.
        -12    1    3    3    0    0 -0.21970024927E+02  0.35768377799E+02  0.25799691252E+01  0.42056094521E+02  0.00000000000E+00 0.  1.
</event>
<event>
 7    1  0.2641103E-015  0.9000780E+02  0.7816164E-02  0.1186339E+00
        -11   -1    0    0    0    0  0.00000000000E+00  0.00000000000E+00  0.45593999997E+02  0.45594000000E+02  0.51100000000E-03 0.  1.
         11   -1    0    0    0    0 -0.00000000000E+00 -0.00000000000E+00 -0.45593999997E+02  0.45594000000E+02  0.51100000000E-03 0. -1.
    9900012    2    1    2    0    0 -0.10913324709E+01 -0.42770455515E+00 -0.13763713386E+00  0.90007795895E+02  0.90000058001E+02 0.  0.
        -12    1    1    2    0    0  0.10913324709E+01  0.42770455515E+00  0.13763713386E+00  0.11802041048E+01  0.00000000000E+00 0.  1.
         11    1    3    3    0    0  0.49036040184E+01  0.10179501563E+02  0.58765026636E+01  0.12735810467E+02  0.51100000000E-03 0. -1.
        -11    1    3    3    0    0 -0.32322936000E+02  0.79774986137E+01 -0.23362914050E+02  0.40672330016E+02  0.51100000000E-03 0.  1.
         12    1    3    3    0    0  0.26327999510E+02 -0.18584704732E+02  0.17348774252E+02  0.36599655412E+02  0.00000000000E+00 0. -1.
</event>
<event>
 7    1  0.2641103E-015  0.9000787E+02  0.7816164E-02  0.1186339E+00
        -11   -1    0    0    0    0  0.00000000000E+00  0.00000000000E+00  0.45593999997E+02  0.45594000000E+02  0.51100000000E-03 0.  1.
         11   -1    0    0    0    0 -0.00000000000E+00 -0.00000000000E+00 -0.45593999997E+02  0.45594000000E+02  0.51100000000E-03 0. -1.
    9900012    2    1    2    0    0  0.69318090370E-01 -0.11117444668E+01 -0.38976891674E+00  0.90007872649E+02  0.90000135767E+02 0.  0.
        -12    1    1    2    0    0 -0.69318090370E-01  0.11117444668E+01  0.38976891674E+00  0.11801273514E+01  0.00000000000E+00 0.  1.
         11    1    3    3    0    0 -0.89409675847E+01  0.30616464442E+02 -0.25760350214E+02  0.40998834614E+02  0.51100000000E-03 0. -1.
        -11    1    3    3    0    0  0.55437619619E+01  0.28815440708E+01  0.53736343896E+00  0.62709929555E+01  0.51100000000E-03 0.  1.
        -12    1    3    3    0    0  0.34665237132E+01 -0.34609752980E+02  0.24833217858E+02  0.42738045079E+02  0.00000000000E+00 0.  1.
</event>
<event>
 7    1  0.2641103E-015  0.9000768E+02  0.7816164E-02  0.1186339E+00
        -11   -1    0    0    0    0  0.00000000000E+00  0.00000000000E+00  0.45593999997E+02  0.45594000000E+02  0.51100000000E-03 0.  1.
         11   -1    0    0    0    0 -0.00000000000E+00 -0.00000000000E+00 -0.45593999997E+02  0.45594000000E+02  0.51100000000E-03 0. -1.
    9900012    2    1    2    0    0  0.88468697682E+00 -0.16533732927E+00  0.76364722470E+00  0.90007676077E+02  0.89999936601E+02 0.  0.
        -12    1    1    2    0    0 -0.88468697682E+00  0.16533732927E+00 -0.76364722470E+00  0.11803239230E+01  0.00000000000E+00 0.  1.
         11    1    3    3    0    0 -0.32129290513E+02  0.40753079552E+01 -0.54760800422E+01  0.32846413757E+02  0.51100000000E-03 0. -1.
        -11    1    3    3    0    0 -0.45153817609E+01  0.12760538507E+02 -0.50411730347E+01  0.14444149032E+02  0.51100000000E-03 0.  1.
        -12    1    3    3    0    0  0.37529359251E+02 -0.17001183791E+02  0.11280900302E+02  0.42717113288E+02  0.00000000000E+00 0.  1.
</event>
<event>
 7    1  0.2641103E-015  0.9000774E+02  0.7816164E-02  0.1186339E+00
        -11   -1    0    0    0    0  0.00000000000E+00  0.00000000000E+00  0.45593999997E+02  0.45594000000E+02  0.51100000000E-03 0. -1.
         11   -1    0    0    0    0 -0.00000000000E+00 -0.00000000000E+00 -0.45593999997E+02  0.45594000000E+02  0.51100000000E-03 0.  1.
    9900012    2    1    2    0    0  0.97901684880E+00 -0.18292050090E+00  0.63331274220E+00  0.90007737771E+02  0.89999999110E+02 0.  0.
        -12    1    1    2    0    0 -0.97901684880E+00  0.18292050090E+00 -0.63331274220E+00  0.11802622291E+01  0.00000000000E+00 0.  1.
         11    1    3    3    0    0  0.58660962868E+01 -0.92903889892E+01 -0.67168503014E+00  0.11007886912E+02  0.51100000000E-03 0. -1.
        -11    1    3    3    0    0 -0.40345057892E+02  0.19505232596E+01  0.10382475131E+02  0.41705203841E+02  0.51100000000E-03 0.  1.
         12    1    3    3    0    0  0.35457978454E+02  0.71569452287E+01 -0.90774773588E+01  0.37294647019E+02  0.00000000000E+00 0. -1.
</event>
<event>
 7    1  0.2641103E-015  0.9000763E+02  0.7816164E-02  0.1186339E+00
        -11   -1    0    0    0    0  0.00000000000E+00  0.00000000000E+00  0.45593999997E+02  0.45594000000E+02  0.51100000000E-03 0. -1.
         11   -1    0    0    0    0 -0.00000000000E+00 -0.00000000000E+00 -0.45593999997E+02  0.45594000000E+02  0.51100000000E-03 0.  1.
    9900012    2    1    2    0    0  0.75982528945E+00  0.89239388295E+00  0.13988235263E+00  0.90007632097E+02  0.89999892041E+02 0.  0.
        -12    1    1    2    0    0 -0.75982528945E+00 -0.89239388295E+00 -0.13988235263E+00  0.11803679026E+01  0.00000000000E+00 0.  1.
         11    1    3    3    0    0  0.68261683597E+01  0.32311240818E+02 -0.12020383600E+02  0.35144024809E+02  0.51100000000E-03 0. -1.
        -11    1    3    3    0    0  0.25723155717E+01  0.80258960750E+01 -0.62425900353E+01  0.10488171710E+02  0.51100000000E-03 0.  1.
        -12    1    3    3    0    0 -0.86386586420E+01 -0.39444743010E+02  0.18402855988E+02  0.44375435578E+02  0.00000000000E+00 0.  1.
</event>
<event>
 7    1  0.2641103E-015  0.9000771E+02  0.7816164E-02  0.1186339E+00
        -11   -1    0    0    0    0  0.00000000000E+00  0.00000000000E+00  0.45593999997E+02  0.45594000000E+02  0.51100000000E-03 0.  1.
         11   -1    0    0    0    0 -0.00000000000E+00 -0.00000000000E+00 -0.45593999997E+02  0.45594000000E+02  0.51100000000E-03 0. -1.
    9900012    2    1    2    0    0  0.10911460705E+01  0.37231700091E+00 -0.25269609047E+00  0.90007714013E+02  0.89999975038E+02 0.  0.
        -12    1    1    2    0    0 -0.10911460705E+01 -0.37231700091E+00  0.25269609047E+00  0.11802859868E+01  0.00000000000E+00 0.  1.
         11    1    3    3    0    0 -0.21874578112E+02  0.54879169390E+01  0.27779866458E+02  0.35781774419E+02  0.51100000000E-03 0. -1.
        -11    1    3    3    0    0  0.46837920344E+01 -0.82390896271E+01  0.88345574585E+01  0.12956462150E+02  0.51100000000E-03 0.  1.
        -12    1    3    3    0    0  0.18281932148E+02  0.31234896890E+01 -0.36867120007E+02  0.41269477444E+02  0.00000000000E+00 0.  1.
</event>
<event>
 7    1  0.2641103E-015  0.9000782E+02  0.7816164E-02  0.1186339E+00
        -11   -1    0    0    0    0  0.00000000000E+00  0.00000000000E+00  0.45593999997E+02  0.45594000000E+02  0.51100000000E-03 0.  1.
         11   -1    0    0    0    0 -0.00000000000E+00 -0.00000000000E+00 -0.45593999997E+02  0.45594000000E+02  0.51100000000E-03 0. -1.
    9900012    2    1    2    0    0 -0.64662644485E+00  0.14438855380E+00 -0.97664922636E+00  0.90007823096E+02  0.90000085561E+02 0.  0.
        -12    1    1    2    0    0  0.64662644485E+00 -0.14438855380E+00  0.97664922636E+00  0.11801769041E+01  0.00000000000E+00 0.  1.
         11    1    3    3    0    0 -0.12431718541E+02  0.26431790737E+02 -0.17475853531E+02  0.34038105769E+02  0.51100000000E-03 0. -1.
        -11    1    3    3    0    0  0.36210616249E+01  0.11362777592E+02 -0.36786249261E+01  0.12480267766E+02  0.51100000000E-03 0.  1.
        -12    1    3    3    0    0  0.81640304714E+01 -0.37650179775E+02  0.20177829231E+02  0.43489449561E+02  0.00000000000E+00 0.  1.
</event>
<event>
 7    1  0.2641103E-015  0.9000774E+02  0.7816164E-02  0.1186339E+00
        -11   -1    0    0    0    0  0.00000000000E+00  0.00000000000E+00  0.45593999997E+02  0.45594000000E+02  0.51100000000E-03 0. -1.
         11   -1    0    0    0    0 -0.00000000000E+00 -0.00000000000E+00 -0.45593999997E+02  0.45594000000E+02  0.51100000000E-03 0.  1.
    9900012    2    1    2    0    0 -0.58349604776E-02 -0.10168076952E+01 -0.59923363377E+00  0.90007740332E+02  0.90000001704E+02 0.  0.
        -12    1    1    2    0    0  0.58349604776E-02  0.10168076952E+01  0.59923363377E+00  0.11802596679E+01  0.00000000000E+00 0.  1.
         11    1    3    3    0    0 -0.78592934265E+01 -0.32651846906E+01 -0.53169108179E+01  0.10034912313E+02  0.51100000000E-03 0. -1.
        -11    1    3    3    0    0  0.12684720348E+02  0.52123830392E+01 -0.36176026515E+02  0.38688188921E+02  0.51100000000E-03 0.  1.
         12    1    3    3    0    0 -0.48312618823E+01 -0.29640060439E+01  0.40893703700E+02  0.41284639098E+02  0.00000000000E+00 0. -1.
</event>
<event>
 7    1  0.2641103E-015  0.9000779E+02  0.7816164E-02  0.1186339E+00
        -11   -1    0    0    0    0  0.00000000000E+00  0.00000000000E+00  0.45593999997E+02  0.45594000000E+02  0.51100000000E-03 0.  1.
         11   -1    0    0    0    0 -0.00000000000E+00 -0.00000000000E+00 -0.45593999997E+02  0.45594000000E+02  0.51100000000E-03 0. -1.
    9900012    2    1    2    0    0  0.51287066207E+00  0.10090103855E+01  0.33430857512E+00  0.90007787944E+02  0.90000049945E+02 0.  0.
        -12    1    1    2    0    0 -0.51287066207E+00 -0.10090103855E+01 -0.33430857512E+00  0.11802120561E+01  0.00000000000E+00 0.  1.
         11    1    3    3    0    0 -0.15359632913E+02 -0.11810660772E+02 -0.34858815071E+02  0.39881662697E+02  0.51100000000E-03 0. -1.
        -11    1    3    3    0    0 -0.57963710217E+01 -0.49393428188E+01  0.63428544527E+01  0.99109448274E+01  0.51100000000E-03 0.  1.
        -12    1    3    3    0    0  0.21668874596E+02  0.17759013976E+02  0.28850269193E+02  0.40215180420E+02  0.00000000000E+00 0.  1.
</event>
<event>
 7    1  0.2641103E-015  0.9000774E+02  0.7816164E-02  0.1186339E+00
        -11   -1    0    0    0    0  0.00000000000E+00  0.00000000000E+00  0.45593999997E+02  0.45594000000E+02  0.51100000000E-03 0.  1.
         11   -1    0    0    0    0 -0.00000000000E+00 -0.00000000000E+00 -0.45593999997E+02  0.45594000000E+02  0.51100000000E-03 0. -1.
    9900012    2    1    2    0    0  0.79280236845E+00 -0.25816402398E-01 -0.87396311971E+00  0.90007740022E+02  0.90000001390E+02 0.  0.
        -12    1    1    2    0    0 -0.79280236845E+00  0.25816402398E-01  0.87396311971E+00  0.11802599784E+01  0.00000000000E+00 0.  1.
         11    1    3    3    0    0  0.99462513051E+01  0.64543448190E+01 -0.10304667370E+02  0.15708999075E+02  0.51100000000E-03 0. -1.
        -11    1    3    3    0    0  0.16695458982E+02 -0.12069630689E+02  0.32981013322E+02  0.38886521772E+02  0.51100000000E-03 0.  1.
         12    1    3    3    0    0 -0.25848907918E+02  0.55894694675E+01 -0.23550309072E+02  0.35412219174E+02  0.00000000000E+00 0. -1.
</event>
<event>
 7    1  0.2641103E-015  0.9000780E+02  0.7816164E-02  0.1186339E+00
        -11   -1    0    0    0    0  0.00000000000E+00  0.00000000000E+00  0.45593999997E+02  0.45594000000E+02  0.51100000000E-03 0. -1.
         11   -1    0    0    0    0 -0.00000000000E+00 -0.00000000000E+00 -0.45593999997E+02  0.45594000000E+02  0.51100000000E-03 0.  1.
    9900012    2    1    2    0    0  0.90168400124E-01 -0.11606161036E+01  0.19420616656E+00  0.90007798273E+02  0.90000060411E+02 0.  0.
        -12    1    1    2    0    0 -0.90168400124E-01  0.11606161036E+01 -0.19420616656E+00  0.11802017266E+01  0.00000000000E+00 0.  1.
         11    1    3    3    0    0  0.60509853557E+01 -0.42317047450E+01  0.50284357867E+01  0.89334716402E+01  0.51100000000E-03 0. -1.
        -11    1    3    3    0    0  0.30134395032E+02 -0.12862679866E+02 -0.20469906690E+02  0.38633500714E+02  0.51100000000E-03 0.  1.
         12    1    3    3    0    0 -0.36095211988E+02  0.15933768507E+02  0.15635677069E+02  0.42440825919E+02  0.00000000000E+00 0. -1.
</event>
<event>
 7    1  0.2641103E-015  0.9000765E+02  0.7816164E-02  0.1186339E+00
        -11   -1    0    0    0    0  0.00000000000E+00  0.00000000000E+00  0.45593999997E+02  0.45594000000E+02  0.51100000000E-03 0.  1.
         11   -1    0    0    0    0 -0.00000000000E+00 -0.00000000000E+00 -0.45593999997E+02  0.45594000000E+02  0.51100000000E-03 0. -1.
    9900012    2    1    2    0    0 -0.87499440172E+00  0.36346043100E+00 -0.70392020250E+00  0.90007651603E+02  0.89999911804E+02 0.  0.
        -12    1    1    2    0    0  0.87499440172E+00 -0.36346043100E+00  0.70392020250E+00  0.11803483975E+01  0.00000000000E+00 0.  1.
         11    1    3    3    0    0 -0.72806431792E+01 -0.28577057570E+02  0.26281564676E+01  0.29606809878E+02  0.51100000000E-03 0. -1.
        -11    1    3    3    0    0  0.92104332742E+01 -0.25002006612E+01  0.19319900085E+02  0.21548587517E+02  0.51100000000E-03 0.  1.
         12    1    3    3    0    0 -0.28047844968E+01  0.31440718662E+02 -0.22651976755E+02  0.38852254207E+02  0.00000000000E+00 0. -1.
</event>
<event>
 7    1  0.2641103E-015  0.9000771E+02  0.7816164E-02  0.1186339E+00
        -11   -1    0    0    0    0  0.00000000000E+00  0.00000000000E+00  0.45593999997E+02  0.45594000000E+02  0.51100000000E-03 0. -1.
         11   -1    0    0    0    0 -0.00000000000E+00 -0.00000000000E+00 -0.45593999997E+02  0.45594000000E+02  0.51100000000E-03 0.  1.
    9900012    2    1    2    0    0  0.53270085101E+00  0.93879615016E+00  0.47747629463E+00  0.90007706808E+02  0.89999967737E+02 0.  0.
        -12    1    1    2    0    0 -0.53270085101E+00 -0.93879615016E+00 -0.47747629463E+00  0.11802931925E+01  0.00000000000E+00 0.  1.
         11    1    3    3    0    0  0.59852779809E+00  0.11110739579E+02 -0.10181422180E+01  0.11173333583E+02  0.51100000000E-03 0. -1.
        -11    1    3    3    0    0  0.13292289762E+02  0.15795698205E+02 -0.29657051063E+02  0.36134882411E+02  0.51100000000E-03 0.  1.
         12    1    3    3    0    0 -0.13358116709E+02 -0.25967641634E+02  0.31152669575E+02  0.42699490813E+02  0.00000000000E+00 0. -1.
</event>
<event>
 7    1  0.2641103E-015  0.9000758E+02  0.7816164E-02  0.1186339E+00
        -11   -1    0    0    0    0  0.00000000000E+00  0.00000000000E+00  0.45593999997E+02  0.45594000000E+02  0.51100000000E-03 0. -1.
         11   -1    0    0    0    0 -0.00000000000E+00 -0.00000000000E+00 -0.45593999997E+02  0.45594000000E+02  0.51100000000E-03 0.  1.
    9900012    2    1    2    0    0 -0.47151717267E+00 -0.24972357473E+00  0.10529443424E+01  0.90007583931E+02  0.89999843239E+02 0.  0.
        -12    1    1    2    0    0  0.47151717267E+00  0.24972357473E+00 -0.10529443424E+01  0.11804160691E+01  0.00000000000E+00 0.  1.
         11    1    3    3    0    0  0.72657294522E+01 -0.89561180598E+01  0.17150642113E+00  0.11533962454E+02  0.51100000000E-03 0. -1.
        -11    1    3    3    0    0  0.31352198126E+02  0.20483018844E+02  0.31737687947E+01  0.37584400978E+02  0.51100000000E-03 0.  1.
         12    1    3    3    0    0 -0.39089444751E+02 -0.11776624359E+02 -0.22923308734E+01  0.40889220499E+02  0.00000000000E+00 0. -1.
</event>
<event>
 7    1  0.2641103E-015  0.9000770E+02  0.7816164E-02  0.1186339E+00
        -11   -1    0    0    0    0  0.00000000000E+00  0.00000000000E+00  0.45593999997E+02  0.45594000000E+02  0.51100000000E-03 0. -1.
         11   -1    0    0    0    0 -0.00000000000E+00 -0.00000000000E+00 -0.45593999997E+02  0.45594000000E+02  0.51100000000E-03 0.  1.
    9900012    2    1    2    0    0 -0.90189402548E+00 -0.69828475187E+00 -0.30345615311E+00  0.90007703400E+02  0.89999964285E+02 0.  0.
        -12    1    1    2    0    0  0.90189402548E+00  0.69828475187E+00  0.30345615311E+00  0.11802966003E+01  0.00000000000E+00 0.  1.
         11    1    3    3    0    0 -0.18975528333E+02 -0.22706078217E+01  0.40410759472E+02  0.44701854735E+02  0.51100000000E-03 0. -1.
        -11    1    3    3    0    0  0.79598548734E+00  0.20163501406E+01 -0.82209162316E+01  0.85019247664E+01  0.51100000000E-03 0.  1.
        -12    1    3    3    0    0  0.17277648820E+02 -0.44402707079E+00 -0.32493299394E+02  0.36803923898E+02  0.00000000000E+00 0.  1.
</event>
<event>
 7    1  0.2641103E-015  0.9000775E+02  0.7816164E-02  0.1186339E+00
        -11   -1    0    0    0    0  0.00000000000E+00  0.00000000000E+00  0.45593999997E+02  0.45594000000E+02  0.51100000000E-03 0.  1.
         11   -1    0    0    0    0 -0.00000000000E+00 -0.00000000000E+00 -0.45593999997E+02  0.45594000000E+02  0.51100000000E-03 0. -1.
    9900012    2    1    2    0    0  0.10688383875E+01  0.35749099040E+00 -0.35039508773E+00  0.90007749169E+02  0.90000010658E+02 0.  0.
        -12    1    1    2    0    0 -0.10688383875E+01 -0.35749099040E+00  0.35039508773E+00  0.11802508311E+01  0.00000000000E+00 0.  1.
         11    1    3    3    0    0 -0.14449555060E+02 -0.37899992792E+01 -0.32585554272E+02  0.35846507270E+02  0.51100000000E-03 0. -1.
        -11    1    3    3    0    0 -0.24376694100E+01  0.19282671655E+01 -0.87901752928E+01  0.93234987185E+01  0.51100000000E-03 0.  1.
        -12    1    3    3    0    0  0.17956062858E+02  0.22192231040E+01  0.41025334477E+02  0.44837743180E+02  0.00000000000E+00 0.  1.
</event>
<event>
 7    1  0.2641103E-015  0.9000767E+02  0.7816164E-02  0.1186339E+00
        -11   -1    0    0    0    0  0.00000000000E+00  0.00000000000E+00  0.45593999997E+02  0.45594000000E+02  0.51100000000E-03 0. -1.
         11   -1    0    0    0    0 -0.00000000000E+00 -0.00000000000E+00 -0.45593999997E+02  0.45594000000E+02  0.51100000000E-03 0.  1.
    9900012    2    1    2    0    0  0.25122614145E+00  0.93991922271E+00  0.66828762339E+00  0.90007673322E+02  0.89999933810E+02 0.  0.
        -12    1    1    2    0    0 -0.25122614145E+00 -0.93991922271E+00 -0.66828762339E+00  0.11803266781E+01  0.00000000000E+00 0.  1.
         11    1    3    3    0    0  0.10239833367E+02 -0.11319245459E+02  0.32827499850E+02  0.36202544825E+02  0.51100000000E-03 0. -1.
        -11    1    3    3    0    0  0.21965390827E+01  0.18752896915E+01  0.91007642954E+01  0.95480577287E+01  0.51100000000E-03 0.  1.
        -12    1    3    3    0    0 -0.12185146308E+02  0.10383874990E+02 -0.41259976522E+02  0.44257070768E+02  0.00000000000E+00 0.  1.
</event>
<event>
 7    1  0.2641103E-015  0.9000776E+02  0.7816164E-02  0.1186339E+00
        -11   -1    0    0    0    0  0.00000000000E+00  0.00000000000E+00  0.45593999997E+02  0.45594000000E+02  0.51100000000E-03 0. -1.
         11   -1    0    0    0    0 -0.00000000000E+00 -0.00000000000E+00 -0.45593999997E+02  0.45594000000E+02  0.51100000000E-03 0.  1.
    9900012    2    1    2    0    0 -0.38144196415E+00  0.55321561266E+00  0.97026839953E+00  0.90007760087E+02  0.90000021720E+02 0.  0.
        -12    1    1    2    0    0  0.38144196415E+00 -0.55321561266E+00 -0.97026839953E+00  0.11802399134E+01  0.00000000000E+00 0.  1.
         11    1    3    3    0    0  0.57511979932E-01 -0.25337476231E+02  0.29797658820E+02  0.39113827233E+02  0.51100000000E-03 0. -1.
        -11    1    3    3    0    0  0.53018641942E+01 -0.67455641000E+01 -0.38838780775E+01  0.94179035960E+01  0.51100000000E-03 0.  1.
        -12    1    3    3    0    0 -0.57408181383E+01  0.32636255944E+02 -0.24943512343E+02  0.41476029257E+02  0.00000000000E+00 0.  1.
</event>
<event>
 7    1  0.2641103E-015  0.9000677E+02  0.7816164E-02  0.1186341E+00
        -11   -1    0    0    0    0  0.00000000000E+00  0.00000000000E+00  0.45593999997E+02  0.45594000000E+02  0.51100000000E-03 0.  1.
         11   -1    0    0    0    0 -0.00000000000E+00 -0.00000000000E+00 -0.45593999997E+02  0.45594000000E+02  0.51100000000E-03 0. -1.
    9900012    2    1    2    0    0  0.50300044499E+00 -0.24517112913E-01 -0.10685051510E+01  0.90006765987E+02  0.89999014492E+02 0.  0.
        -12    1    1    2    0    0 -0.50300044499E+00  0.24517112913E-01  0.10685051510E+01  0.11812340133E+01  0.00000000000E+00 0.  1.
         11    1    3    3    0    0 -0.34788348174E+02 -0.22073140596E+02 -0.11852267510E+02  0.42871073579E+02  0.51100000000E-03 0. -1.
        -11    1    3    3    0    0  0.88248199960E+01 -0.30009058318E+01  0.82078373312E+00  0.93571667705E+01  0.51100000000E-03 0.  1.
        -12    1    3    3    0    0  0.26466528623E+02  0.25049529314E+02  0.99629786256E+01  0.37778525637E+02  0.00000000000E+00 0.  1.
</event>
<event>
 7    1  0.2641103E-015  0.9000775E+02  0.7816164E-02  0.1186339E+00
        -11   -1    0    0    0    0  0.00000000000E+00  0.00000000000E+00  0.45593999997E+02  0.45594000000E+02  0.51100000000E-03 0.  1.
         11   -1    0    0    0    0 -0.00000000000E+00 -0.00000000000E+00 -0.45593999997E+02  0.45594000000E+02  0.51100000000E-03 0. -1.
    9900012    2    1    2    0    0  0.82140702930E+00  0.83694120084E+00 -0.13342887494E+00  0.90007752845E+02  0.90000014383E+02 0.  0.
        -12    1    1    2    0    0 -0.82140702930E+00 -0.83694120084E+00  0.13342887494E+00  0.11802471547E+01  0.00000000000E+00 0.  1.
         11    1    3    3    0    0  0.30033262634E+01 -0.29611989064E+01  0.66953734117E+01  0.79130710215E+01  0.51100000000E-03 0. -1.
        -11    1    3    3    0    0  0.14941118568E+02 -0.76090667447E+01  0.33140483316E+02  0.37140632136E+02  0.51100000000E-03 0.  1.
         12    1    3    3    0    0 -0.17123037802E+02  0.11407206852E+02 -0.39969285603E+02  0.44954049688E+02  0.00000000000E+00 0. -1.
</event>
<event>
 7    1  0.2641103E-015  0.9000776E+02  0.7816164E-02  0.1186339E+00
        -11   -1    0    0    0    0  0.00000000000E+00  0.00000000000E+00  0.45593999997E+02  0.45594000000E+02  0.51100000000E-03 0.  1.
         11   -1    0    0    0    0 -0.00000000000E+00 -0.00000000000E+00 -0.45593999997E+02  0.45594000000E+02  0.51100000000E-03 0. -1.
    9900012    2    1    2    0    0 -0.51266380102E+00 -0.96723485658E+00  0.44112785292E+00  0.90007762217E+02  0.90000023879E+02 0.  0.
        -12    1    1    2    0    0  0.51266380102E+00  0.96723485658E+00 -0.44112785292E+00  0.11802377825E+01  0.00000000000E+00 0.  1.
         11    1    3    3    0    0 -0.14641607424E+02 -0.50661747419E+00 -0.36009428331E+02  0.38875599779E+02  0.51100000000E-03 0. -1.
        -11    1    3    3    0    0 -0.34905644951E+01 -0.89337293384E+01 -0.19940207050E+00  0.95935041478E+01  0.51100000000E-03 0.  1.
        -12    1    3    3    0    0  0.17619508118E+02  0.84731119560E+01  0.36649958254E+02  0.41538658291E+02  0.00000000000E+00 0.  1.
</event>
<event>
 7    1  0.2641103E-015  0.9000776E+02  0.7816164E-02  0.1186339E+00
        -11   -1    0    0    0    0  0.00000000000E+00  0.00000000000E+00  0.45593999997E+02  0.45594000000E+02  0.51100000000E-03 0.  1.
         11   -1    0    0    0    0 -0.00000000000E+00 -0.00000000000E+00 -0.45593999997E+02  0.45594000000E+02  0.51100000000E-03 0. -1.
    9900012    2    1    2    0    0 -0.70074416947E+00  0.10693694632E+00 -0.94365431832E+00  0.90007762154E+02  0.90000023814E+02 0.  0.
        -12    1    1    2    0    0  0.70074416947E+00 -0.10693694632E+00  0.94365431832E+00  0.11802378464E+01  0.00000000000E+00 0.  1.
         11    1    3    3    0    0 -0.24784283035E+01 -0.69107709153E+01  0.48905360099E+00  0.73580252232E+01  0.51100000000E-03 0. -1.
        -11    1    3    3    0    0 -0.13073427544E+00 -0.36833031753E+02  0.81487104217E+01  0.37723875747E+02  0.51100000000E-03 0.  1.
         12    1    3    3    0    0  0.19084184095E+01  0.43850739615E+02 -0.95814183410E+01  0.44925861183E+02  0.00000000000E+00 0. -1.
</event>
<event>
 7    1  0.2641103E-015  0.9000732E+02  0.7816164E-02  0.1186340E+00
        -11   -1    0    0    0    0  0.00000000000E+00  0.00000000000E+00  0.45593999997E+02  0.45594000000E+02  0.51100000000E-03 0. -1.
         11   -1    0    0    0    0 -0.00000000000E+00 -0.00000000000E+00 -0.45593999997E+02  0.45594000000E+02  0.51100000000E-03 0.  1.
    9900012    2    1    2    0    0  0.90992861108E+00 -0.58957094681E+00 -0.46737367422E+00  0.90007321327E+02  0.89999577167E+02 0.  0.
        -12    1    1    2    0    0 -0.90992861108E+00  0.58957094681E+00  0.46737367422E+00  0.11806786734E+01  0.00000000000E+00 0.  1.
         11    1    3    3    0    0 -0.12740532082E+02  0.22015525565E+02 -0.21767695244E+02  0.33478905002E+02  0.51100000000E-03 0. -1.
        -11    1    3    3    0    0 -0.74796101689E+01  0.57081729248E+01 -0.66152871737E+01  0.11501731655E+02  0.51100000000E-03 0.  1.
        -12    1    3    3    0    0  0.21130070862E+02 -0.28313269437E+02  0.27915608743E+02  0.45026684669E+02  0.00000000000E+00 0.  1.
</event>
<event>
 7    1  0.2641103E-015  0.9000802E+02  0.7816164E-02  0.1186338E+00
        -11   -1    0    0    0    0  0.00000000000E+00  0.00000000000E+00  0.45593999997E+02  0.45594000000E+02  0.51100000000E-03 0.  1.
         11   -1    0    0    0    0 -0.00000000000E+00 -0.00000000000E+00 -0.45593999997E+02  0.45594000000E+02  0.51100000000E-03 0. -1.
    9900012    2    1    2    0    0 -0.15442495704E+00 -0.10791215813E+01 -0.45166507984E+00  0.90008020424E+02  0.90000285494E+02 0.  0.
        -12    1    1    2    0    0  0.15442495704E+00  0.10791215813E+01  0.45166507984E+00  0.11799795756E+01  0.00000000000E+00 0.  1.
         11    1    3    3    0    0  0.11901803388E+02 -0.27354867184E+02 -0.11341916254E+02  0.31915211845E+02  0.51100000000E-03 0. -1.
        -11    1    3    3    0    0  0.14466170061E+01 -0.13909168873E+02  0.66608466287E+01  0.15489498299E+02  0.51100000000E-03 0.  1.
        -12    1    3    3    0    0 -0.13502845351E+02  0.40184914475E+02  0.42294045458E+01  0.42603310280E+02  0.00000000000E+00 0.  1.
</event>
<event>
 7    1  0.2641103E-015  0.9000775E+02  0.7816164E-02  0.1186339E+00
        -11   -1    0    0    0    0  0.00000000000E+00  0.00000000000E+00  0.45593999997E+02  0.45594000000E+02  0.51100000000E-03 0.  1.
         11   -1    0    0    0    0 -0.00000000000E+00 -0.00000000000E+00 -0.45593999997E+02  0.45594000000E+02  0.51100000000E-03 0. -1.
    9900012    2    1    2    0    0  0.10638995951E+01  0.18776318646E+00 -0.47524381093E+00  0.90007748314E+02  0.90000009792E+02 0.  0.
        -12    1    1    2    0    0 -0.10638995951E+01 -0.18776318646E+00  0.47524381093E+00  0.11802516860E+01  0.00000000000E+00 0.  1.
         11    1    3    3    0    0  0.77838225715E+01  0.50646199491E+01  0.85212905905E+01  0.12603597210E+02  0.51100000000E-03 0. -1.
        -11    1    3    3    0    0  0.27958059802E+02  0.14258467392E+02  0.10715493221E+02  0.33162912953E+02  0.51100000000E-03 0.  1.
         12    1    3    3    0    0 -0.34677982779E+02 -0.19135324155E+02 -0.19712027623E+02  0.44241238151E+02  0.00000000000E+00 0. -1.
</event>
<event>
 7    1  0.2641103E-015  0.9000780E+02  0.7816164E-02  0.1186339E+00
        -11   -1    0    0    0    0  0.00000000000E+00  0.00000000000E+00  0.45593999997E+02  0.45594000000E+02  0.51100000000E-03 0. -1.
         11   -1    0    0    0    0 -0.00000000000E+00 -0.00000000000E+00 -0.45593999997E+02  0.45594000000E+02  0.51100000000E-03 0.  1.
    9900012    2    1    2    0    0 -0.48846920140E+00  0.39165285642E+00  0.10004358856E+01  0.90007802524E+02  0.90000064717E+02 0.  0.
        -12    1    1    2    0    0  0.48846920140E+00 -0.39165285642E+00 -0.10004358856E+01  0.11801974758E+01  0.00000000000E+00 0.  1.
         11    1    3    3    0    0 -0.26035761375E+02 -0.22204455992E+02  0.15616779469E+02  0.37613595115E+02  0.51100000000E-03 0. -1.
        -11    1    3    3    0    0 -0.29728861876E+01 -0.31363384838E+01  0.70671981050E+01  0.82837165986E+01  0.51100000000E-03 0.  1.
        -12    1    3    3    0    0  0.28520178361E+02  0.25732447332E+02 -0.21683541688E+02  0.44110490811E+02  0.00000000000E+00 0.  1.
</event>
<event>
 7    1  0.2641103E-015  0.9000777E+02  0.7816164E-02  0.1186339E+00
        -11   -1    0    0    0    0  0.00000000000E+00  0.00000000000E+00  0.45593999997E+02  0.45594000000E+02  0.51100000000E-03 0. -1.
         11   -1    0    0    0    0 -0.00000000000E+00 -0.00000000000E+00 -0.45593999997E+02  0.45594000000E+02  0.51100000000E-03 0.  1.
    9900012    2    1    2    0    0 -0.92284962430E+00 -0.25399440998E+00 -0.69049264621E+00  0.90007769224E+02  0.90000030978E+02 0.  0.
        -12    1    1    2    0    0  0.92284962430E+00  0.25399440998E+00  0.69049264621E+00  0.11802307757E+01  0.00000000000E+00 0.  1.
         11    1    3    3    0    0 -0.97944868316E+01  0.48224472798E+01  0.10589872758E+01  0.10968565283E+02  0.51100000000E-03 0. -1.
        -11    1    3    3    0    0  0.35007926758E+01  0.21675558204E+01 -0.39760493045E+02  0.39973124159E+02  0.51100000000E-03 0.  1.
         12    1    3    3    0    0  0.53708445315E+01 -0.72439975102E+01  0.38011013123E+02  0.39066079782E+02  0.00000000000E+00 0. -1.
</event>
<event>
 7    1  0.2641103E-015  0.9000769E+02  0.7816164E-02  0.1186339E+00
        -11   -1    0    0    0    0  0.00000000000E+00  0.00000000000E+00  0.45593999997E+02  0.45594000000E+02  0.51100000000E-03 0.  1.
         11   -1    0    0    0    0 -0.00000000000E+00 -0.00000000000E+00 -0.45593999997E+02  0.45594000000E+02  0.51100000000E-03 0. -1.
    9900012    2    1    2    0    0 -0.98361126521E+00  0.29056172684E+00 -0.58413527118E+00  0.90007690188E+02  0.89999950898E+02 0.  0.
        -12    1    1    2    0    0  0.98361126521E+00 -0.29056172684E+00  0.58413527118E+00  0.11803098124E+01  0.00000000000E+00 0.  1.
         11    1    3    3    0    0 -0.96111352784E+01  0.49825824909E+01 -0.19457288374E+01  0.10999359554E+02  0.51100000000E-03 0. -1.
        -11    1    3    3    0    0 -0.24039601623E+02 -0.48847291129E+00  0.27812714013E+02  0.36765311273E+02  0.51100000000E-03 0.  1.
         12    1    3    3    0    0  0.32667125636E+02 -0.42035478528E+01 -0.26451120446E+02  0.42243019361E+02  0.00000000000E+00 0. -1.
</event>
<event>
 7    1  0.2641103E-015  0.9000788E+02  0.7816164E-02  0.1186339E+00
        -11   -1    0    0    0    0  0.00000000000E+00  0.00000000000E+00  0.45593999997E+02  0.45594000000E+02  0.51100000000E-03 0. -1.
         11   -1    0    0    0    0 -0.00000000000E+00 -0.00000000000E+00 -0.45593999997E+02  0.45594000000E+02  0.51100000000E-03 0.  1.
    9900012    2    1    2    0    0 -0.73417040523E+00 -0.50826970532E+00  0.77158272159E+00  0.90007879594E+02  0.90000142804E+02 0.  0.
        -12    1    1    2    0    0  0.73417040523E+00  0.50826970532E+00 -0.77158272159E+00  0.11801204064E+01  0.00000000000E+00 0.  1.
         11    1    3    3    0    0  0.83070600915E+01 -0.79692923922E+00 -0.11725347581E+01  0.84271692517E+01  0.51100000000E-03 0. -1.
        -11    1    3    3    0    0  0.35798838730E+02 -0.56326307816E+01  0.27579499024E+01  0.36344045893E+02  0.51100000000E-03 0.  1.
         12    1    3    3    0    0 -0.44840069227E+02  0.59212903155E+01 -0.81383242271E+00  0.45236664449E+02  0.00000000000E+00 0. -1.
</event>
<event>
 7    1  0.2641103E-015  0.9000775E+02  0.7816164E-02  0.1186339E+00
        -11   -1    0    0    0    0  0.00000000000E+00  0.00000000000E+00  0.45593999997E+02  0.45594000000E+02  0.51100000000E-03 0.  1.
         11   -1    0    0    0    0 -0.00000000000E+00 -0.00000000000E+00 -0.45593999997E+02  0.45594000000E+02  0.51100000000E-03 0. -1.
    9900012    2    1    2    0    0  0.54521770458E+00  0.24843993681E-01 -0.10464760703E+01  0.90007749291E+02  0.90000010782E+02 0.  0.
        -12    1    1    2    0    0 -0.54521770458E+00 -0.24843993681E-01  0.10464760703E+01  0.11802507086E+01  0.00000000000E+00 0.  1.
         11    1    3    3    0    0 -0.20253771074E+02  0.85713777548E+01 -0.20355652681E+02  0.29967254724E+02  0.51100000000E-03 0. -1.
        -11    1    3    3    0    0 -0.99468873487E+01 -0.96589596921E+01 -0.10353325567E+02  0.17303971244E+02  0.51100000000E-03 0.  1.
        -12    1    3    3    0    0  0.30745876128E+02  0.11124259309E+01  0.29662502178E+02  0.42736523323E+02  0.00000000000E+00 0.  1.
</event>
<event>
 7    1  0.2641103E-015  0.9000778E+02  0.7816164E-02  0.1186339E+00
        -11   -1    0    0    0    0  0.00000000000E+00  0.00000000000E+00  0.45593999997E+02  0.45594000000E+02  0.51100000000E-03 0.  1.
         11   -1    0    0    0    0 -0.00000000000E+00 -0.00000000000E+00 -0.45593999997E+02  0.45594000000E+02  0.51100000000E-03 0. -1.
    9900012    2    1    2    0    0 -0.28023129945E+00 -0.11398763740E+01  0.12276121393E+00  0.90007780510E+02  0.90000042413E+02 0.  0.
        -12    1    1    2    0    0  0.28023129945E+00  0.11398763740E+01 -0.12276121393E+00  0.11802194902E+01  0.00000000000E+00 0.  1.
         11    1    3    3    0    0  0.83354931666E+01  0.13980698779E+02 -0.36913881979E+02  0.40343215882E+02  0.51100000000E-03 0. -1.
        -11    1    3    3    0    0  0.82982676767E+01  0.44545483113E+00  0.35249026498E+01  0.90268829278E+01  0.51100000000E-03 0.  1.
        -12    1    3    3    0    0 -0.16913992143E+02 -0.15566029984E+02  0.33511740544E+02  0.40637681700E+02  0.00000000000E+00 0.  1.
</event>
<event>
 7    1  0.2641103E-015  0.9000773E+02  0.7816164E-02  0.1186339E+00
        -11   -1    0    0    0    0  0.00000000000E+00  0.00000000000E+00  0.45593999997E+02  0.45594000000E+02  0.51100000000E-03 0.  1.
         11   -1    0    0    0    0 -0.00000000000E+00 -0.00000000000E+00 -0.45593999997E+02  0.45594000000E+02  0.51100000000E-03 0. -1.
    9900012    2    1    2    0    0  0.44989493374E+00 -0.91770974989E+00 -0.59028658576E+00  0.90007731010E+02  0.89999992259E+02 0.  0.
        -12    1    1    2    0    0 -0.44989493374E+00  0.91770974989E+00  0.59028658576E+00  0.11802689904E+01  0.00000000000E+00 0.  1.
         11    1    3    3    0    0 -0.32723291561E+01 -0.35093348621E+01  0.48387122489E+01  0.68144483100E+01  0.51100000000E-03 0. -1.
        -11    1    3    3    0    0 -0.36920113121E+02  0.80985891517E+01  0.10445362359E+02  0.39214633674E+02  0.51100000000E-03 0.  1.
         12    1    3    3    0    0  0.40642337210E+02 -0.55069640395E+01 -0.15874361193E+02  0.43978649026E+02  0.00000000000E+00 0. -1.
</event>
<event>
 7    1  0.2641103E-015  0.9000780E+02  0.7816164E-02  0.1186339E+00
        -11   -1    0    0    0    0  0.00000000000E+00  0.00000000000E+00  0.45593999997E+02  0.45594000000E+02  0.51100000000E-03 0.  1.
         11   -1    0    0    0    0 -0.00000000000E+00 -0.00000000000E+00 -0.45593999997E+02  0.45594000000E+02  0.51100000000E-03 0. -1.
    9900012    2    1    2    0    0  0.57114813632E+00 -0.94142714142E+00 -0.42469556248E+00  0.90007804433E+02  0.90000066651E+02 0.  0.
        -12    1    1    2    0    0 -0.57114813632E+00  0.94142714142E+00  0.42469556248E+00  0.11801955673E+01  0.00000000000E+00 0.  1.
         11    1    3    3    0    0  0.38369170783E+02 -0.16046762183E+02  0.76205702805E+01  0.42281969381E+02  0.51100000000E-03 0. -1.
        -11    1    3    3    0    0 -0.21181132109E+01  0.83573101694E+01  0.39501979705E+01  0.94834118918E+01  0.51100000000E-03 0.  1.
        -12    1    3    3    0    0 -0.35679909436E+02  0.67480248717E+01 -0.11995463813E+02  0.38242423160E+02  0.00000000000E+00 0.  1.
</event>
<event>
 7    1  0.2641103E-015  0.9000765E+02  0.7816164E-02  0.1186339E+00
        -11   -1    0    0    0    0  0.00000000000E+00  0.00000000000E+00  0.45593999997E+02  0.45594000000E+02  0.51100000000E-03 0.  1.
         11   -1    0    0    0    0 -0.00000000000E+00 -0.00000000000E+00 -0.45593999997E+02  0.45594000000E+02  0.51100000000E-03 0. -1.
    9900012    2    1    2    0    0 -0.75488048113E+00  0.83771364575E+00 -0.34873818455E+00  0.90007649622E+02  0.89999909797E+02 0.  0.
        -12    1    1    2    0    0  0.75488048113E+00 -0.83771364575E+00  0.34873818455E+00  0.11803503778E+01  0.00000000000E+00 0.  1.
         11    1    3    3    0    0  0.23187942126E+02 -0.16732079420E+02 -0.20753619202E+02  0.35332079645E+02  0.51100000000E-03 0. -1.
        -11    1    3    3    0    0  0.55585524122E+01 -0.36455923354E+01 -0.66266639291E+01  0.93861879102E+01  0.51100000000E-03 0.  1.
        -12    1    3    3    0    0 -0.29501375020E+02  0.21215385402E+02  0.27031544947E+02  0.45289382067E+02  0.00000000000E+00 0.  1.
</event>
<event>
 8    1  0.2641103E-015  0.9000722E+02  0.7816164E-02  0.1186340E+00
        -11   -1    0    0    0    0  0.00000000000E+00  0.00000000000E+00  0.45593999997E+02  0.45594000000E+02  0.51100000000E-03 0. -1.
         11   -1    0    0    0    0 -0.00000000000E+00 -0.00000000000E+00 -0.45593999997E+02  0.45594000000E+02  0.51100000000E-03 0.  1.
    9900012    2    1    2    0    0 -0.68911419868E+00  0.63637369109E+00  0.71721362634E+00  0.90007218378E+02  0.89999472859E+02 0.  0.
         23    2    3    3    0    0  0.17083420603E+02  0.16380494065E+02 -0.63355593187E+00  0.66225609979E+02  0.61848736274E+02 0.  0.
        -12    1    1    2    0    0  0.68911419868E+00 -0.63637369109E+00 -0.71721362634E+00  0.11807816222E+01  0.00000000000E+00 0.  1.
         11    1    4    4    0    0 -0.12188715115E+02  0.13804165456E+02 -0.22879162579E+02  0.29369641480E+02  0.51100000000E-03 0.  1.
        -11    1    4    4    0    0  0.29272135718E+02  0.25763286086E+01  0.22245606648E+02  0.36855968499E+02  0.51100000000E-03 0. -1.
         12    1    3    3    0    0 -0.17772534802E+02 -0.15744120374E+02  0.13507695582E+01  0.23781608399E+02  0.00000000000E+00 0. -1.
</event>
<event>
 7    1  0.2641103E-015  0.9000785E+02  0.7816164E-02  0.1186339E+00
        -11   -1    0    0    0    0  0.00000000000E+00  0.00000000000E+00  0.45593999997E+02  0.45594000000E+02  0.51100000000E-03 0. -1.
         11   -1    0    0    0    0 -0.00000000000E+00 -0.00000000000E+00 -0.45593999997E+02  0.45594000000E+02  0.51100000000E-03 0.  1.
    9900012    2    1    2    0    0  0.45246761201E+00  0.52303245706E+00  0.95627524980E+00  0.90007850753E+02  0.90000113583E+02 0.  0.
        -12    1    1    2    0    0 -0.45246761201E+00 -0.52303245706E+00 -0.95627524980E+00  0.11801492467E+01  0.00000000000E+00 0.  1.
         11    1    3    3    0    0 -0.10758635838E+02  0.37185768857E+02  0.13880118343E+01  0.38735722888E+02  0.51100000000E-03 0. -1.
        -11    1    3    3    0    0 -0.28852631932E+01  0.32503259234E+01  0.70546829752E+01  0.82860071473E+01  0.51100000000E-03 0.  1.
        -12    1    3    3    0    0  0.14096366643E+02 -0.39913062323E+02 -0.74864195598E+01  0.42986120718E+02  0.00000000000E+00 0.  1.
</event>
<event>
 7    1  0.2641103E-015  0.9000772E+02  0.7816164E-02  0.1186339E+00
        -11   -1    0    0    0    0  0.00000000000E+00  0.00000000000E+00  0.45593999997E+02  0.45594000000E+02  0.51100000000E-03 0. -1.
         11   -1    0    0    0    0 -0.00000000000E+00 -0.00000000000E+00 -0.45593999997E+02  0.45594000000E+02  0.51100000000E-03 0.  1.
    9900012    2    1    2    0    0 -0.76007381216E-01 -0.71766083677E+00  0.93394233606E+00  0.90007719319E+02  0.89999980414E+02 0.  0.
        -12    1    1    2    0    0  0.76007381216E-01  0.71766083677E+00 -0.93394233606E+00  0.11802806809E+01  0.00000000000E+00 0.  1.
         11    1    3    3    0    0 -0.65277778347E+01 -0.30186916542E+02 -0.18497568875E+02  0.36000303725E+02  0.51100000000E-03 0. -1.
        -11    1    3    3    0    0  0.25547208454E+01 -0.99765883134E+01  0.11685445386E+01  0.10364574742E+02  0.51100000000E-03 0.  1.
        -12    1    3    3    0    0  0.38970496081E+01  0.39445844019E+02  0.18262966672E+02  0.43642840852E+02  0.00000000000E+00 0.  1.
</event>
<event>
 7    1  0.2641103E-015  0.9000761E+02  0.7816164E-02  0.1186339E+00
        -11   -1    0    0    0    0  0.00000000000E+00  0.00000000000E+00  0.45593999997E+02  0.45594000000E+02  0.51100000000E-03 0.  1.
         11   -1    0    0    0    0 -0.00000000000E+00 -0.00000000000E+00 -0.45593999997E+02  0.45594000000E+02  0.51100000000E-03 0. -1.
    9900012    2    1    2    0    0  0.47262862551E+00 -0.53632729577E+00 -0.93930073328E+00  0.90007614193E+02  0.89999873900E+02 0.  0.
        -12    1    1    2    0    0 -0.47262862551E+00  0.53632729577E+00  0.93930073328E+00  0.11803858070E+01  0.00000000000E+00 0.  1.
         11    1    3    3    0    0 -0.54076938216E+01  0.15049711870E+02 -0.32373867646E+02  0.36108230176E+02  0.51100000000E-03 0. -1.
        -11    1    3    3    0    0 -0.55085116564E+01  0.20334654515E+01 -0.75880021276E+01  0.95946057221E+01  0.51100000000E-03 0.  1.
        -12    1    3    3    0    0  0.11388834104E+02 -0.17619504617E+02  0.39022569041E+02  0.44304778294E+02  0.00000000000E+00 0.  1.
</event>
<event>
 7    1  0.2641103E-015  0.9000777E+02  0.7816164E-02  0.1186339E+00
        -11   -1    0    0    0    0  0.00000000000E+00  0.00000000000E+00  0.45593999997E+02  0.45594000000E+02  0.51100000000E-03 0. -1.
         11   -1    0    0    0    0 -0.00000000000E+00 -0.00000000000E+00 -0.45593999997E+02  0.45594000000E+02  0.51100000000E-03 0.  1.
    9900012    2    1    2    0    0 -0.75522654381E+00 -0.85595813872E+00 -0.29987153563E+00  0.90007765106E+02  0.90000026805E+02 0.  0.
        -12    1    1    2    0    0  0.75522654381E+00  0.85595813872E+00  0.29987153563E+00  0.11802348942E+01  0.00000000000E+00 0.  1.
         11    1    3    3    0    0 -0.74726585018E+01  0.43460542811E+01 -0.31330732675E+01  0.91948334003E+01  0.51100000000E-03 0. -1.
        -11    1    3    3    0    0 -0.83811731470E+01  0.15401227509E+02 -0.32668745052E+02  0.37076795649E+02  0.51100000000E-03 0.  1.
         12    1    3    3    0    0  0.15098605105E+02 -0.20603239929E+02  0.35501946784E+02  0.43736136056E+02  0.00000000000E+00 0. -1.
</event>
<event>
 7    1  0.2641103E-015  0.9000765E+02  0.7816164E-02  0.1186339E+00
        -11   -1    0    0    0    0  0.00000000000E+00  0.00000000000E+00  0.45593999997E+02  0.45594000000E+02  0.51100000000E-03 0.  1.
         11   -1    0    0    0    0 -0.00000000000E+00 -0.00000000000E+00 -0.45593999997E+02  0.45594000000E+02  0.51100000000E-03 0. -1.
    9900012    2    1    2    0    0 -0.78853894685E+00 -0.87400164531E+00 -0.86890428210E-01  0.90007651537E+02  0.89999911738E+02 0.  0.
        -12    1    1    2    0    0  0.78853894685E+00  0.87400164531E+00  0.86890428210E-01  0.11803484626E+01  0.00000000000E+00 0.  1.
         11    1    3    3    0    0  0.32955561634E+01  0.44217938348E+01 -0.17794691194E+01  0.57947788354E+01  0.51100000000E-03 0. -1.
        -11    1    3    3    0    0 -0.19700676111E+01  0.35615872265E+02 -0.16605171945E+02  0.39345943363E+02  0.51100000000E-03 0.  1.
         12    1    3    3    0    0 -0.21140274991E+01 -0.40911667745E+02  0.18297750636E+02  0.44866929339E+02  0.00000000000E+00 0. -1.
</event>
<event>
 7    1  0.2641103E-015  0.9000793E+02  0.7816164E-02  0.1186339E+00
        -11   -1    0    0    0    0  0.00000000000E+00  0.00000000000E+00  0.45593999997E+02  0.45594000000E+02  0.51100000000E-03 0.  1.
         11   -1    0    0    0    0 -0.00000000000E+00 -0.00000000000E+00 -0.45593999997E+02  0.45594000000E+02  0.51100000000E-03 0. -1.
    9900012    2    1    2    0    0 -0.90052202012E+00  0.61014721197E+00 -0.45754973768E+00  0.90007927421E+02  0.90000191263E+02 0.  0.
        -12    1    1    2    0    0  0.90052202012E+00 -0.61014721197E+00  0.45754973768E+00  0.11800725789E+01  0.00000000000E+00 0.  1.
         11    1    3    3    0    0  0.13886567050E+01 -0.49454081999E+01  0.74269172099E+01  0.90302009508E+01  0.51100000000E-03 0. -1.
        -11    1    3    3    0    0 -0.88293871547E+01 -0.35110556836E+02 -0.14983391994E+02  0.39181772737E+02  0.51100000000E-03 0.  1.
         12    1    3    3    0    0  0.65402084296E+01  0.40666112248E+02  0.70989250466E+01  0.41795953734E+02  0.00000000000E+00 0. -1.
</event>
<event>
 7    1  0.2641103E-015  0.9000785E+02  0.7816164E-02  0.1186339E+00
        -11   -1    0    0    0    0  0.00000000000E+00  0.00000000000E+00  0.45593999997E+02  0.45594000000E+02  0.51100000000E-03 0.  1.
         11   -1    0    0    0    0 -0.00000000000E+00 -0.00000000000E+00 -0.45593999997E+02  0.45594000000E+02  0.51100000000E-03 0. -1.
    9900012    2    1    2    0    0 -0.72450902419E+00  0.70464367621E+00 -0.60936650949E+00  0.90007845951E+02  0.90000108717E+02 0.  0.
        -12    1    1    2    0    0  0.72450902419E+00 -0.70464367621E+00  0.60936650949E+00  0.11801540490E+01  0.00000000000E+00 0.  1.
         11    1    3    3    0    0 -0.72188864054E+01  0.82678967988E+00  0.87308213924E+01  0.11358835528E+02  0.51100000000E-03 0. -1.
        -11    1    3    3    0    0 -0.11474640513E+02  0.15403797474E+02  0.28264636310E+02  0.34173586547E+02  0.51100000000E-03 0.  1.
         12    1    3    3    0    0  0.17969017894E+02 -0.15525943477E+02 -0.37604824212E+02  0.44475423876E+02  0.00000000000E+00 0. -1.
</event>
<event>
 7    1  0.2641103E-015  0.9000771E+02  0.7816164E-02  0.1186339E+00
        -11   -1    0    0    0    0  0.00000000000E+00  0.00000000000E+00  0.45593999997E+02  0.45594000000E+02  0.51100000000E-03 0.  1.
         11   -1    0    0    0    0 -0.00000000000E+00 -0.00000000000E+00 -0.45593999997E+02  0.45594000000E+02  0.51100000000E-03 0. -1.
    9900012    2    1    2    0    0 -0.11725427788E+01 -0.42784045368E-01  0.12805476699E+00  0.90007709753E+02  0.89999970722E+02 0.  0.
        -12    1    1    2    0    0  0.11725427788E+01  0.42784045368E-01 -0.12805476699E+00  0.11802902465E+01  0.00000000000E+00 0.  1.
         11    1    3    3    0    0 -0.20540058950E+02 -0.10736232796E+02 -0.73529447985E+00  0.23188388788E+02  0.51100000000E-03 0. -1.
        -11    1    3    3    0    0  0.52247188310E+01  0.76492299528E+01  0.31556329905E+02  0.32887845218E+02  0.51100000000E-03 0.  1.
         12    1    3    3    0    0  0.14142797341E+02  0.30442187980E+01 -0.30692980659E+02  0.33931475748E+02  0.00000000000E+00 0. -1.
</event>
<event>
 7    1  0.2641103E-015  0.9000776E+02  0.7816164E-02  0.1186339E+00
        -11   -1    0    0    0    0  0.00000000000E+00  0.00000000000E+00  0.45593999997E+02  0.45594000000E+02  0.51100000000E-03 0.  1.
         11   -1    0    0    0    0 -0.00000000000E+00 -0.00000000000E+00 -0.45593999997E+02  0.45594000000E+02  0.51100000000E-03 0. -1.
    9900012    2    1    2    0    0  0.75450840417E-01  0.11711288101E+01  0.12545281119E+00  0.90007756836E+02  0.90000018426E+02 0.  0.
        -12    1    1    2    0    0 -0.75450840417E-01 -0.11711288101E+01 -0.12545281119E+00  0.11802431644E+01  0.00000000000E+00 0.  1.
         11    1    3    3    0    0  0.68876369933E+01  0.44594309176E+02 -0.36795932995E+01  0.45272854575E+02  0.51100000000E-03 0. -1.
        -11    1    3    3    0    0  0.13129188081E+01 -0.86645690792E+01  0.20279423574E+01  0.89950577314E+01  0.51100000000E-03 0.  1.
        -12    1    3    3    0    0 -0.81251049610E+01 -0.34758611287E+02  0.17771037532E+01  0.35739844529E+02  0.00000000000E+00 0.  1.
</event>
<event>
 7    1  0.2641103E-015  0.9000774E+02  0.7816164E-02  0.1186339E+00
        -11   -1    0    0    0    0  0.00000000000E+00  0.00000000000E+00  0.45593999997E+02  0.45594000000E+02  0.51100000000E-03 0.  1.
         11   -1    0    0    0    0 -0.00000000000E+00 -0.00000000000E+00 -0.45593999997E+02  0.45594000000E+02  0.51100000000E-03 0. -1.
    9900012    2    1    2    0    0  0.12778173327E+00  0.80588673263E+00 -0.85277598030E+00  0.90007742202E+02  0.90000003599E+02 0.  0.
        -12    1    1    2    0    0 -0.12778173327E+00 -0.80588673263E+00  0.85277598030E+00  0.11802577980E+01  0.00000000000E+00 0.  1.
         11    1    3    3    0    0 -0.24087311160E+01 -0.48945372285E+01 -0.11474410801E+02  0.12705140053E+02  0.51100000000E-03 0. -1.
        -11    1    3    3    0    0  0.37864871281E+02  0.38215169058E+01 -0.54489632935E+01  0.38445333525E+02  0.51100000000E-03 0.  1.
         12    1    3    3    0    0 -0.35328358432E+02  0.18789070553E+01  0.16070598114E+02  0.38857268624E+02  0.00000000000E+00 0. -1.
</event>
<event>
 7    1  0.2641103E-015  0.9000760E+02  0.7816164E-02  0.1186339E+00
        -11   -1    0    0    0    0  0.00000000000E+00  0.00000000000E+00  0.45593999997E+02  0.45594000000E+02  0.51100000000E-03 0. -1.
         11   -1    0    0    0    0 -0.00000000000E+00 -0.00000000000E+00 -0.45593999997E+02  0.45594000000E+02  0.51100000000E-03 0.  1.
    9900012    2    1    2    0    0  0.95057171109E+00 -0.69545604076E+00  0.78035030661E-01  0.90007603817E+02  0.89999863387E+02 0.  0.
        -12    1    1    2    0    0 -0.95057171109E+00  0.69545604076E+00 -0.78035030661E-01  0.11803961829E+01  0.00000000000E+00 0.  1.
         11    1    3    3    0    0  0.65684716895E+01  0.37791420104E+01  0.58863979126E+01  0.95956456436E+01  0.51100000000E-03 0. -1.
        -11    1    3    3    0    0  0.18810599039E+02  0.18375915297E+02  0.24004024795E+02  0.35604860705E+02  0.51100000000E-03 0.  1.
         12    1    3    3    0    0 -0.24428499017E+02 -0.22850513348E+02 -0.29812387677E+02  0.44807097468E+02  0.00000000000E+00 0. -1.
</event>
<event>
 7    1  0.2641103E-015  0.9000787E+02  0.7816164E-02  0.1186339E+00
        -11   -1    0    0    0    0  0.00000000000E+00  0.00000000000E+00  0.45593999997E+02  0.45594000000E+02  0.51100000000E-03 0. -1.
         11   -1    0    0    0    0 -0.00000000000E+00 -0.00000000000E+00 -0.45593999997E+02  0.45594000000E+02  0.51100000000E-03 0.  1.
    9900012    2    1    2    0    0  0.43471781040E-01  0.21531506055E+00  0.11595056773E+01  0.90007871284E+02  0.90000134385E+02 0.  0.
        -12    1    1    2    0    0 -0.43471781040E-01 -0.21531506055E+00 -0.11595056773E+01  0.11801287162E+01  0.00000000000E+00 0.  1.
         11    1    3    3    0    0  0.12888817757E+02 -0.26957223491E+01 -0.69675412596E+01  0.14897488836E+02  0.51100000000E-03 0. -1.
        -11    1    3    3    0    0  0.26343891217E+02 -0.14238651414E+02 -0.50086358555E+01  0.30361591393E+02  0.51100000000E-03 0.  1.
         12    1    3    3    0    0 -0.39189237192E+02  0.17149688824E+02  0.13135682792E+02  0.44748791055E+02  0.00000000000E+00 0. -1.
</event>
<event>
 7    1  0.2641103E-015  0.9000741E+02  0.7816164E-02  0.1186340E+00
        -11   -1    0    0    0    0  0.00000000000E+00  0.00000000000E+00  0.45593999997E+02  0.45594000000E+02  0.51100000000E-03 0. -1.
         11   -1    0    0    0    0 -0.00000000000E+00 -0.00000000000E+00 -0.45593999997E+02  0.45594000000E+02  0.51100000000E-03 0.  1.
    9900012    2    1    2    0    0 -0.41044484470E-01 -0.10102472302E+01 -0.60952210755E+00  0.90007406372E+02  0.89999663335E+02 0.  0.
        -12    1    1    2    0    0  0.41044484470E-01  0.10102472302E+01  0.60952210755E+00  0.11805936284E+01  0.00000000000E+00 0.  1.
         11    1    3    3    0    0 -0.36678342269E+01 -0.60138432269E+01  0.37186446501E+02  0.37847736021E+02  0.51100000000E-03 0. -1.
        -11    1    3    3    0    0  0.33796098225E+01  0.49701067998E+00  0.66548199441E+01  0.74803349469E+01  0.51100000000E-03 0.  1.
        -12    1    3    3    0    0  0.24717991996E+00  0.45065853167E+01 -0.44450788553E+02  0.44679335404E+02  0.00000000000E+00 0.  1.
</event>
<event>
 7    1  0.2641103E-015  0.9000766E+02  0.7816164E-02  0.1186339E+00
        -11   -1    0    0    0    0  0.00000000000E+00  0.00000000000E+00  0.45593999997E+02  0.45594000000E+02  0.51100000000E-03 0.  1.
         11   -1    0    0    0    0 -0.00000000000E+00 -0.00000000000E+00 -0.45593999997E+02  0.45594000000E+02  0.51100000000E-03 0. -1.
    9900012    2    1    2    0    0 -0.48916794822E+00 -0.32872037546E+00 -0.10226680650E+01  0.90007664311E+02  0.89999924680E+02 0.  0.
        -12    1    1    2    0    0  0.48916794822E+00  0.32872037546E+00  0.10226680650E+01  0.11803356887E+01  0.00000000000E+00 0.  1.
         11    1    3    3    0    0  0.16900426545E+02  0.15537996293E+02  0.17747913626E+02  0.29017963135E+02  0.51100000000E-03 0. -1.
        -11    1    3    3    0    0 -0.48523425976E+01 -0.27503046169E+02  0.81515899485E+01  0.29093146894E+02  0.51100000000E-03 0.  1.
         12    1    3    3    0    0 -0.12537251895E+02  0.11636329500E+02 -0.26922171639E+02  0.31896554282E+02  0.00000000000E+00 0. -1.
</event>
<event>
 7    1  0.2641103E-015  0.9000777E+02  0.7816164E-02  0.1186339E+00
        -11   -1    0    0    0    0  0.00000000000E+00  0.00000000000E+00  0.45593999997E+02  0.45594000000E+02  0.51100000000E-03 0.  1.
         11   -1    0    0    0    0 -0.00000000000E+00 -0.00000000000E+00 -0.45593999997E+02  0.45594000000E+02  0.51100000000E-03 0. -1.
    9900012    2    1    2    0    0  0.83225996944E+00 -0.69148225375E+00 -0.47130822194E+00  0.90007772986E+02  0.90000034790E+02 0.  0.
        -12    1    1    2    0    0 -0.83225996944E+00  0.69148225375E+00  0.47130822194E+00  0.11802270138E+01  0.00000000000E+00 0.  1.
         11    1    3    3    0    0  0.24333039443E+01 -0.28432545749E+02 -0.21906901309E+02  0.35975588266E+02  0.51100000000E-03 0. -1.
        -11    1    3    3    0    0  0.27195259216E+01 -0.90656461901E+01 -0.26559265521E+01  0.98303462906E+01  0.51100000000E-03 0.  1.
        -12    1    3    3    0    0 -0.43205698964E+01  0.36806709685E+02  0.24091519639E+02  0.44201838430E+02  0.00000000000E+00 0.  1.
</event>
<event>
 7    1  0.2641103E-015  0.9000725E+02  0.7816164E-02  0.1186340E+00
        -11   -1    0    0    0    0  0.00000000000E+00  0.00000000000E+00  0.45593999997E+02  0.45594000000E+02  0.51100000000E-03 0.  1.
         11   -1    0    0    0    0 -0.00000000000E+00 -0.00000000000E+00 -0.45593999997E+02  0.45594000000E+02  0.51100000000E-03 0. -1.
    9900012    2    1    2    0    0  0.21532926590E+00 -0.69805946183E+00 -0.92763919537E+00  0.90007251008E+02  0.89999505920E+02 0.  0.
        -12    1    1    2    0    0 -0.21532926590E+00  0.69805946183E+00  0.92763919537E+00  0.11807489919E+01  0.00000000000E+00 0.  1.
         11    1    3    3    0    0  0.24924518676E+01 -0.93600223139E+01  0.23597436917E+01  0.99694896850E+01  0.51100000000E-03 0. -1.
        -11    1    3    3    0    0  0.22051218834E+02 -0.27502791384E+02  0.52001035767E+01  0.35632862129E+02  0.51100000000E-03 0.  1.
         12    1    3    3    0    0 -0.24328341436E+02  0.36164754236E+02 -0.84874864638E+01  0.44404899194E+02  0.00000000000E+00 0. -1.
</event>
<event>
 7    1  0.2641103E-015  0.9000850E+02  0.7816164E-02  0.1186338E+00
        -11   -1    0    0    0    0  0.00000000000E+00  0.00000000000E+00  0.45593999997E+02  0.45594000000E+02  0.51100000000E-03 0. -1.
         11   -1    0    0    0    0 -0.00000000000E+00 -0.00000000000E+00 -0.45593999997E+02  0.45594000000E+02  0.51100000000E-03 0.  1.
    9900012    2    1    2    0    0  0.78465420945E+00 -0.85004970497E+00  0.23012186674E+00  0.90008498918E+02  0.90000770300E+02 0.  0.
        -12    1    1    2    0    0 -0.78465420945E+00  0.85004970497E+00 -0.23012186674E+00  0.11795010822E+01  0.00000000000E+00 0.  1.
         11    1    3    3    0    0 -0.98284589046E+01 -0.32832366087E+01  0.38919527217E+01  0.11069125680E+02  0.51100000000E-03 0. -1.
        -11    1    3    3    0    0  0.21724895478E+02  0.66588538962E+00 -0.37464758677E+02  0.43313076892E+02  0.51100000000E-03 0.  1.
         12    1    3    3    0    0 -0.11111782364E+02  0.17673015141E+01  0.33802927822E+02  0.35626296345E+02  0.00000000000E+00 0. -1.
</event>
<event>
 7    1  0.2641103E-015  0.9000774E+02  0.7816164E-02  0.1186339E+00
        -11   -1    0    0    0    0  0.00000000000E+00  0.00000000000E+00  0.45593999997E+02  0.45594000000E+02  0.51100000000E-03 0. -1.
         11   -1    0    0    0    0 -0.00000000000E+00 -0.00000000000E+00 -0.45593999997E+02  0.45594000000E+02  0.51100000000E-03 0.  1.
    9900012    2    1    2    0    0  0.79283137843E-01 -0.11756830318E+01 -0.67018002713E-01  0.90007742477E+02  0.90000003878E+02 0.  0.
        -12    1    1    2    0    0 -0.79283137843E-01  0.11756830318E+01  0.67018002713E-01  0.11802575227E+01  0.00000000000E+00 0.  1.
         11    1    3    3    0    0 -0.65865406720E+01  0.33223957316E+01  0.54727982514E+01  0.91854424163E+01  0.51100000000E-03 0. -1.
        -11    1    3    3    0    0 -0.19747851173E+02  0.27959519715E+02  0.10807002314E+02  0.35895733283E+02  0.51100000000E-03 0.  1.
         12    1    3    3    0    0  0.26413674983E+02 -0.32457598479E+02 -0.16346818568E+02  0.44926566778E+02  0.00000000000E+00 0. -1.
</event>
<event>
 7    1  0.2641103E-015  0.9000778E+02  0.7816164E-02  0.1186339E+00
        -11   -1    0    0    0    0  0.00000000000E+00  0.00000000000E+00  0.45593999997E+02  0.45594000000E+02  0.51100000000E-03 0. -1.
         11   -1    0    0    0    0 -0.00000000000E+00 -0.00000000000E+00 -0.45593999997E+02  0.45594000000E+02  0.51100000000E-03 0.  1.
    9900012    2    1    2    0    0  0.13756616393E+00  0.81209407080E+00  0.84527623245E+00  0.90007782588E+02  0.90000044519E+02 0.  0.
        -12    1    1    2    0    0 -0.13756616393E+00 -0.81209407080E+00 -0.84527623245E+00  0.11802174115E+01  0.00000000000E+00 0.  1.
         11    1    3    3    0    0  0.32261468322E+01 -0.53204787727E+01  0.38026544526E+02  0.38532241131E+02  0.51100000000E-03 0. -1.
        -11    1    3    3    0    0  0.72319217113E+01  0.32262261748E+01  0.40348966565E+01  0.88876103796E+01  0.51100000000E-03 0.  1.
        -12    1    3    3    0    0 -0.10320502380E+02  0.29063466687E+01 -0.41216164950E+02  0.42587931078E+02  0.00000000000E+00 0.  1.
</event>
<event>
 7    1  0.2641103E-015  0.9000873E+02  0.7816164E-02  0.1186337E+00
        -11   -1    0    0    0    0  0.00000000000E+00  0.00000000000E+00  0.45593999997E+02  0.45594000000E+02  0.51100000000E-03 0. -1.
         11   -1    0    0    0    0 -0.00000000000E+00 -0.00000000000E+00 -0.45593999997E+02  0.45594000000E+02  0.51100000000E-03 0.  1.
    9900012    2    1    2    0    0  0.41532213976E+00 -0.11007611754E+01 -0.80736705958E-01  0.90008726469E+02  0.90001000853E+02 0.  0.
        -12    1    1    2    0    0 -0.41532213976E+00  0.11007611754E+01  0.80736705958E-01  0.11792735309E+01  0.00000000000E+00 0.  1.
         11    1    3    3    0    0 -0.17844121666E+02 -0.34454141735E+02  0.33376637763E+01  0.38944069645E+02  0.51100000000E-03 0. -1.
        -11    1    3    3    0    0 -0.34283865093E+00 -0.44873965836E+01 -0.74526803148E+01  0.87061306316E+01  0.51100000000E-03 0.  1.
        -12    1    3    3    0    0  0.18602282457E+02  0.37840777144E+02  0.40342798326E+01  0.42358526193E+02  0.00000000000E+00 0.  1.
</event>
<event>
 7    1  0.2641103E-015  0.9000768E+02  0.7816164E-02  0.1186339E+00
        -11   -1    0    0    0    0  0.00000000000E+00  0.00000000000E+00  0.45593999997E+02  0.45594000000E+02  0.51100000000E-03 0. -1.
         11   -1    0    0    0    0 -0.00000000000E+00 -0.00000000000E+00 -0.45593999997E+02  0.45594000000E+02  0.51100000000E-03 0.  1.
    9900012    2    1    2    0    0 -0.98097464007E+00  0.41581296990E+00 -0.50788257186E+00  0.90007679545E+02  0.89999940115E+02 0.  0.
        -12    1    1    2    0    0  0.98097464007E+00 -0.41581296990E+00  0.50788257186E+00  0.11803204553E+01  0.00000000000E+00 0.  1.
         11    1    3    3    0    0 -0.33520259705E+01  0.16925144694E+01  0.11690107180E+02  0.12278407449E+02  0.51100000000E-03 0. -1.
        -11    1    3    3    0    0 -0.23545029691E+01 -0.30139394036E+02 -0.30728187129E+02  0.43106243650E+02  0.51100000000E-03 0.  1.
         12    1    3    3    0    0  0.47255542995E+01  0.28862692537E+02  0.18530197378E+02  0.34623028446E+02  0.00000000000E+00 0. -1.
</event>
<event>
 7    1  0.2641103E-015  0.9000786E+02  0.7816164E-02  0.1186339E+00
        -11   -1    0    0    0    0  0.00000000000E+00  0.00000000000E+00  0.45593999997E+02  0.45594000000E+02  0.51100000000E-03 0.  1.
         11   -1    0    0    0    0 -0.00000000000E+00 -0.00000000000E+00 -0.45593999997E+02  0.45594000000E+02  0.51100000000E-03 0. -1.
    9900012    2    1    2    0    0 -0.52027907656E-01 -0.11143650599E+01 -0.38498705735E+00  0.90007859574E+02  0.90000122521E+02 0.  0.
        -12    1    1    2    0    0  0.52027907656E-01  0.11143650599E+01  0.38498705735E+00  0.11801404256E+01  0.00000000000E+00 0.  1.
         11    1    3    3    0    0  0.12209462903E+01 -0.36019641360E+02 -0.21634306054E+02  0.42035086205E+02  0.51100000000E-03 0. -1.
        -11    1    3    3    0    0 -0.63947958130E+01  0.49555640219E+01 -0.34701495242E+01  0.88030089314E+01  0.51100000000E-03 0.  1.
        -12    1    3    3    0    0  0.51218216150E+01  0.29949712278E+02  0.24719468521E+02  0.39169764438E+02  0.00000000000E+00 0.  1.
</event>
<event>
 7    1  0.2641103E-015  0.9000776E+02  0.7816164E-02  0.1186339E+00
        -11   -1    0    0    0    0  0.00000000000E+00  0.00000000000E+00  0.45593999997E+02  0.45594000000E+02  0.51100000000E-03 0. -1.
         11   -1    0    0    0    0 -0.00000000000E+00 -0.00000000000E+00 -0.45593999997E+02  0.45594000000E+02  0.51100000000E-03 0.  1.
    9900012    2    1    2    0    0  0.10064314542E+01  0.50748713460E+00 -0.35002091710E+00  0.90007761843E+02  0.90000023500E+02 0.  0.
        -12    1    1    2    0    0 -0.10064314542E+01 -0.50748713460E+00  0.35002091710E+00  0.11802381565E+01  0.00000000000E+00 0.  1.
         11    1    3    3    0    0 -0.34422198561E+01 -0.29082298725E+01  0.35473971988E+02  0.35759045952E+02  0.51100000000E-03 0. -1.
        -11    1    3    3    0    0 -0.47841359262E+01 -0.15486353289E+01  0.78564986411E+01  0.93279579277E+01  0.51100000000E-03 0.  1.
        -12    1    3    3    0    0  0.92327872364E+01  0.49643523360E+01 -0.43680491547E+02  0.44920757963E+02  0.00000000000E+00 0.  1.
</event>
<event>
 7    1  0.2641103E-015  0.9000769E+02  0.7816164E-02  0.1186339E+00
        -11   -1    0    0    0    0  0.00000000000E+00  0.00000000000E+00  0.45593999997E+02  0.45594000000E+02  0.51100000000E-03 0.  1.
         11   -1    0    0    0    0 -0.00000000000E+00 -0.00000000000E+00 -0.45593999997E+02  0.45594000000E+02  0.51100000000E-03 0. -1.
    9900012    2    1    2    0    0 -0.50960556485E+00  0.10599841160E+01 -0.99287284455E-01  0.90007694055E+02  0.89999954817E+02 0.  0.
        -12    1    1    2    0    0  0.50960556485E+00 -0.10599841160E+01  0.99287284455E-01  0.11803059446E+01  0.00000000000E+00 0.  1.
         11    1    3    3    0    0  0.33999898339E+02 -0.14951109121E+02  0.20357356888E+02  0.42355055551E+02  0.51100000000E-03 0. -1.
        -11    1    3    3    0    0 -0.38503349565E+01  0.93899483114E+01  0.10258622291E+00  0.10149223259E+02  0.51100000000E-03 0.  1.
        -12    1    3    3    0    0 -0.30659168947E+02  0.66211449252E+01 -0.20559230395E+02  0.37503415246E+02  0.00000000000E+00 0.  1.
</event>
<event>
 7    1  0.2641103E-015  0.9000774E+02  0.7816164E-02  0.1186339E+00
        -11   -1    0    0    0    0  0.00000000000E+00  0.00000000000E+00  0.45593999997E+02  0.45594000000E+02  0.51100000000E-03 0.  1.
         11   -1    0    0    0    0 -0.00000000000E+00 -0.00000000000E+00 -0.45593999997E+02  0.45594000000E+02  0.51100000000E-03 0. -1.
    9900012    2    1    2    0    0 -0.34392224682E+00  0.82757334944E+00 -0.76801633083E+00  0.90007741874E+02  0.90000003266E+02 0.  0.
        -12    1    1    2    0    0  0.34392224682E+00 -0.82757334944E+00  0.76801633083E+00  0.11802581264E+01  0.00000000000E+00 0.  1.
         11    1    3    3    0    0 -0.23515112214E+02  0.25495446343E+02 -0.12117943316E+02  0.36739935182E+02  0.51100000000E-03 0. -1.
        -11    1    3    3    0    0 -0.37683291713E+01  0.46833262569E+01 -0.71507360370E+01  0.93416741382E+01  0.51100000000E-03 0.  1.
        -12    1    3    3    0    0  0.26939519139E+02 -0.29351199251E+02  0.18500663022E+02  0.43926132554E+02  0.00000000000E+00 0.  1.
</event>
<event>
 7    1  0.2641103E-015  0.9000775E+02  0.7816164E-02  0.1186339E+00
        -11   -1    0    0    0    0  0.00000000000E+00  0.00000000000E+00  0.45593999997E+02  0.45594000000E+02  0.51100000000E-03 0.  1.
         11   -1    0    0    0    0 -0.00000000000E+00 -0.00000000000E+00 -0.45593999997E+02  0.45594000000E+02  0.51100000000E-03 0. -1.
    9900012    2    1    2    0    0 -0.76413027500E+00 -0.76932852400E+00 -0.46607417491E+00  0.90007751470E+02  0.90000012990E+02 0.  0.
        -12    1    1    2    0    0  0.76413027500E+00  0.76932852400E+00  0.46607417491E+00  0.11802485296E+01  0.00000000000E+00 0.  1.
         11    1    3    3    0    0 -0.62986689754E+01  0.10225574446E+02  0.93083529394E+00  0.12045831570E+02  0.51100000000E-03 0. -1.
        -11    1    3    3    0    0  0.94323087672E+01  0.78535911912E+01  0.34835506649E+02  0.36934534883E+02  0.51100000000E-03 0.  1.
         12    1    3    3    0    0 -0.38977700668E+01 -0.18848494161E+02 -0.36232416118E+02  0.41027385017E+02  0.00000000000E+00 0. -1.
</event>
<event>
 7    1  0.2641103E-015  0.9000777E+02  0.7816164E-02  0.1186339E+00
        -11   -1    0    0    0    0  0.00000000000E+00  0.00000000000E+00  0.45593999997E+02  0.45594000000E+02  0.51100000000E-03 0.  1.
         11   -1    0    0    0    0 -0.00000000000E+00 -0.00000000000E+00 -0.45593999997E+02  0.45594000000E+02  0.51100000000E-03 0. -1.
    9900012    2    1    2    0    0 -0.10654758316E+01 -0.47356635646E+00  0.18288730692E+00  0.90007766291E+02  0.90000028006E+02 0.  0.
        -12    1    1    2    0    0  0.10654758316E+01  0.47356635646E+00 -0.18288730692E+00  0.11802337094E+01  0.00000000000E+00 0.  1.
         11    1    3    3    0    0 -0.18203038704E+01  0.83033171572E+01 -0.49796774418E+01  0.98516886714E+01  0.51100000000E-03 0. -1.
        -11    1    3    3    0    0 -0.25811296690E+02  0.25367345648E+02  0.69755661296E+01  0.36856258426E+02  0.51100000000E-03 0.  1.
         12    1    3    3    0    0  0.26566124729E+02 -0.34144229162E+02 -0.18130013809E+01  0.43299819193E+02  0.00000000000E+00 0. -1.
</event>
<event>
 7    1  0.2641103E-015  0.9000782E+02  0.7816164E-02  0.1186339E+00
        -11   -1    0    0    0    0  0.00000000000E+00  0.00000000000E+00  0.45593999997E+02  0.45594000000E+02  0.51100000000E-03 0. -1.
         11   -1    0    0    0    0 -0.00000000000E+00 -0.00000000000E+00 -0.45593999997E+02  0.45594000000E+02  0.51100000000E-03 0.  1.
    9900012    2    1    2    0    0 -0.68111641450E+00  0.95154635750E+00  0.15318439629E+00  0.90007819717E+02  0.90000082137E+02 0.  0.
        -12    1    1    2    0    0  0.68111641450E+00 -0.95154635750E+00 -0.15318439629E+00  0.11801802828E+01  0.00000000000E+00 0.  1.
         11    1    3    3    0    0 -0.12261633403E+02  0.22524756323E+02  0.26184972772E+02  0.36651945384E+02  0.51100000000E-03 0. -1.
        -11    1    3    3    0    0  0.85507077709E+01 -0.90087228588E+01  0.94412945021E+01  0.15601593927E+02  0.51100000000E-03 0.  1.
        -12    1    3    3    0    0  0.30298092180E+01 -0.12564487107E+02 -0.35473082877E+02  0.37754280406E+02  0.00000000000E+00 0.  1.
</event>
<event>
 7    1  0.2641103E-015  0.9000783E+02  0.7816164E-02  0.1186339E+00
        -11   -1    0    0    0    0  0.00000000000E+00  0.00000000000E+00  0.45593999997E+02  0.45594000000E+02  0.51100000000E-03 0.  1.
         11   -1    0    0    0    0 -0.00000000000E+00 -0.00000000000E+00 -0.45593999997E+02  0.45594000000E+02  0.51100000000E-03 0. -1.
    9900012    2    1    2    0    0  0.17530746504E+00  0.15653640160E-01 -0.11669724901E+01  0.90007829446E+02  0.90000091995E+02 0.  0.
        -12    1    1    2    0    0 -0.17530746504E+00 -0.15653640160E-01  0.11669724901E+01  0.11801705539E+01  0.00000000000E+00 0.  1.
         11    1    3    3    0    0  0.48008589903E+01  0.66601591738E+01 -0.10837483212E+02  0.13596213072E+02  0.51100000000E-03 0. -1.
        -11    1    3    3    0    0  0.10553971880E+02  0.15462745447E+02  0.34892284025E+02  0.39597402743E+02  0.51100000000E-03 0.  1.
         12    1    3    3    0    0 -0.15179523405E+02 -0.22107250981E+02 -0.25221773303E+02  0.36814213631E+02  0.00000000000E+00 0. -1.
</event>
<event>
 7    1  0.2641103E-015  0.9000711E+02  0.7816164E-02  0.1186340E+00
        -11   -1    0    0    0    0  0.00000000000E+00  0.00000000000E+00  0.45593999997E+02  0.45594000000E+02  0.51100000000E-03 0. -1.
         11   -1    0    0    0    0 -0.00000000000E+00 -0.00000000000E+00 -0.45593999997E+02  0.45594000000E+02  0.51100000000E-03 0.  1.
    9900012    2    1    2    0    0 -0.11190335459E+01  0.11233283230E+00 -0.36007417015E+00  0.90007107054E+02  0.89999360065E+02 0.  0.
        -12    1    1    2    0    0  0.11190335459E+01 -0.11233283230E+00  0.36007417015E+00  0.11808929461E+01  0.00000000000E+00 0.  1.
         11    1    3    3    0    0 -0.54924170363E+01 -0.74392812339E+00 -0.60925072693E+01  0.82364263514E+01  0.51100000000E-03 0. -1.
        -11    1    3    3    0    0 -0.37480834702E+02 -0.80536982076E+00  0.12118488325E+02  0.39399484134E+02  0.51100000000E-03 0.  1.
         12    1    3    3    0    0  0.41854218192E+02  0.16616307765E+01 -0.63860552262E+01  0.42371196569E+02  0.00000000000E+00 0. -1.
</event>
<event>
 7    1  0.2641103E-015  0.9000773E+02  0.7816164E-02  0.1186339E+00
        -11   -1    0    0    0    0  0.00000000000E+00  0.00000000000E+00  0.45593999997E+02  0.45594000000E+02  0.51100000000E-03 0. -1.
         11   -1    0    0    0    0 -0.00000000000E+00 -0.00000000000E+00 -0.45593999997E+02  0.45594000000E+02  0.51100000000E-03 0.  1.
    9900012    2    1    2    0    0  0.89811552703E+00  0.64818096833E+00  0.40777892267E+00  0.90007731506E+02  0.89999992762E+02 0.  0.
        -12    1    1    2    0    0 -0.89811552703E+00 -0.64818096833E+00 -0.40777892267E+00  0.11802684938E+01  0.00000000000E+00 0.  1.
         11    1    3    3    0    0 -0.35955025274E+01 -0.95336972866E+01  0.36414438974E+02  0.37813098107E+02  0.51100000000E-03 0. -1.
        -11    1    3    3    0    0  0.42316223274E+01  0.71793082935E+01  0.58803088651E+01  0.10199368986E+02  0.51100000000E-03 0.  1.
        -12    1    3    3    0    0  0.26199572705E+00  0.30025699614E+01 -0.41886968917E+02  0.41995264414E+02  0.00000000000E+00 0.  1.
</event>
<event>
 7    1  0.2641103E-015  0.9000770E+02  0.7816164E-02  0.1186339E+00
        -11   -1    0    0    0    0  0.00000000000E+00  0.00000000000E+00  0.45593999997E+02  0.45594000000E+02  0.51100000000E-03 0. -1.
         11   -1    0    0    0    0 -0.00000000000E+00 -0.00000000000E+00 -0.45593999997E+02  0.45594000000E+02  0.51100000000E-03 0.  1.
    9900012    2    1    2    0    0  0.20281695949E-01 -0.87283399538E+00  0.79426735100E+00  0.90007698701E+02  0.89999959524E+02 0.  0.
        -12    1    1    2    0    0 -0.20281695949E-01  0.87283399538E+00 -0.79426735100E+00  0.11803012986E+01  0.00000000000E+00 0.  1.
         11    1    3    3    0    0 -0.28267827224E+01 -0.68555328530E+01 -0.17070636558E+00  0.74174235542E+01  0.51100000000E-03 0. -1.
        -11    1    3    3    0    0 -0.71476035451E+01 -0.37282623294E+02  0.34363853013E+01  0.38116807059E+02  0.51100000000E-03 0.  1.
         12    1    3    3    0    0  0.99946679634E+01  0.43265322152E+02 -0.24714115847E+01  0.44473468089E+02  0.00000000000E+00 0. -1.
</event>
<event>
 7    1  0.2641103E-015  0.9000776E+02  0.7816164E-02  0.1186339E+00
        -11   -1    0    0    0    0  0.00000000000E+00  0.00000000000E+00  0.45593999997E+02  0.45594000000E+02  0.51100000000E-03 0.  1.
         11   -1    0    0    0    0 -0.00000000000E+00 -0.00000000000E+00 -0.45593999997E+02  0.45594000000E+02  0.51100000000E-03 0. -1.
    9900012    2    1    2    0    0 -0.10755623488E+01  0.32738418559E+00  0.35910600301E+00  0.90007757698E+02  0.90000019299E+02 0.  0.
        -12    1    1    2    0    0  0.10755623488E+01 -0.32738418559E+00 -0.35910600301E+00  0.11802423025E+01  0.00000000000E+00 0.  1.
         11    1    3    3    0    0 -0.44228932324E+01 -0.11895364252E+02 -0.22088577457E+01  0.12881798323E+02  0.51100000000E-03 0. -1.
        -11    1    3    3    0    0 -0.24186808543E+02  0.26599049626E+02  0.20373607594E+02  0.41323056943E+02  0.51100000000E-03 0.  1.
         12    1    3    3    0    0  0.27534139426E+02 -0.14376301189E+02 -0.17805643845E+02  0.35802902432E+02  0.00000000000E+00 0. -1.
</event>
<event>
 7    1  0.2641103E-015  0.9000773E+02  0.7816164E-02  0.1186339E+00
        -11   -1    0    0    0    0  0.00000000000E+00  0.00000000000E+00  0.45593999997E+02  0.45594000000E+02  0.51100000000E-03 0. -1.
         11   -1    0    0    0    0 -0.00000000000E+00 -0.00000000000E+00 -0.45593999997E+02  0.45594000000E+02  0.51100000000E-03 0.  1.
    9900012    2    1    2    0    0 -0.16610272250E+00  0.10005152503E+01  0.60367624416E+00  0.90007726350E+02  0.89999987538E+02 0.  0.
        -12    1    1    2    0    0  0.16610272250E+00 -0.10005152503E+01 -0.60367624416E+00  0.11802736498E+01  0.00000000000E+00 0.  1.
         11    1    3    3    0    0  0.32268550144E+02  0.27600250435E+01  0.28523433611E+02  0.43156266427E+02  0.51100000000E-03 0. -1.
        -11    1    3    3    0    0 -0.34388271008E+01 -0.71717486414E+01 -0.41609046387E+01  0.89762262716E+01  0.51100000000E-03 0.  1.
        -12    1    3    3    0    0 -0.28995825766E+02  0.54122388483E+01 -0.23758852729E+02  0.37875233652E+02  0.00000000000E+00 0.  1.
</event>
<event>
 7    1  0.2641103E-015  0.9000777E+02  0.7816164E-02  0.1186339E+00
        -11   -1    0    0    0    0  0.00000000000E+00  0.00000000000E+00  0.45593999997E+02  0.45594000000E+02  0.51100000000E-03 0. -1.
         11   -1    0    0    0    0 -0.00000000000E+00 -0.00000000000E+00 -0.45593999997E+02  0.45594000000E+02  0.51100000000E-03 0.  1.
    9900012    2    1    2    0    0  0.28697517108E-02 -0.10239568859E+01  0.58689874849E+00  0.90007768633E+02  0.90000030379E+02 0.  0.
        -12    1    1    2    0    0 -0.28697517108E-02  0.10239568859E+01 -0.58689874849E+00  0.11802313674E+01  0.00000000000E+00 0.  1.
         11    1    3    3    0    0 -0.59464272147E+01 -0.15324790752E+02  0.29506959044E+02  0.33776764803E+02  0.51100000000E-03 0. -1.
        -11    1    3    3    0    0 -0.92134199674E+01 -0.80914195266E+01  0.46581226774E+01  0.13117022703E+02  0.51100000000E-03 0.  1.
        -12    1    3    3    0    0  0.15162716934E+02  0.22392253393E+02 -0.33578182973E+02  0.43113981127E+02  0.00000000000E+00 0.  1.
</event>
<event>
 7    1  0.2641103E-015  0.9000785E+02  0.7816164E-02  0.1186339E+00
        -11   -1    0    0    0    0  0.00000000000E+00  0.00000000000E+00  0.45593999997E+02  0.45594000000E+02  0.51100000000E-03 0. -1.
         11   -1    0    0    0    0 -0.00000000000E+00 -0.00000000000E+00 -0.45593999997E+02  0.45594000000E+02  0.51100000000E-03 0.  1.
    9900012    2    1    2    0    0  0.69678811270E+00 -0.26247193533E+00  0.91560760386E+00  0.90007854892E+02  0.90000117777E+02 0.  0.
        -12    1    1    2    0    0 -0.69678811270E+00  0.26247193533E+00 -0.91560760386E+00  0.11801451076E+01  0.00000000000E+00 0.  1.
         11    1    3    3    0    0 -0.29365973572E+02 -0.14121945836E+02  0.18339175964E+02  0.37391377794E+02  0.51100000000E-03 0. -1.
        -11    1    3    3    0    0 -0.19659508599E+01 -0.82025073499E+01  0.26612644623E+01  0.88446830586E+01  0.51100000000E-03 0.  1.
        -12    1    3    3    0    0  0.32028712545E+02  0.22061981250E+02 -0.20084832822E+02  0.43771794040E+02  0.00000000000E+00 0.  1.
</event>
<event>
 7    1  0.2641103E-015  0.9000843E+02  0.7816164E-02  0.1186338E+00
        -11   -1    0    0    0    0  0.00000000000E+00  0.00000000000E+00  0.45593999997E+02  0.45594000000E+02  0.51100000000E-03 0.  1.
         11   -1    0    0    0    0 -0.00000000000E+00 -0.00000000000E+00 -0.45593999997E+02  0.45594000000E+02  0.51100000000E-03 0. -1.
    9900012    2    1    2    0    0 -0.42939761701E+00  0.21935869056E+00 -0.10765126499E+01  0.90008432268E+02  0.90000702771E+02 0.  0.
        -12    1    1    2    0    0  0.42939761701E+00 -0.21935869056E+00  0.10765126499E+01  0.11795677319E+01  0.00000000000E+00 0.  1.
         11    1    3    3    0    0 -0.93827453188E+01 -0.26408954743E+02 -0.30292383277E+02  0.41268599263E+02  0.51100000000E-03 0. -1.
        -11    1    3    3    0    0  0.37399981886E+01  0.67531359309E+01 -0.47344207187E+01  0.90557810902E+01  0.51100000000E-03 0.  1.
        -12    1    3    3    0    0  0.52133495133E+01  0.19875177502E+02  0.33950291346E+02  0.39684051914E+02  0.00000000000E+00 0.  1.
</event>
<event>
 7    1  0.2641103E-015  0.9000768E+02  0.7816164E-02  0.1186339E+00
        -11   -1    0    0    0    0  0.00000000000E+00  0.00000000000E+00  0.45593999997E+02  0.45594000000E+02  0.51100000000E-03 0.  1.
         11   -1    0    0    0    0 -0.00000000000E+00 -0.00000000000E+00 -0.45593999997E+02  0.45594000000E+02  0.51100000000E-03 0. -1.
    9900012    2    1    2    0    0  0.98266849049E+00  0.83124119880E-01 -0.64854706505E+00  0.90007677893E+02  0.89999938441E+02 0.  0.
        -12    1    1    2    0    0 -0.98266849049E+00 -0.83124119880E-01  0.64854706505E+00  0.11803221073E+01  0.00000000000E+00 0.  1.
         11    1    3    3    0    0  0.19580382807E+02 -0.34311979803E+02 -0.14277297663E+02  0.42006482567E+02  0.51100000000E-03 0. -1.
        -11    1    3    3    0    0 -0.41147066849E+01  0.60331113134E+01 -0.69529600035E+01  0.10083297888E+02  0.51100000000E-03 0.  1.
        -12    1    3    3    0    0 -0.14483007632E+02  0.28361992609E+02  0.20581710601E+02  0.37917897438E+02  0.00000000000E+00 0.  1.
</event>
<event>
 7    1  0.2641103E-015  0.9000773E+02  0.7816164E-02  0.1186339E+00
        -11   -1    0    0    0    0  0.00000000000E+00  0.00000000000E+00  0.45593999997E+02  0.45594000000E+02  0.51100000000E-03 0.  1.
         11   -1    0    0    0    0 -0.00000000000E+00 -0.00000000000E+00 -0.45593999997E+02  0.45594000000E+02  0.51100000000E-03 0. -1.
    9900012    2    1    2    0    0  0.90662245363E+00  0.73714807286E+00  0.16640758758E+00  0.90007727557E+02  0.89999988761E+02 0.  0.
        -12    1    1    2    0    0 -0.90662245363E+00 -0.73714807286E+00 -0.16640758758E+00  0.11802724431E+01  0.00000000000E+00 0.  1.
         11    1    3    3    0    0  0.59361525186E+01 -0.68755857695E+01  0.23529850621E+01  0.93833962595E+01  0.51100000000E-03 0. -1.
        -11    1    3    3    0    0  0.16153726150E+02 -0.25823250894E+02  0.18829297940E+02  0.35809574368E+02  0.51100000000E-03 0.  1.
         12    1    3    3    0    0 -0.21183256215E+02  0.33435984736E+02 -0.21015875415E+02  0.44814756929E+02  0.00000000000E+00 0. -1.
</event>
<event>
 7    1  0.2641103E-015  0.9000753E+02  0.7816164E-02  0.1186339E+00
        -11   -1    0    0    0    0  0.00000000000E+00  0.00000000000E+00  0.45593999997E+02  0.45594000000E+02  0.51100000000E-03 0.  1.
         11   -1    0    0    0    0 -0.00000000000E+00 -0.00000000000E+00 -0.45593999997E+02  0.45594000000E+02  0.51100000000E-03 0. -1.
    9900012    2    1    2    0    0  0.11529819775E+01 -0.25098379527E+00 -0.33910974621E-01  0.90007529645E+02  0.89999788236E+02 0.  0.
        -12    1    1    2    0    0 -0.11529819775E+01  0.25098379527E+00  0.33910974621E-01  0.11804703555E+01  0.00000000000E+00 0.  1.
         11    1    3    3    0    0 -0.22454333694E+02  0.23264437374E+02 -0.18892047420E+02  0.37447838442E+02  0.51100000000E-03 0. -1.
        -11    1    3    3    0    0 -0.76523806705E+01  0.26852972573E+01  0.47629705039E+01  0.94050858352E+01  0.51100000000E-03 0.  1.
        -12    1    3    3    0    0  0.31259696342E+02 -0.26200718426E+02  0.14095165942E+02  0.43154605367E+02  0.00000000000E+00 0.  1.
</event>
<event>
 7    1  0.2641103E-015  0.9000777E+02  0.7816164E-02  0.1186339E+00
        -11   -1    0    0    0    0  0.00000000000E+00  0.00000000000E+00  0.45593999997E+02  0.45594000000E+02  0.51100000000E-03 0. -1.
         11   -1    0    0    0    0 -0.00000000000E+00 -0.00000000000E+00 -0.45593999997E+02  0.45594000000E+02  0.51100000000E-03 0.  1.
    9900012    2    1    2    0    0 -0.10139350788E+01  0.58130278978E+00  0.16419278433E+00  0.90007772671E+02  0.90000034470E+02 0.  0.
        -12    1    1    2    0    0  0.10139350788E+01 -0.58130278978E+00 -0.16419278433E+00  0.11802273288E+01  0.00000000000E+00 0.  1.
         11    1    3    3    0    0  0.30245721406E+02  0.28046302252E+01  0.21876387855E+02  0.37433220005E+02  0.51100000000E-03 0. -1.
        -11    1    3    3    0    0  0.19781750650E+01 -0.30911685186E+01  0.74780429097E+01  0.83300435424E+01  0.51100000000E-03 0.  1.
        -12    1    3    3    0    0 -0.33237831550E+02  0.86784108317E+00 -0.29190237980E+02  0.44244509124E+02  0.00000000000E+00 0.  1.
</event>
<event>
 7    1  0.2641103E-015  0.9000774E+02  0.7816164E-02  0.1186339E+00
        -11   -1    0    0    0    0  0.00000000000E+00  0.00000000000E+00  0.45593999997E+02  0.45594000000E+02  0.51100000000E-03 0. -1.
         11   -1    0    0    0    0 -0.00000000000E+00 -0.00000000000E+00 -0.45593999997E+02  0.45594000000E+02  0.51100000000E-03 0.  1.
    9900012    2    1    2    0    0 -0.35586038507E+00 -0.83338007293E+00  0.75621619346E+00  0.90007736516E+02  0.89999997838E+02 0.  0.
        -12    1    1    2    0    0  0.35586038507E+00  0.83338007293E+00 -0.75621619346E+00  0.11802634837E+01  0.00000000000E+00 0.  1.
         11    1    3    3    0    0 -0.63435612769E+01  0.36415712383E+01 -0.69134770851E+01  0.10064689584E+02  0.51100000000E-03 0. -1.
        -11    1    3    3    0    0  0.57560500946E+01 -0.39859705448E+02  0.16419652915E+02  0.43491760521E+02  0.51100000000E-03 0.  1.
         12    1    3    3    0    0  0.23165079722E+00  0.35384754137E+02 -0.87499596367E+01  0.36451286411E+02  0.00000000000E+00 0. -1.
</event>
<event>
 7    1  0.2641103E-015  0.9000773E+02  0.7816164E-02  0.1186339E+00
        -11   -1    0    0    0    0  0.00000000000E+00  0.00000000000E+00  0.45593999997E+02  0.45594000000E+02  0.51100000000E-03 0.  1.
         11   -1    0    0    0    0 -0.00000000000E+00 -0.00000000000E+00 -0.45593999997E+02  0.45594000000E+02  0.51100000000E-03 0. -1.
    9900012    2    1    2    0    0  0.10761346199E+01  0.44112555005E+00  0.20095190683E+00  0.90007729209E+02  0.89999990435E+02 0.  0.
        -12    1    1    2    0    0 -0.10761346199E+01 -0.44112555005E+00 -0.20095190683E+00  0.11802707909E+01  0.00000000000E+00 0.  1.
         11    1    3    3    0    0 -0.46093842979E+01 -0.97004136188E+01  0.31872851307E+00  0.10744581709E+02  0.51100000000E-03 0. -1.
        -11    1    3    3    0    0  0.31020926985E+02 -0.18200332773E+02  0.14163143119E+02  0.38654167270E+02  0.51100000000E-03 0.  1.
         12    1    3    3    0    0 -0.25335408067E+02  0.28341871942E+02 -0.14280919726E+02  0.40608980230E+02  0.00000000000E+00 0. -1.
</event>
<event>
 7    1  0.2641103E-015  0.9000782E+02  0.7816164E-02  0.1186339E+00
        -11   -1    0    0    0    0  0.00000000000E+00  0.00000000000E+00  0.45593999997E+02  0.45594000000E+02  0.51100000000E-03 0. -1.
         11   -1    0    0    0    0 -0.00000000000E+00 -0.00000000000E+00 -0.45593999997E+02  0.45594000000E+02  0.51100000000E-03 0.  1.
    9900012    2    1    2    0    0 -0.88331528407E+00  0.63529932792E+00  0.45714593328E+00  0.90007816315E+02  0.90000078690E+02 0.  0.
        -12    1    1    2    0    0  0.88331528407E+00 -0.63529932792E+00 -0.45714593328E+00  0.11801836855E+01  0.00000000000E+00 0.  1.
         11    1    3    3    0    0 -0.19212621612E+02  0.32625866671E+02  0.24417413613E+01  0.37941192738E+02  0.51100000000E-03 0. -1.
        -11    1    3    3    0    0 -0.88360496061E+01  0.83076544654E+00 -0.32267353733E+01  0.94433979742E+01  0.51100000000E-03 0.  1.
        -12    1    3    3    0    0  0.27165355934E+02 -0.32821332790E+02  0.12421399454E+01  0.42623225602E+02  0.00000000000E+00 0.  1.
</event>
<event>
 7    1  0.2641103E-015  0.9000783E+02  0.7816164E-02  0.1186339E+00
        -11   -1    0    0    0    0  0.00000000000E+00  0.00000000000E+00  0.45593999997E+02  0.45594000000E+02  0.51100000000E-03 0.  1.
         11   -1    0    0    0    0 -0.00000000000E+00 -0.00000000000E+00 -0.45593999997E+02  0.45594000000E+02  0.51100000000E-03 0. -1.
    9900012    2    1    2    0    0  0.58072628931E+00  0.91626365023E+00 -0.46478664551E+00  0.90007826824E+02  0.90000089338E+02 0.  0.
        -12    1    1    2    0    0 -0.58072628931E+00 -0.91626365023E+00  0.46478664551E+00  0.11801731761E+01  0.00000000000E+00 0.  1.
         11    1    3    3    0    0 -0.82104517065E+01 -0.23070513690E+02  0.33293524108E+02  0.41329394708E+02  0.51100000000E-03 0. -1.
        -11    1    3    3    0    0  0.15133435248E+01  0.88071976559E+01  0.19985710187E+01  0.91570314814E+01  0.51100000000E-03 0.  1.
        -12    1    3    3    0    0  0.72778344710E+01  0.15179579684E+02 -0.35756881772E+02  0.39521400634E+02  0.00000000000E+00 0.  1.
</event>
<event>
 7    1  0.2641103E-015  0.9000799E+02  0.7816164E-02  0.1186339E+00
        -11   -1    0    0    0    0  0.00000000000E+00  0.00000000000E+00  0.45593999997E+02  0.45594000000E+02  0.51100000000E-03 0.  1.
         11   -1    0    0    0    0 -0.00000000000E+00 -0.00000000000E+00 -0.45593999997E+02  0.45594000000E+02  0.51100000000E-03 0. -1.
    9900012    2    1    2    0    0 -0.54067809988E-01 -0.66064810515E+00 -0.97624227196E+00  0.90007988042E+02  0.90000252684E+02 0.  0.
        -12    1    1    2    0    0  0.54067809988E-01  0.66064810515E+00  0.97624227196E+00  0.11800119578E+01  0.00000000000E+00 0.  1.
         11    1    3    3    0    0 -0.38988393127E+01  0.75584261053E+01  0.61935464063E+01  0.10520968136E+02  0.51100000000E-03 0. -1.
        -11    1    3    3    0    0 -0.23406851394E+02 -0.33531636923E+01  0.26751360255E+02  0.35703776757E+02  0.51100000000E-03 0.  1.
         12    1    3    3    0    0  0.27251622897E+02 -0.48659105182E+01 -0.33921148934E+02  0.43783243149E+02  0.00000000000E+00 0. -1.
</event>
<event>
 7    1  0.2641103E-015  0.9000769E+02  0.7816164E-02  0.1186339E+00
        -11   -1    0    0    0    0  0.00000000000E+00  0.00000000000E+00  0.45593999997E+02  0.45594000000E+02  0.51100000000E-03 0.  1.
         11   -1    0    0    0    0 -0.00000000000E+00 -0.00000000000E+00 -0.45593999997E+02  0.45594000000E+02  0.51100000000E-03 0. -1.
    9900012    2    1    2    0    0 -0.63230544838E+00 -0.99659529944E+00  0.11076500154E-01  0.90007688575E+02  0.89999949264E+02 0.  0.
        -12    1    1    2    0    0  0.63230544838E+00  0.99659529944E+00 -0.11076500154E-01  0.11803114249E+01  0.00000000000E+00 0.  1.
         11    1    3    3    0    0 -0.22134033977E+00 -0.15173906808E+02 -0.22865227423E+01  0.15346811587E+02  0.51100000000E-03 0. -1.
        -11    1    3    3    0    0 -0.33379369948E+02  0.16487790085E+02  0.13744282011E+02  0.39685448823E+02  0.51100000000E-03 0.  1.
         12    1    3    3    0    0  0.32968404840E+02 -0.23104785761E+01 -0.11446682769E+02  0.34975428165E+02  0.00000000000E+00 0. -1.
</event>
<event>
 7    1  0.2641103E-015  0.9000790E+02  0.7816164E-02  0.1186339E+00
        -11   -1    0    0    0    0  0.00000000000E+00  0.00000000000E+00  0.45593999997E+02  0.45594000000E+02  0.51100000000E-03 0. -1.
         11   -1    0    0    0    0 -0.00000000000E+00 -0.00000000000E+00 -0.45593999997E+02  0.45594000000E+02  0.51100000000E-03 0.  1.
    9900012    2    1    2    0    0 -0.14524112884E+00  0.11699539912E+01 -0.52444532538E-01  0.90007899260E+02  0.90000162730E+02 0.  0.
        -12    1    1    2    0    0  0.14524112884E+00 -0.11699539912E+01  0.52444532538E-01  0.11801007398E+01  0.00000000000E+00 0.  1.
         11    1    3    3    0    0 -0.22368295521E+02 -0.25494015435E+02  0.34883967667E+01  0.34094785228E+02  0.51100000000E-03 0. -1.
        -11    1    3    3    0    0 -0.16270244805E+01  0.85908462085E+01  0.17342752873E+02  0.19422176107E+02  0.51100000000E-03 0.  1.
        -12    1    3    3    0    0  0.23850078873E+02  0.18073123217E+02 -0.20883594173E+02  0.36490937925E+02  0.00000000000E+00 0.  1.
</event>
<event>
 7    1  0.2641103E-015  0.9000726E+02  0.7816164E-02  0.1186340E+00
        -11   -1    0    0    0    0  0.00000000000E+00  0.00000000000E+00  0.45593999997E+02  0.45594000000E+02  0.51100000000E-03 0. -1.
         11   -1    0    0    0    0 -0.00000000000E+00 -0.00000000000E+00 -0.45593999997E+02  0.45594000000E+02  0.51100000000E-03 0.  1.
    9900012    2    1    2    0    0 -0.51588563198E+00  0.97985023518E+00  0.40976042818E+00  0.90007259522E+02  0.89999514546E+02 0.  0.
        -12    1    1    2    0    0  0.51588563198E+00 -0.97985023518E+00 -0.40976042818E+00  0.11807404783E+01  0.00000000000E+00 0.  1.
         11    1    3    3    0    0  0.22169912589E+02  0.33079254707E+02 -0.40926151810E+01  0.40031133077E+02  0.51100000000E-03 0. -1.
        -11    1    3    3    0    0 -0.54407060489E+01  0.18976665201E+01 -0.79985579708E+01  0.98579587342E+01  0.51100000000E-03 0.  1.
        -12    1    3    3    0    0 -0.17245092172E+02 -0.33997070992E+02  0.12500933580E+02  0.40118167710E+02  0.00000000000E+00 0.  1.
</event>
<event>
 7    1  0.2641103E-015  0.9000776E+02  0.7816164E-02  0.1186339E+00
        -11   -1    0    0    0    0  0.00000000000E+00  0.00000000000E+00  0.45593999997E+02  0.45594000000E+02  0.51100000000E-03 0.  1.
         11   -1    0    0    0    0 -0.00000000000E+00 -0.00000000000E+00 -0.45593999997E+02  0.45594000000E+02  0.51100000000E-03 0. -1.
    9900012    2    1    2    0    0 -0.11118280584E+01  0.39401697013E+00 -0.39396822231E-01  0.90007761417E+02  0.90000023067E+02 0.  0.
        -12    1    1    2    0    0  0.11118280584E+01 -0.39401697013E+00  0.39396822231E-01  0.11802385835E+01  0.00000000000E+00 0.  1.
         11    1    3    3    0    0 -0.18598929631E+02  0.53693065660E+01 -0.32528885777E+02  0.37853375630E+02  0.51100000000E-03 0. -1.
        -11    1    3    3    0    0  0.42516732455E+01 -0.98397120671E+01 -0.51997706540E+01  0.11913617170E+02  0.51100000000E-03 0.  1.
        -12    1    3    3    0    0  0.13235428327E+02  0.48644224712E+01  0.37689259609E+02  0.40240768617E+02  0.00000000000E+00 0.  1.
</event>
<event>
 7    1  0.2641103E-015  0.9000727E+02  0.7816164E-02  0.1186340E+00
        -11   -1    0    0    0    0  0.00000000000E+00  0.00000000000E+00  0.45593999997E+02  0.45594000000E+02  0.51100000000E-03 0. -1.
         11   -1    0    0    0    0 -0.00000000000E+00 -0.00000000000E+00 -0.45593999997E+02  0.45594000000E+02  0.51100000000E-03 0.  1.
    9900012    2    1    2    0    0  0.11009144479E+01  0.41769048643E+00 -0.87470464861E-01  0.90007267581E+02  0.89999522711E+02 0.  0.
        -12    1    1    2    0    0 -0.11009144479E+01 -0.41769048643E+00  0.87470464861E-01  0.11807324194E+01  0.00000000000E+00 0.  1.
         11    1    3    3    0    0  0.66789006990E+01  0.32380196057E+02  0.12451585650E+02  0.35328838032E+02  0.51100000000E-03 0. -1.
        -11    1    3    3    0    0 -0.86101370453E+01  0.86486809453E+01 -0.53477706695E+01  0.13324143253E+02  0.51100000000E-03 0.  1.
         12    1    3    3    0    0  0.30321507942E+01 -0.40611186516E+02 -0.71912854451E+01  0.41354286296E+02  0.00000000000E+00 0. -1.
</event>
<event>
 7    1  0.2641103E-015  0.9000776E+02  0.7816164E-02  0.1186339E+00
        -11   -1    0    0    0    0  0.00000000000E+00  0.00000000000E+00  0.45593999997E+02  0.45594000000E+02  0.51100000000E-03 0. -1.
         11   -1    0    0    0    0 -0.00000000000E+00 -0.00000000000E+00 -0.45593999997E+02  0.45594000000E+02  0.51100000000E-03 0.  1.
    9900012    2    1    2    0    0  0.13762180642E+00 -0.73674933898E+00  0.91172074700E+00  0.90007756775E+02  0.90000018364E+02 0.  0.
        -12    1    1    2    0    0 -0.13762180642E+00  0.73674933898E+00 -0.91172074700E+00  0.11802432252E+01  0.00000000000E+00 0.  1.
         11    1    3    3    0    0  0.10907481839E+02 -0.15753347823E+02  0.30091250002E+02  0.35673862345E+02  0.51100000000E-03 0. -1.
        -11    1    3    3    0    0  0.74299219120E+01 -0.21739774549E+01  0.69331203998E+01  0.10392212293E+02  0.51100000000E-03 0.  1.
        -12    1    3    3    0    0 -0.18199781945E+02  0.17190575939E+02 -0.36112649655E+02  0.43941682137E+02  0.00000000000E+00 0.  1.
</event>
<event>
 7    1  0.2641103E-015  0.9000781E+02  0.7816164E-02  0.1186339E+00
        -11   -1    0    0    0    0  0.00000000000E+00  0.00000000000E+00  0.45593999997E+02  0.45594000000E+02  0.51100000000E-03 0.  1.
         11   -1    0    0    0    0 -0.00000000000E+00 -0.00000000000E+00 -0.45593999997E+02  0.45594000000E+02  0.51100000000E-03 0. -1.
    9900012    2    1    2    0    0  0.20275416992E+00 -0.33886855676E+00 -0.11121675937E+01  0.90007805987E+02  0.90000068226E+02 0.  0.
        -12    1    1    2    0    0 -0.20275416992E+00  0.33886855676E+00  0.11121675937E+01  0.11801940132E+01  0.00000000000E+00 0.  1.
         11    1    3    3    0    0 -0.20840926082E+01 -0.17598046149E+00  0.81888488475E+01  0.84517250801E+01  0.51100000000E-03 0. -1.
        -11    1    3    3    0    0  0.22010652058E+02 -0.30960786038E+02  0.11233090283E+02  0.39613399169E+02  0.51100000000E-03 0.  1.
         12    1    3    3    0    0 -0.19723805280E+02  0.30797897943E+02 -0.20534106724E+02  0.41942681738E+02  0.00000000000E+00 0. -1.
</event>
<event>
 7    1  0.2641103E-015  0.9000771E+02  0.7816164E-02  0.1186339E+00
        -11   -1    0    0    0    0  0.00000000000E+00  0.00000000000E+00  0.45593999997E+02  0.45594000000E+02  0.51100000000E-03 0. -1.
         11   -1    0    0    0    0 -0.00000000000E+00 -0.00000000000E+00 -0.45593999997E+02  0.45594000000E+02  0.51100000000E-03 0.  1.
    9900012    2    1    2    0    0  0.20025230327E+00 -0.11246569593E+01  0.29685736752E+00  0.90007712511E+02  0.89999973516E+02 0.  0.
        -12    1    1    2    0    0 -0.20025230327E+00  0.11246569593E+01 -0.29685736752E+00  0.11802874894E+01  0.00000000000E+00 0.  1.
         11    1    3    3    0    0  0.77415063484E+01 -0.20353327461E+01 -0.31005507749E+01  0.85841082996E+01  0.51100000000E-03 0. -1.
        -11    1    3    3    0    0 -0.16752479161E+02  0.19362577825E+02 -0.31679859593E+02  0.40732891895E+02  0.51100000000E-03 0.  1.
         12    1    3    3    0    0  0.92112251154E+01 -0.18451902038E+02  0.35077267736E+02  0.40690712316E+02  0.00000000000E+00 0. -1.
</event>
<event>
 7    1  0.2641103E-015  0.9000751E+02  0.7816164E-02  0.1186340E+00
        -11   -1    0    0    0    0  0.00000000000E+00  0.00000000000E+00  0.45593999997E+02  0.45594000000E+02  0.51100000000E-03 0.  1.
         11   -1    0    0    0    0 -0.00000000000E+00 -0.00000000000E+00 -0.45593999997E+02  0.45594000000E+02  0.51100000000E-03 0. -1.
    9900012    2    1    2    0    0 -0.98543907485E+00 -0.47406780156E+00  0.44467197957E+00  0.90007507044E+02  0.89999765336E+02 0.  0.
        -12    1    1    2    0    0  0.98543907485E+00  0.47406780156E+00 -0.44467197957E+00  0.11804929564E+01  0.00000000000E+00 0.  1.
         11    1    3    3    0    0 -0.40120428922E+01  0.87797672127E+01 -0.40272317164E+01  0.10459416620E+02  0.51100000000E-03 0. -1.
        -11    1    3    3    0    0  0.11762001008E+02  0.32239665052E+02  0.12247177191E+02  0.36438084743E+02  0.51100000000E-03 0.  1.
         12    1    3    3    0    0 -0.87353971903E+01 -0.41493500066E+02 -0.77752734947E+01  0.43110005680E+02  0.00000000000E+00 0. -1.
</event>
<event>
 7    1  0.2641103E-015  0.9000770E+02  0.7816164E-02  0.1186339E+00
        -11   -1    0    0    0    0  0.00000000000E+00  0.00000000000E+00  0.45593999997E+02  0.45594000000E+02  0.51100000000E-03 0.  1.
         11   -1    0    0    0    0 -0.00000000000E+00 -0.00000000000E+00 -0.45593999997E+02  0.45594000000E+02  0.51100000000E-03 0. -1.
    9900012    2    1    2    0    0 -0.94940752390E+00 -0.65866997987E+00  0.24059039183E+00  0.90007701510E+02  0.89999962370E+02 0.  0.
        -12    1    1    2    0    0  0.94940752390E+00  0.65866997987E+00 -0.24059039183E+00  0.11802984900E+01  0.00000000000E+00 0.  1.
         11    1    3    3    0    0  0.25040805242E+02 -0.35646040936E+01 -0.31306428158E+02  0.40247245543E+02  0.51100000000E-03 0. -1.
        -11    1    3    3    0    0  0.47473243733E+01 -0.47204236004E+01  0.70496852826E+01  0.97220137069E+01  0.51100000000E-03 0.  1.
        -12    1    3    3    0    0 -0.30737537140E+02  0.76263577141E+01  0.24497333267E+02  0.40038442260E+02  0.00000000000E+00 0.  1.
</event>
<event>
 7    1  0.2641103E-015  0.9000771E+02  0.7816164E-02  0.1186339E+00
        -11   -1    0    0    0    0  0.00000000000E+00  0.00000000000E+00  0.45593999997E+02  0.45594000000E+02  0.51100000000E-03 0.  1.
         11   -1    0    0    0    0 -0.00000000000E+00 -0.00000000000E+00 -0.45593999997E+02  0.45594000000E+02  0.51100000000E-03 0. -1.
    9900012    2    1    2    0    0 -0.72188289191E+00  0.44368915295E+00 -0.82164722343E+00  0.90007712266E+02  0.89999973268E+02 0.  0.
        -12    1    1    2    0    0  0.72188289191E+00 -0.44368915295E+00  0.82164722343E+00  0.11802877335E+01  0.00000000000E+00 0.  1.
         11    1    3    3    0    0 -0.14430704906E+01  0.40085797253E+02  0.83149923494E+01  0.40964529680E+02  0.51100000000E-03 0. -1.
        -11    1    3    3    0    0  0.18959584807E+01 -0.50553955167E+01  0.86012714169E+01  0.10155469100E+02  0.51100000000E-03 0.  1.
        -12    1    3    3    0    0 -0.11747708820E+01 -0.34586712583E+02 -0.17737910990E+02  0.38887713487E+02  0.00000000000E+00 0.  1.
</event>
<event>
 7    1  0.2641103E-015  0.9000772E+02  0.7816164E-02  0.1186339E+00
        -11   -1    0    0    0    0  0.00000000000E+00  0.00000000000E+00  0.45593999997E+02  0.45594000000E+02  0.51100000000E-03 0. -1.
         11   -1    0    0    0    0 -0.00000000000E+00 -0.00000000000E+00 -0.45593999997E+02  0.45594000000E+02  0.51100000000E-03 0.  1.
    9900012    2    1    2    0    0 -0.41776941801E+00 -0.43467665255E+00  0.10146826414E+01  0.90007722091E+02  0.89999983223E+02 0.  0.
        -12    1    1    2    0    0  0.41776941801E+00  0.43467665255E+00 -0.10146826414E+01  0.11802779086E+01  0.00000000000E+00 0.  1.
         11    1    3    3    0    0  0.36502714541E+02  0.43215723595E+00  0.21959385135E+02  0.42601050744E+02  0.51100000000E-03 0. -1.
        -11    1    3    3    0    0  0.56715309818E-01 -0.28863987486E+01 -0.74540905509E+01  0.79936212422E+01  0.51100000000E-03 0.  1.
        -12    1    3    3    0    0 -0.36977199269E+02  0.20195648601E+01 -0.13490611942E+02  0.39413050105E+02  0.00000000000E+00 0.  1.
</event>
<event>
 7    1  0.2641103E-015  0.9000768E+02  0.7816164E-02  0.1186339E+00
        -11   -1    0    0    0    0  0.00000000000E+00  0.00000000000E+00  0.45593999997E+02  0.45594000000E+02  0.51100000000E-03 0.  1.
         11   -1    0    0    0    0 -0.00000000000E+00 -0.00000000000E+00 -0.45593999997E+02  0.45594000000E+02  0.51100000000E-03 0. -1.
    9900012    2    1    2    0    0  0.63327904561E+00 -0.79833892436E+00 -0.59563219104E+00  0.90007675852E+02  0.89999936373E+02 0.  0.
        -12    1    1    2    0    0 -0.63327904561E+00  0.79833892436E+00  0.59563219104E+00  0.11803241482E+01  0.00000000000E+00 0.  1.
         11    1    3    3    0    0  0.38008369937E+02  0.13984911043E+02 -0.92038413427E+01  0.41532211811E+02  0.51100000000E-03 0. -1.
        -11    1    3    3    0    0 -0.20058795083E+00 -0.93159011675E+01 -0.17908534648E+01  0.94885934933E+01  0.51100000000E-03 0.  1.
        -12    1    3    3    0    0 -0.37174502941E+02 -0.54673487999E+01  0.10399062616E+02  0.38986870548E+02  0.00000000000E+00 0.  1.
</event>
<event>
 7    1  0.2641103E-015  0.9000770E+02  0.7816164E-02  0.1186339E+00
        -11   -1    0    0    0    0  0.00000000000E+00  0.00000000000E+00  0.45593999997E+02  0.45594000000E+02  0.51100000000E-03 0. -1.
         11   -1    0    0    0    0 -0.00000000000E+00 -0.00000000000E+00 -0.45593999997E+02  0.45594000000E+02  0.51100000000E-03 0.  1.
    9900012    2    1    2    0    0 -0.75271087026E+00  0.90893418189E+00  0.19229557204E-01  0.90007701403E+02  0.89999962262E+02 0.  0.
        -12    1    1    2    0    0  0.75271087026E+00 -0.90893418189E+00 -0.19229557204E-01  0.11802985966E+01  0.00000000000E+00 0.  1.
         11    1    3    3    0    0 -0.26517848519E+02  0.22117881507E+02  0.24765021032E+02  0.42493567036E+02  0.51100000000E-03 0. -1.
        -11    1    3    3    0    0 -0.30972780071E+01 -0.26737640277E+01 -0.87642344786E+01  0.96723291603E+01  0.51100000000E-03 0.  1.
        -12    1    3    3    0    0  0.28862415656E+02 -0.18535183298E+02 -0.15981556996E+02  0.37841805208E+02  0.00000000000E+00 0.  1.
</event>
<event>
 7    1  0.2641103E-015  0.9000762E+02  0.7816164E-02  0.1186339E+00
        -11   -1    0    0    0    0  0.00000000000E+00  0.00000000000E+00  0.45593999997E+02  0.45594000000E+02  0.51100000000E-03 0. -1.
         11   -1    0    0    0    0 -0.00000000000E+00 -0.00000000000E+00 -0.45593999997E+02  0.45594000000E+02  0.51100000000E-03 0.  1.
    9900012    2    1    2    0    0  0.58485692562E+00 -0.99957657590E+00  0.22821370266E+00  0.90007621904E+02  0.89999881713E+02 0.  0.
        -12    1    1    2    0    0 -0.58485692562E+00  0.99957657590E+00 -0.22821370266E+00  0.11803780956E+01  0.00000000000E+00 0.  1.
         11    1    3    3    0    0 -0.69011310039E+01  0.20493415982E+02  0.27409471669E+02  0.34912531349E+02  0.51100000000E-03 0. -1.
        -11    1    3    3    0    0 -0.41057647525E+01  0.71390298934E+01  0.56727990403E+01  0.10000185060E+02  0.51100000000E-03 0.  1.
        -12    1    3    3    0    0  0.11591752682E+02 -0.28632022451E+02 -0.32854057007E+02  0.45094905496E+02  0.00000000000E+00 0.  1.
</event>
<event>
 7    1  0.2641103E-015  0.9000762E+02  0.7816164E-02  0.1186339E+00
        -11   -1    0    0    0    0  0.00000000000E+00  0.00000000000E+00  0.45593999997E+02  0.45594000000E+02  0.51100000000E-03 0.  1.
         11   -1    0    0    0    0 -0.00000000000E+00 -0.00000000000E+00 -0.45593999997E+02  0.45594000000E+02  0.51100000000E-03 0. -1.
    9900012    2    1    2    0    0  0.61194810371E+00 -0.95613574557E+00  0.32346070542E+00  0.90007617488E+02  0.89999877239E+02 0.  0.
        -12    1    1    2    0    0 -0.61194810371E+00  0.95613574557E+00 -0.32346070542E+00  0.11803825115E+01  0.00000000000E+00 0.  1.
         11    1    3    3    0    0  0.15819375065E+02  0.15847756342E+02 -0.35610146764E+02  0.42065265497E+02  0.51100000000E-03 0. -1.
        -11    1    3    3    0    0 -0.33157234178E+01 -0.87701722747E+01  0.13794236187E+00  0.93770449433E+01  0.51100000000E-03 0.  1.
        -12    1    3    3    0    0 -0.11891703544E+02 -0.80337198126E+01  0.35795665108E+02  0.38565307048E+02  0.00000000000E+00 0.  1.
</event>
<event>
 7    1  0.2641103E-015  0.9000773E+02  0.7816164E-02  0.1186339E+00
        -11   -1    0    0    0    0  0.00000000000E+00  0.00000000000E+00  0.45593999997E+02  0.45594000000E+02  0.51100000000E-03 0. -1.
         11   -1    0    0    0    0 -0.00000000000E+00 -0.00000000000E+00 -0.45593999997E+02  0.45594000000E+02  0.51100000000E-03 0.  1.
    9900012    2    1    2    0    0  0.93971325116E+00  0.56753676427E+00 -0.43344551454E+00  0.90007731392E+02  0.89999992646E+02 0.  0.
        -12    1    1    2    0    0 -0.93971325116E+00 -0.56753676427E+00  0.43344551454E+00  0.11802686081E+01  0.00000000000E+00 0.  1.
         11    1    3    3    0    0  0.73309498789E+01  0.38413734299E+02  0.52785163800E+01  0.39461633828E+02  0.51100000000E-03 0. -1.
        -11    1    3    3    0    0 -0.30976199204E+01  0.50193128643E+01 -0.47008846018E+01  0.75423515631E+01  0.51100000000E-03 0.  1.
        -12    1    3    3    0    0 -0.32936167074E+01 -0.42865510399E+02 -0.10110772928E+01  0.43003746001E+02  0.00000000000E+00 0.  1.
</event>
<event>
 7    1  0.2641103E-015  0.9000777E+02  0.7816164E-02  0.1186339E+00
        -11   -1    0    0    0    0  0.00000000000E+00  0.00000000000E+00  0.45593999997E+02  0.45594000000E+02  0.51100000000E-03 0.  1.
         11   -1    0    0    0    0 -0.00000000000E+00 -0.00000000000E+00 -0.45593999997E+02  0.45594000000E+02  0.51100000000E-03 0. -1.
    9900012    2    1    2    0    0  0.91851273363E+00  0.73201411286E+00 -0.11590272539E+00  0.90007769622E+02  0.90000031381E+02 0.  0.
        -12    1    1    2    0    0 -0.91851273363E+00 -0.73201411286E+00  0.11590272539E+00  0.11802303779E+01  0.00000000000E+00 0.  1.
         11    1    3    3    0    0  0.61265862252E+01 -0.19945713009E+01  0.63722035890E+01  0.90619176938E+01  0.51100000000E-03 0. -1.
        -11    1    3    3    0    0  0.13544354429E+02 -0.54984844629E+01  0.33206054985E+02  0.36281192872E+02  0.51100000000E-03 0.  1.
         12    1    3    3    0    0 -0.18752427920E+02  0.82250698766E+01 -0.39694161299E+02  0.44664659056E+02  0.00000000000E+00 0. -1.
</event>
<event>
 7    1  0.2641103E-015  0.9000779E+02  0.7816164E-02  0.1186339E+00
        -11   -1    0    0    0    0  0.00000000000E+00  0.00000000000E+00  0.45593999997E+02  0.45594000000E+02  0.51100000000E-03 0.  1.
         11   -1    0    0    0    0 -0.00000000000E+00 -0.00000000000E+00 -0.45593999997E+02  0.45594000000E+02  0.51100000000E-03 0. -1.
    9900012    2    1    2    0    0 -0.83420254797E+00  0.25743040901E+00 -0.79418490069E+00  0.90007790712E+02  0.90000052750E+02 0.  0.
        -12    1    1    2    0    0  0.83420254797E+00 -0.25743040901E+00  0.79418490069E+00  0.11802092878E+01  0.00000000000E+00 0.  1.
         11    1    3    3    0    0  0.12897705888E+02 -0.67020127364E+01  0.45716442757E+01  0.15237051012E+02  0.51100000000E-03 0. -1.
        -11    1    3    3    0    0 -0.31226336512E+02 -0.35852697157E+01  0.23615314500E+02  0.39314390878E+02  0.51100000000E-03 0.  1.
         12    1    3    3    0    0  0.17494428076E+02  0.10544712861E+02 -0.28981143676E+02  0.35456348822E+02  0.00000000000E+00 0. -1.
</event>
<event>
 7    1  0.2641103E-015  0.9000775E+02  0.7816164E-02  0.1186339E+00
        -11   -1    0    0    0    0  0.00000000000E+00  0.00000000000E+00  0.45593999997E+02  0.45594000000E+02  0.51100000000E-03 0.  1.
         11   -1    0    0    0    0 -0.00000000000E+00 -0.00000000000E+00 -0.45593999997E+02  0.45594000000E+02  0.51100000000E-03 0. -1.
    9900012    2    1    2    0    0 -0.40410019936E-01  0.10940382058E+01 -0.44095406080E+00  0.90007748735E+02  0.90000010218E+02 0.  0.
        -12    1    1    2    0    0  0.40410019936E-01 -0.10940382058E+01  0.44095406080E+00  0.11802512653E+01  0.00000000000E+00 0.  1.
         11    1    3    3    0    0  0.72184486689E+01 -0.38244889500E+01 -0.31130991229E+01  0.87420880414E+01  0.51100000000E-03 0. -1.
        -11    1    3    3    0    0 -0.27307641234E+02 -0.30239866534E+02  0.95466714743E+00  0.40756204281E+02  0.51100000000E-03 0.  1.
         12    1    3    3    0    0  0.20048782545E+02  0.35158393690E+02  0.17174779147E+01  0.40509456412E+02  0.00000000000E+00 0. -1.
</event>
<event>
 7    1  0.2641103E-015  0.9000775E+02  0.7816164E-02  0.1186339E+00
        -11   -1    0    0    0    0  0.00000000000E+00  0.00000000000E+00  0.45593999997E+02  0.45594000000E+02  0.51100000000E-03 0.  1.
         11   -1    0    0    0    0 -0.00000000000E+00 -0.00000000000E+00 -0.45593999997E+02  0.45594000000E+02  0.51100000000E-03 0. -1.
    9900012    2    1    2    0    0 -0.38882332899E+00 -0.85959625105E-01 -0.11110472173E+01  0.90007746401E+02  0.90000007854E+02 0.  0.
        -12    1    1    2    0    0  0.38882332899E+00  0.85959625105E-01  0.11110472173E+01  0.11802535988E+01  0.00000000000E+00 0.  1.
         11    1    3    3    0    0 -0.62560600291E+01 -0.36752015071E+02  0.87798978191E+01  0.38300594054E+02  0.51100000000E-03 0. -1.
        -11    1    3    3    0    0  0.73816985407E+01 -0.45430539526E+01 -0.54336645045E+01  0.10230030438E+02  0.51100000000E-03 0.  1.
        -12    1    3    3    0    0 -0.15144618406E+01  0.41209109399E+02 -0.44572805319E+01  0.41477121909E+02  0.00000000000E+00 0.  1.
</event>
<event>
 7    1  0.2641103E-015  0.9000773E+02  0.7816164E-02  0.1186339E+00
        -11   -1    0    0    0    0  0.00000000000E+00  0.00000000000E+00  0.45593999997E+02  0.45594000000E+02  0.51100000000E-03 0.  1.
         11   -1    0    0    0    0 -0.00000000000E+00 -0.00000000000E+00 -0.45593999997E+02  0.45594000000E+02  0.51100000000E-03 0. -1.
    9900012    2    1    2    0    0  0.10301406737E+01  0.47158474832E+00 -0.33082504931E+00  0.90007734269E+02  0.89999995561E+02 0.  0.
        -12    1    1    2    0    0 -0.10301406737E+01 -0.47158474832E+00  0.33082504931E+00  0.11802657310E+01  0.00000000000E+00 0.  1.
         11    1    3    3    0    0  0.58115021819E-01  0.32918286404E+02  0.85491984217E+01  0.34010377109E+02  0.51100000000E-03 0. -1.
        -11    1    3    3    0    0  0.16941135116E+01  0.85828541450E+01  0.77810394702E+01  0.11708116047E+02  0.51100000000E-03 0.  1.
        -12    1    3    3    0    0 -0.72208785971E+00 -0.41029555801E+02 -0.16661062941E+02  0.44289241114E+02  0.00000000000E+00 0.  1.
</event>
<event>
 7    1  0.2641103E-015  0.9000774E+02  0.7816164E-02  0.1186339E+00
        -11   -1    0    0    0    0  0.00000000000E+00  0.00000000000E+00  0.45593999997E+02  0.45594000000E+02  0.51100000000E-03 0. -1.
         11   -1    0    0    0    0 -0.00000000000E+00 -0.00000000000E+00 -0.45593999997E+02  0.45594000000E+02  0.51100000000E-03 0.  1.
    9900012    2    1    2    0    0  0.82807416965E+00 -0.82322523056E-01  0.83697418554E+00  0.90007741717E+02  0.90000003107E+02 0.  0.
        -12    1    1    2    0    0 -0.82807416965E+00  0.82322523056E-01 -0.83697418554E+00  0.11802582834E+01  0.00000000000E+00 0.  1.
         11    1    3    3    0    0  0.48396391430E+01 -0.31716811714E+01  0.14864598252E+02  0.15951111245E+02  0.51100000000E-03 0. -1.
        -11    1    3    3    0    0 -0.36638110859E+02 -0.92310795859E+01 -0.87659693921E+01  0.38786675770E+02  0.51100000000E-03 0.  1.
         12    1    3    3    0    0  0.32626545886E+02  0.12320438234E+02 -0.52616546747E+01  0.35269954701E+02  0.00000000000E+00 0. -1.
</event>
<event>
 7    1  0.2641103E-015  0.9000770E+02  0.7816164E-02  0.1186339E+00
        -11   -1    0    0    0    0  0.00000000000E+00  0.00000000000E+00  0.45593999997E+02  0.45594000000E+02  0.51100000000E-03 0. -1.
         11   -1    0    0    0    0 -0.00000000000E+00 -0.00000000000E+00 -0.45593999997E+02  0.45594000000E+02  0.51100000000E-03 0.  1.
    9900012    2    1    2    0    0  0.49165062086E+00  0.91655876108E+00  0.55795881754E+00  0.90007695659E+02  0.89999956442E+02 0.  0.
        -12    1    1    2    0    0 -0.49165062086E+00 -0.91655876108E+00 -0.55795881754E+00  0.11803043411E+01  0.00000000000E+00 0.  1.
         11    1    3    3    0    0  0.22221956581E+02 -0.15219229001E+02  0.26558322521E+02  0.37825715870E+02  0.51100000000E-03 0. -1.
        -11    1    3    3    0    0  0.68857681430E+01  0.31673086993E+01  0.41471105668E+01  0.86396859683E+01  0.51100000000E-03 0.  1.
        -12    1    3    3    0    0 -0.28616074104E+02  0.12968479063E+02 -0.30147474270E+02  0.43542293821E+02  0.00000000000E+00 0.  1.
</event>
<event>
 7    1  0.2641103E-015  0.9000775E+02  0.7816164E-02  0.1186339E+00
        -11   -1    0    0    0    0  0.00000000000E+00  0.00000000000E+00  0.45593999997E+02  0.45594000000E+02  0.51100000000E-03 0.  1.
         11   -1    0    0    0    0 -0.00000000000E+00 -0.00000000000E+00 -0.45593999997E+02  0.45594000000E+02  0.51100000000E-03 0. -1.
    9900012    2    1    2    0    0 -0.59309957245E+00 -0.95171206281E+00 -0.36804481682E+00  0.90007754288E+02  0.90000015845E+02 0.  0.
        -12    1    1    2    0    0  0.59309957245E+00  0.95171206281E+00  0.36804481682E+00  0.11802457119E+01  0.00000000000E+00 0.  1.
         11    1    3    3    0    0 -0.71110563084E+01 -0.44976187678E+01 -0.30013942659E+00  0.84193693551E+01  0.51100000000E-03 0. -1.
        -11    1    3    3    0    0 -0.84200138795E+01  0.36652987025E+02  0.17220273308E+02  0.41362735701E+02  0.51100000000E-03 0.  1.
         12    1    3    3    0    0  0.14937970615E+02 -0.33107080320E+02 -0.17288178698E+02  0.40225649232E+02  0.00000000000E+00 0. -1.
</event>
<event>
 7    1  0.2641103E-015  0.9000859E+02  0.7816164E-02  0.1186337E+00
        -11   -1    0    0    0    0  0.00000000000E+00  0.00000000000E+00  0.45593999997E+02  0.45594000000E+02  0.51100000000E-03 0. -1.
         11   -1    0    0    0    0 -0.00000000000E+00 -0.00000000000E+00 -0.45593999997E+02  0.45594000000E+02  0.51100000000E-03 0.  1.
    9900012    2    1    2    0    0 -0.52001720133E+00 -0.41606712118E+00  0.97338029305E+00  0.90008593821E+02  0.90000866456E+02 0.  0.
        -12    1    1    2    0    0  0.52001720133E+00  0.41606712118E+00 -0.97338029305E+00  0.11794061785E+01  0.00000000000E+00 0.  1.
         11    1    3    3    0    0  0.13301895426E+02  0.17500164243E+02  0.25172238725E+02  0.33419122866E+02  0.51100000000E-03 0. -1.
        -11    1    3    3    0    0  0.87014828930E+01  0.16897834917E+01  0.85183988678E+01  0.12293668790E+02  0.51100000000E-03 0.  1.
        -12    1    3    3    0    0 -0.22523395520E+02 -0.19606014856E+02 -0.32717257300E+02  0.44295802166E+02  0.00000000000E+00 0.  1.
</event>
<event>
 7    1  0.2641103E-015  0.9000763E+02  0.7816164E-02  0.1186339E+00
        -11   -1    0    0    0    0  0.00000000000E+00  0.00000000000E+00  0.45593999997E+02  0.45594000000E+02  0.51100000000E-03 0.  1.
         11   -1    0    0    0    0 -0.00000000000E+00 -0.00000000000E+00 -0.45593999997E+02  0.45594000000E+02  0.51100000000E-03 0. -1.
    9900012    2    1    2    0    0 -0.52930191580E+00  0.99355306275E+00 -0.35491433368E+00  0.90007630401E+02  0.89999890322E+02 0.  0.
        -12    1    1    2    0    0  0.52930191580E+00 -0.99355306275E+00  0.35491433368E+00  0.11803695992E+01  0.00000000000E+00 0.  1.
         11    1    3    3    0    0  0.99746571740E+01 -0.17378660625E+01 -0.31901547241E+01  0.10615604157E+02  0.51100000000E-03 0. -1.
        -11    1    3    3    0    0  0.53995632139E+01  0.93731859671E+01  0.38387541774E+02  0.39882518248E+02  0.51100000000E-03 0.  1.
         12    1    3    3    0    0 -0.15903522304E+02 -0.66417668418E+01 -0.35552301383E+02  0.39509507996E+02  0.00000000000E+00 0. -1.
</event>
<event>
 7    1  0.2641103E-015  0.9000787E+02  0.7816164E-02  0.1186339E+00
        -11   -1    0    0    0    0  0.00000000000E+00  0.00000000000E+00  0.45593999997E+02  0.45594000000E+02  0.51100000000E-03 0.  1.
         11   -1    0    0    0    0 -0.00000000000E+00 -0.00000000000E+00 -0.45593999997E+02  0.45594000000E+02  0.51100000000E-03 0. -1.
    9900012    2    1    2    0    0  0.95863841561E+00 -0.64390823667E+00  0.24309237743E+00  0.90007873171E+02  0.90000136297E+02 0.  0.
        -12    1    1    2    0    0 -0.95863841561E+00  0.64390823667E+00 -0.24309237743E+00  0.11801268292E+01  0.00000000000E+00 0.  1.
         11    1    3    3    0    0  0.17651311940E+01 -0.68141879074E+01  0.75606939682E+01  0.10330195473E+02  0.51100000000E-03 0. -1.
        -11    1    3    3    0    0  0.31914681508E+02 -0.18797692994E+02 -0.10199300147E+02  0.38417780797E+02  0.51100000000E-03 0.  1.
         12    1    3    3    0    0 -0.32721174287E+02  0.24967972664E+02  0.28816985561E+01  0.41259896900E+02  0.00000000000E+00 0. -1.
</event>
<event>
 7    1  0.2641103E-015  0.9000771E+02  0.7816164E-02  0.1186339E+00
        -11   -1    0    0    0    0  0.00000000000E+00  0.00000000000E+00  0.45593999997E+02  0.45594000000E+02  0.51100000000E-03 0.  1.
         11   -1    0    0    0    0 -0.00000000000E+00 -0.00000000000E+00 -0.45593999997E+02  0.45594000000E+02  0.51100000000E-03 0. -1.
    9900012    2    1    2    0    0 -0.62915143347E+00  0.96777023295E+00  0.24632537130E+00  0.90007708960E+02  0.89999969918E+02 0.  0.
        -12    1    1    2    0    0  0.62915143347E+00 -0.96777023295E+00 -0.24632537130E+00  0.11802910398E+01  0.00000000000E+00 0.  1.
         11    1    3    3    0    0 -0.56957999365E+01 -0.16388201049E+02 -0.31916036549E+02  0.36326968767E+02  0.51100000000E-03 0. -1.
        -11    1    3    3    0    0  0.33410630670E+01 -0.20512680841E+01 -0.80738365759E+01  0.89753685431E+01  0.51100000000E-03 0.  1.
        -12    1    3    3    0    0  0.17255854361E+01  0.19407239366E+02  0.40236198496E+02  0.44705371650E+02  0.00000000000E+00 0.  1.
</event>
<event>
 7    1  0.2641103E-015  0.9000774E+02  0.7816164E-02  0.1186339E+00
        -11   -1    0    0    0    0  0.00000000000E+00  0.00000000000E+00  0.45593999997E+02  0.45594000000E+02  0.51100000000E-03 0.  1.
         11   -1    0    0    0    0 -0.00000000000E+00 -0.00000000000E+00 -0.45593999997E+02  0.45594000000E+02  0.51100000000E-03 0. -1.
    9900012    2    1    2    0    0 -0.36688900147E+00 -0.11217447506E+01 -0.93662159809E-02  0.90007743015E+02  0.90000004423E+02 0.  0.
        -12    1    1    2    0    0  0.36688900147E+00  0.11217447506E+01  0.93662159809E-02  0.11802569851E+01  0.00000000000E+00 0.  1.
         11    1    3    3    0    0  0.88301375789E+01  0.38662690472E+01 -0.12967965131E+01  0.97263069798E+01  0.51100000000E-03 0. -1.
        -11    1    3    3    0    0  0.38374797573E+01  0.24758265463E+02  0.28474328909E+02  0.37927369625E+02  0.51100000000E-03 0.  1.
         12    1    3    3    0    0 -0.13034506338E+02 -0.29746279261E+02 -0.27186898612E+02  0.42354066410E+02  0.00000000000E+00 0. -1.
</event>
<event>
 7    1  0.2641103E-015  0.9000762E+02  0.7816164E-02  0.1186339E+00
        -11   -1    0    0    0    0  0.00000000000E+00  0.00000000000E+00  0.45593999997E+02  0.45594000000E+02  0.51100000000E-03 0.  1.
         11   -1    0    0    0    0 -0.00000000000E+00 -0.00000000000E+00 -0.45593999997E+02  0.45594000000E+02  0.51100000000E-03 0. -1.
    9900012    2    1    2    0    0 -0.11200573153E+01 -0.29099514280E+00 -0.23257842731E+00  0.90007619007E+02  0.89999878778E+02 0.  0.
        -12    1    1    2    0    0  0.11200573153E+01  0.29099514280E+00  0.23257842731E+00  0.11803809926E+01  0.00000000000E+00 0.  1.
         11    1    3    3    0    0 -0.68720288619E+01  0.78248873722E+01 -0.25369085402E+01  0.10718654219E+02  0.51100000000E-03 0. -1.
        -11    1    3    3    0    0  0.70348631875E+01  0.34991096199E+02 -0.30998275585E+01  0.35825619945E+02  0.51100000000E-03 0.  1.
         12    1    3    3    0    0 -0.12828916409E+01 -0.43106978714E+02  0.54041576714E+01  0.43463344843E+02  0.00000000000E+00 0. -1.
</event>
<event>
 7    1  0.2641103E-015  0.9000783E+02  0.7816164E-02  0.1186339E+00
        -11   -1    0    0    0    0  0.00000000000E+00  0.00000000000E+00  0.45593999997E+02  0.45594000000E+02  0.51100000000E-03 0.  1.
         11   -1    0    0    0    0 -0.00000000000E+00 -0.00000000000E+00 -0.45593999997E+02  0.45594000000E+02  0.51100000000E-03 0. -1.
    9900012    2    1    2    0    0  0.57935669802E+00 -0.69086006648E+00 -0.76148525236E+00  0.90007829841E+02  0.90000092395E+02 0.  0.
        -12    1    1    2    0    0 -0.57935669802E+00  0.69086006648E+00  0.76148525236E+00  0.11801701592E+01  0.00000000000E+00 0.  1.
         11    1    3    3    0    0  0.20128993110E-01  0.89626890770E+01  0.23626610784E+01  0.92688925067E+01  0.51100000000E-03 0. -1.
        -11    1    3    3    0    0  0.27877283805E+02  0.16600703973E+02 -0.21201440146E+02  0.38758578267E+02  0.51100000000E-03 0.  1.
         12    1    3    3    0    0 -0.27318056100E+02 -0.26254253116E+02  0.18077293815E+02  0.41980359068E+02  0.00000000000E+00 0. -1.
</event>
<event>
 7    1  0.2641103E-015  0.9000777E+02  0.7816164E-02  0.1186339E+00
        -11   -1    0    0    0    0  0.00000000000E+00  0.00000000000E+00  0.45593999997E+02  0.45594000000E+02  0.51100000000E-03 0.  1.
         11   -1    0    0    0    0 -0.00000000000E+00 -0.00000000000E+00 -0.45593999997E+02  0.45594000000E+02  0.51100000000E-03 0. -1.
    9900012    2    1    2    0    0 -0.56919007452E+00 -0.99314199427E+00 -0.28748245732E+00  0.90007765055E+02  0.90000026754E+02 0.  0.
        -12    1    1    2    0    0  0.56919007452E+00  0.99314199427E+00  0.28748245732E+00  0.11802349448E+01  0.00000000000E+00 0.  1.
         11    1    3    3    0    0 -0.16520445825E+01  0.53403542859E+01  0.89544406883E+01  0.10556071405E+02  0.51100000000E-03 0. -1.
        -11    1    3    3    0    0 -0.82323230113E+01  0.16321540537E+01  0.33733927039E+02  0.34762233858E+02  0.51100000000E-03 0.  1.
         12    1    3    3    0    0  0.93151775194E+01 -0.79656503339E+01 -0.42975850185E+02  0.44689459793E+02  0.00000000000E+00 0. -1.
</event>
<event>
 7    1  0.2641103E-015  0.9000782E+02  0.7816164E-02  0.1186339E+00
        -11   -1    0    0    0    0  0.00000000000E+00  0.00000000000E+00  0.45593999997E+02  0.45594000000E+02  0.51100000000E-03 0.  1.
         11   -1    0    0    0    0 -0.00000000000E+00 -0.00000000000E+00 -0.45593999997E+02  0.45594000000E+02  0.51100000000E-03 0. -1.
    9900012    2    1    2    0    0 -0.92041875347E+00  0.63499249101E+00 -0.37739979013E+00  0.90007823426E+02  0.90000085895E+02 0.  0.
        -12    1    1    2    0    0  0.92041875347E+00 -0.63499249101E+00  0.37739979013E+00  0.11801765745E+01  0.00000000000E+00 0.  1.
         11    1    3    3    0    0 -0.17703526401E+02  0.37037433918E+02  0.62532496066E+01  0.41524564888E+02  0.51100000000E-03 0. -1.
        -11    1    3    3    0    0  0.12536391377E+01  0.24109320878E+01  0.44687169256E+01  0.52300703477E+01  0.51100000000E-03 0.  1.
        -12    1    3    3    0    0  0.15529468510E+02 -0.38813373515E+02 -0.11099366322E+02  0.43253188189E+02  0.00000000000E+00 0.  1.
</event>
<event>
 7    1  0.2641103E-015  0.9000772E+02  0.7816164E-02  0.1186339E+00
        -11   -1    0    0    0    0  0.00000000000E+00  0.00000000000E+00  0.45593999997E+02  0.45594000000E+02  0.51100000000E-03 0. -1.
         11   -1    0    0    0    0 -0.00000000000E+00 -0.00000000000E+00 -0.45593999997E+02  0.45594000000E+02  0.51100000000E-03 0.  1.
    9900012    2    1    2    0    0  0.28645459631E+00 -0.56569089779E+00  0.99548994630E+00  0.90007719245E+02  0.89999980339E+02 0.  0.
        -12    1    1    2    0    0 -0.28645459631E+00  0.56569089779E+00 -0.99548994630E+00  0.11802807551E+01  0.00000000000E+00 0.  1.
         11    1    3    3    0    0 -0.37889416033E+02 -0.14731804782E+02  0.50185908017E+01  0.40961203270E+02  0.51100000000E-03 0. -1.
        -11    1    3    3    0    0 -0.17399383880E+01  0.76774165396E+01  0.20961090905E+01  0.81463969887E+01  0.51100000000E-03 0.  1.
        -12    1    3    3    0    0  0.39915809017E+02  0.64886973445E+01 -0.61192099459E+01  0.40900118986E+02  0.00000000000E+00 0.  1.
</event>
<event>
 7    1  0.2641103E-015  0.9000768E+02  0.7816164E-02  0.1186339E+00
        -11   -1    0    0    0    0  0.00000000000E+00  0.00000000000E+00  0.45593999997E+02  0.45594000000E+02  0.51100000000E-03 0.  1.
         11   -1    0    0    0    0 -0.00000000000E+00 -0.00000000000E+00 -0.45593999997E+02  0.45594000000E+02  0.51100000000E-03 0. -1.
    9900012    2    1    2    0    0  0.78977833150E+00  0.80981436377E+00  0.33705617701E+00  0.90007679712E+02  0.89999940284E+02 0.  0.
        -12    1    1    2    0    0 -0.78977833150E+00 -0.80981436377E+00 -0.33705617701E+00  0.11803202884E+01  0.00000000000E+00 0.  1.
         11    1    3    3    0    0 -0.20156672055E+02  0.98098231010E+01 -0.26903759798E+02  0.35019085498E+02  0.51100000000E-03 0. -1.
        -11    1    3    3    0    0 -0.34347199219E+01 -0.78671745409E+00 -0.95018268352E+01  0.10134147165E+02  0.51100000000E-03 0.  1.
        -12    1    3    3    0    0  0.24381170309E+02 -0.82132912831E+01  0.36742642810E+02  0.44854447048E+02  0.00000000000E+00 0.  1.
</event>
<event>
 7    1  0.2641103E-015  0.9000782E+02  0.7816164E-02  0.1186339E+00
        -11   -1    0    0    0    0  0.00000000000E+00  0.00000000000E+00  0.45593999997E+02  0.45594000000E+02  0.51100000000E-03 0.  1.
         11   -1    0    0    0    0 -0.00000000000E+00 -0.00000000000E+00 -0.45593999997E+02  0.45594000000E+02  0.51100000000E-03 0. -1.
    9900012    2    1    2    0    0 -0.33264665183E+00 -0.10732561819E+01 -0.36096751641E+00  0.90007817737E+02  0.90000080131E+02 0.  0.
        -12    1    1    2    0    0  0.33264665183E+00  0.10732561819E+01  0.36096751641E+00  0.11801822634E+01  0.00000000000E+00 0.  1.
         11    1    3    3    0    0 -0.17122622353E+02 -0.27227839385E+02  0.20584091014E+02  0.38186964228E+02  0.51100000000E-03 0. -1.
        -11    1    3    3    0    0 -0.11426837350E+01 -0.83201988997E+01 -0.52936651579E+01  0.99274531937E+01  0.51100000000E-03 0.  1.
        -12    1    3    3    0    0  0.17932659436E+02  0.34474782102E+02 -0.15651393373E+02  0.41893400315E+02  0.00000000000E+00 0.  1.
</event>
<event>
 7    1  0.2641103E-015  0.9000783E+02  0.7816164E-02  0.1186339E+00
        -11   -1    0    0    0    0  0.00000000000E+00  0.00000000000E+00  0.45593999997E+02  0.45594000000E+02  0.51100000000E-03 0. -1.
         11   -1    0    0    0    0 -0.00000000000E+00 -0.00000000000E+00 -0.45593999997E+02  0.45594000000E+02  0.51100000000E-03 0.  1.
    9900012    2    1    2    0    0  0.51133507616E+00  0.20924331165E+00  0.10428604044E+01  0.90007828764E+02  0.90000091303E+02 0.  0.
        -12    1    1    2    0    0 -0.51133507616E+00 -0.20924331165E+00 -0.10428604044E+01  0.11801712362E+01  0.00000000000E+00 0.  1.
         11    1    3    3    0    0  0.64677465488E+01 -0.91834378631E+01  0.36098214018E+02  0.37805400831E+02  0.51100000000E-03 0. -1.
        -11    1    3    3    0    0 -0.49636878592E+01 -0.78524447154E+01  0.35214975202E+01  0.99347888865E+01  0.51100000000E-03 0.  1.
        -12    1    3    3    0    0 -0.99272361343E+00  0.17245125890E+02 -0.38576851134E+02  0.42267639046E+02  0.00000000000E+00 0.  1.
</event>
<event>
 7    1  0.2641103E-015  0.9000788E+02  0.7816164E-02  0.1186339E+00
        -11   -1    0    0    0    0  0.00000000000E+00  0.00000000000E+00  0.45593999997E+02  0.45594000000E+02  0.51100000000E-03 0. -1.
         11   -1    0    0    0    0 -0.00000000000E+00 -0.00000000000E+00 -0.45593999997E+02  0.45594000000E+02  0.51100000000E-03 0.  1.
    9900012    2    1    2    0    0 -0.10916048114E+01 -0.14305275076E+00  0.42499431301E+00  0.90007879108E+02  0.90000142312E+02 0.  0.
        -12    1    1    2    0    0  0.10916048114E+01  0.14305275076E+00 -0.42499431301E+00  0.11801208921E+01  0.00000000000E+00 0.  1.
         11    1    3    3    0    0  0.36613427653E+02 -0.15753984799E+02  0.14191851594E+02  0.42310043411E+02  0.51100000000E-03 0. -1.
        -11    1    3    3    0    0 -0.68751442823E+01  0.85343670637E+01  0.36964519622E+01  0.11565759268E+02  0.51100000000E-03 0.  1.
        -12    1    3    3    0    0 -0.30829888182E+02  0.70765649850E+01 -0.17463309244E+02  0.36132076428E+02  0.00000000000E+00 0.  1.
</event>
<event>
 7    1  0.2641103E-015  0.9000781E+02  0.7816164E-02  0.1186339E+00
        -11   -1    0    0    0    0  0.00000000000E+00  0.00000000000E+00  0.45593999997E+02  0.45594000000E+02  0.51100000000E-03 0. -1.
         11   -1    0    0    0    0 -0.00000000000E+00 -0.00000000000E+00 -0.45593999997E+02  0.45594000000E+02  0.51100000000E-03 0.  1.
    9900012    2    1    2    0    0  0.10070921726E+01 -0.46122793587E+00  0.40729200637E+00  0.90007808223E+02  0.90000070491E+02 0.  0.
        -12    1    1    2    0    0 -0.10070921726E+01  0.46122793587E+00 -0.40729200637E+00  0.11801917774E+01  0.00000000000E+00 0.  1.
         11    1    3    3    0    0  0.36363086314E+02  0.12345443330E+01 -0.67746142004E+01  0.37009371027E+02  0.51100000000E-03 0. -1.
        -11    1    3    3    0    0  0.77777439107E+01 -0.49945259156E+01  0.15843699666E+01  0.93781031085E+01  0.51100000000E-03 0.  1.
        -12    1    3    3    0    0 -0.43133738052E+02  0.32987536468E+01  0.55975362401E+01  0.43620334087E+02  0.00000000000E+00 0.  1.
</event>
<event>
 7    1  0.2641103E-015  0.9000737E+02  0.7816164E-02  0.1186340E+00
        -11   -1    0    0    0    0  0.00000000000E+00  0.00000000000E+00  0.45593999997E+02  0.45594000000E+02  0.51100000000E-03 0.  1.
         11   -1    0    0    0    0 -0.00000000000E+00 -0.00000000000E+00 -0.45593999997E+02  0.45594000000E+02  0.51100000000E-03 0. -1.
    9900012    2    1    2    0    0  0.59606714083E+00 -0.34487298875E+00 -0.95898006170E+00  0.90007374668E+02  0.89999631213E+02 0.  0.
        -12    1    1    2    0    0 -0.59606714083E+00  0.34487298875E+00  0.95898006170E+00  0.11806253315E+01  0.00000000000E+00 0.  1.
         11    1    3    3    0    0 -0.16478184338E+02  0.35182730213E+02 -0.20739211589E+01  0.38905734970E+02  0.51100000000E-03 0. -1.
        -11    1    3    3    0    0 -0.93017331998E+01 -0.44712028953E+01 -0.39629825342E+00  0.10328162877E+02  0.51100000000E-03 0.  1.
        -12    1    3    3    0    0  0.26375984678E+02 -0.31056400306E+02  0.15112393506E+01  0.40773476822E+02  0.00000000000E+00 0.  1.
</event>
<event>
 7    1  0.2641103E-015  0.9000773E+02  0.7816164E-02  0.1186339E+00
        -11   -1    0    0    0    0  0.00000000000E+00  0.00000000000E+00  0.45593999997E+02  0.45594000000E+02  0.51100000000E-03 0.  1.
         11   -1    0    0    0    0 -0.00000000000E+00 -0.00000000000E+00 -0.45593999997E+02  0.45594000000E+02  0.51100000000E-03 0. -1.
    9900012    2    1    2    0    0  0.94605819698E+00  0.11683566578E-01 -0.70560190660E+00  0.90007730256E+02  0.89999991495E+02 0.  0.
        -12    1    1    2    0    0 -0.94605819698E+00 -0.11683566578E-01  0.70560190660E+00  0.11802697439E+01  0.00000000000E+00 0.  1.
         11    1    3    3    0    0 -0.12590668211E+02  0.26268618420E+00  0.31571677465E+01  0.12983128994E+02  0.51100000000E-03 0. -1.
        -11    1    3    3    0    0  0.25741738789E+02  0.26017681294E+01  0.30765033442E+02  0.40198179017E+02  0.51100000000E-03 0.  1.
         12    1    3    3    0    0 -0.12205012381E+02 -0.28527707470E+01 -0.34627803095E+02  0.36826422245E+02  0.00000000000E+00 0. -1.
</event>
<event>
 7    1  0.2641103E-015  0.9000776E+02  0.7816164E-02  0.1186339E+00
        -11   -1    0    0    0    0  0.00000000000E+00  0.00000000000E+00  0.45593999997E+02  0.45594000000E+02  0.51100000000E-03 0.  1.
         11   -1    0    0    0    0 -0.00000000000E+00 -0.00000000000E+00 -0.45593999997E+02  0.45594000000E+02  0.51100000000E-03 0. -1.
    9900012    2    1    2    0    0 -0.69148169436E+00 -0.32779891794E+00 -0.89853152429E+00  0.90007763598E+02  0.90000025278E+02 0.  0.
        -12    1    1    2    0    0  0.69148169436E+00  0.32779891794E+00  0.89853152429E+00  0.11802364019E+01  0.00000000000E+00 0.  1.
         11    1    3    3    0    0 -0.22039556967E+02 -0.12815431984E+02 -0.17282955899E+02  0.30800615791E+02  0.51100000000E-03 0. -1.
        -11    1    3    3    0    0  0.89478353646E+01 -0.14569654538E+02 -0.96768722626E+01  0.19646385116E+02  0.51100000000E-03 0.  1.
        -12    1    3    3    0    0  0.12400239908E+02  0.27057287604E+02  0.26061296637E+02  0.39560762691E+02  0.00000000000E+00 0.  1.
</event>
<event>
 7    1  0.2641103E-015  0.9000769E+02  0.7816164E-02  0.1186339E+00
        -11   -1    0    0    0    0  0.00000000000E+00  0.00000000000E+00  0.45593999997E+02  0.45594000000E+02  0.51100000000E-03 0.  1.
         11   -1    0    0    0    0 -0.00000000000E+00 -0.00000000000E+00 -0.45593999997E+02  0.45594000000E+02  0.51100000000E-03 0. -1.
    9900012    2    1    2    0    0  0.28903350847E+00  0.91927907610E+00  0.68156205939E+00  0.90007685961E+02  0.89999946616E+02 0.  0.
        -12    1    1    2    0    0 -0.28903350847E+00 -0.91927907610E+00 -0.68156205939E+00  0.11803140385E+01  0.00000000000E+00 0.  1.
         11    1    3    3    0    0  0.17336285261E+02  0.68569429074E+01  0.41614747045E+00  0.18647724571E+02  0.51100000000E-03 0. -1.
        -11    1    3    3    0    0  0.20070693726E+02  0.17544595474E+02  0.52035654859E+01  0.27161050624E+02  0.51100000000E-03 0.  1.
         12    1    3    3    0    0 -0.37117945479E+02 -0.23482259305E+02 -0.49381508969E+01  0.44198910766E+02  0.00000000000E+00 0. -1.
</event>
<event>
 7    1  0.2641103E-015  0.9000785E+02  0.7816164E-02  0.1186339E+00
        -11   -1    0    0    0    0  0.00000000000E+00  0.00000000000E+00  0.45593999997E+02  0.45594000000E+02  0.51100000000E-03 0. -1.
         11   -1    0    0    0    0 -0.00000000000E+00 -0.00000000000E+00 -0.45593999997E+02  0.45594000000E+02  0.51100000000E-03 0.  1.
    9900012    2    1    2    0    0  0.70448615027E+00 -0.79176089324E-01  0.94349603805E+00  0.90007849856E+02  0.90000112674E+02 0.  0.
        -12    1    1    2    0    0 -0.70448615027E+00  0.79176089324E-01 -0.94349603805E+00  0.11801501442E+01  0.00000000000E+00 0.  1.
         11    1    3    3    0    0 -0.62494102035E+01  0.14384581106E+01  0.13415538891E+02  0.14869464470E+02  0.51100000000E-03 0. -1.
        -11    1    3    3    0    0 -0.33518623817E+02 -0.20895004904E+01 -0.44934636882E+01  0.33882965795E+02  0.51100000000E-03 0.  1.
         12    1    3    3    0    0  0.40472520171E+02  0.57186629051E+00 -0.79785791650E+01  0.41255419590E+02  0.00000000000E+00 0. -1.
</event>
<event>
 7    1  0.2641103E-015  0.9000743E+02  0.7816164E-02  0.1186340E+00
        -11   -1    0    0    0    0  0.00000000000E+00  0.00000000000E+00  0.45593999997E+02  0.45594000000E+02  0.51100000000E-03 0.  1.
         11   -1    0    0    0    0 -0.00000000000E+00 -0.00000000000E+00 -0.45593999997E+02  0.45594000000E+02  0.51100000000E-03 0. -1.
    9900012    2    1    2    0    0 -0.11686672825E+01  0.15059801415E+00  0.72669830028E-01  0.90007430695E+02  0.89999687980E+02 0.  0.
        -12    1    1    2    0    0  0.11686672825E+01 -0.15059801415E+00 -0.72669830028E-01  0.11805693048E+01  0.00000000000E+00 0.  1.
         11    1    3    3    0    0  0.35725323555E+02 -0.17007242667E+02  0.26615626735E+01  0.39656386148E+02  0.51100000000E-03 0. -1.
        -11    1    3    3    0    0 -0.16168978544E+01 -0.46668278416E+01  0.62212537143E+01  0.79434022191E+01  0.51100000000E-03 0.  1.
        -12    1    3    3    0    0 -0.35277092983E+02  0.21824668523E+02 -0.88101465577E+01  0.42407642328E+02  0.00000000000E+00 0.  1.
</event>
<event>
 7    1  0.2790662E-015  0.9000772E+02  0.7816164E-02  0.1186339E+00
        -11   -1    0    0    0    0  0.00000000000E+00  0.00000000000E+00  0.45593999997E+02  0.45594000000E+02  0.51100000000E-03 0.  1.
         11   -1    0    0    0    0 -0.00000000000E+00 -0.00000000000E+00 -0.45593999997E+02  0.45594000000E+02  0.51100000000E-03 0. -1.
    9900012    2    1    2    0    0 -0.56236329383E+00 -0.41405647417E+00 -0.95150100752E+00  0.90007724860E+02  0.89999986028E+02 0.  0.
        -12    1    1    2    0    0  0.56236329383E+00  0.41405647417E+00  0.95150100752E+00  0.11802751397E+01  0.00000000000E+00 0.  1.
         11    1    3    3    0    0 -0.98923094735E+01 -0.24202055728E+01 -0.11031191497E+01  0.10243634797E+02  0.51100000000E-03 0. -1.
        -11    1    3    3    0    0  0.20110493932E+02 -0.21297127840E+02  0.28948498803E+02  0.41182705152E+02  0.51100000000E-03 0.  1.
         12    1    3    3    0    0 -0.10780547753E+02  0.23303276939E+02 -0.28796880660E+02  0.38581384912E+02  0.00000000000E+00 0. -1.
</event>
<event>
 7    1  0.2641103E-015  0.9000774E+02  0.7816164E-02  0.1186339E+00
        -11   -1    0    0    0    0  0.00000000000E+00  0.00000000000E+00  0.45593999997E+02  0.45594000000E+02  0.51100000000E-03 0. -1.
         11   -1    0    0    0    0 -0.00000000000E+00 -0.00000000000E+00 -0.45593999997E+02  0.45594000000E+02  0.51100000000E-03 0.  1.
    9900012    2    1    2    0    0 -0.39399179414E+00 -0.81299237746E+00  0.75948707183E+00  0.90007742930E+02  0.90000004336E+02 0.  0.
        -12    1    1    2    0    0  0.39399179414E+00  0.81299237746E+00 -0.75948707183E+00  0.11802570703E+01  0.00000000000E+00 0.  1.
         11    1    3    3    0    0  0.36770401903E+00  0.29625609289E+00  0.15004298697E+02  0.15011727201E+02  0.51100000000E-03 0. -1.
        -11    1    3    3    0    0 -0.46629871470E+01 -0.35637960543E+02 -0.17723231012E+02  0.40073939145E+02  0.51100000000E-03 0.  1.
         12    1    3    3    0    0  0.39012913338E+01  0.34528712073E+02  0.34784193872E+01  0.34922076584E+02  0.00000000000E+00 0. -1.
</event>
<event>
 7    1  0.2641103E-015  0.9000763E+02  0.7816164E-02  0.1186339E+00
        -11   -1    0    0    0    0  0.00000000000E+00  0.00000000000E+00  0.45593999997E+02  0.45594000000E+02  0.51100000000E-03 0.  1.
         11   -1    0    0    0    0 -0.00000000000E+00 -0.00000000000E+00 -0.45593999997E+02  0.45594000000E+02  0.51100000000E-03 0. -1.
    9900012    2    1    2    0    0  0.43499265527E+00  0.53857587360E+00 -0.95603158011E+00  0.90007627616E+02  0.89999887501E+02 0.  0.
        -12    1    1    2    0    0 -0.43499265527E+00 -0.53857587360E+00  0.95603158011E+00  0.11803723836E+01  0.00000000000E+00 0.  1.
         11    1    3    3    0    0 -0.14201586591E+02  0.36471335772E+02 -0.11661477760E+02  0.40839116770E+02  0.51100000000E-03 0. -1.
        -11    1    3    3    0    0 -0.72624574920E+01 -0.23540068741E+01  0.36562797000E+01  0.84648106117E+01  0.51100000000E-03 0.  1.
        -12    1    3    3    0    0  0.21899036738E+02 -0.33578753025E+02  0.70491664804E+01  0.40703700235E+02  0.00000000000E+00 0.  1.
</event>
<event>
 7    1  0.2641103E-015  0.9000769E+02  0.7816164E-02  0.1186339E+00
        -11   -1    0    0    0    0  0.00000000000E+00  0.00000000000E+00  0.45593999997E+02  0.45594000000E+02  0.51100000000E-03 0.  1.
         11   -1    0    0    0    0 -0.00000000000E+00 -0.00000000000E+00 -0.45593999997E+02  0.45594000000E+02  0.51100000000E-03 0. -1.
    9900012    2    1    2    0    0 -0.36440855359E+00 -0.11219066672E+01  0.40729755347E-01  0.90007691957E+02  0.89999952691E+02 0.  0.
        -12    1    1    2    0    0  0.36440855359E+00  0.11219066672E+01 -0.40729755347E-01  0.11803080432E+01  0.00000000000E+00 0.  1.
         11    1    3    3    0    0  0.43568443148E+00  0.95713887029E+01 -0.19689247916E+01  0.97815115254E+01  0.51100000000E-03 0. -1.
        -11    1    3    3    0    0 -0.30222458966E+02 -0.43596126950E+01  0.27265664777E+02  0.40936777167E+02  0.51100000000E-03 0.  1.
         12    1    3    3    0    0  0.29422365981E+02 -0.63336826751E+01 -0.25256010230E+02  0.39289403265E+02  0.00000000000E+00 0. -1.
</event>
<event>
 7    1  0.2641103E-015  0.9000777E+02  0.7816164E-02  0.1186339E+00
        -11   -1    0    0    0    0  0.00000000000E+00  0.00000000000E+00  0.45593999997E+02  0.45594000000E+02  0.51100000000E-03 0. -1.
         11   -1    0    0    0    0 -0.00000000000E+00 -0.00000000000E+00 -0.45593999997E+02  0.45594000000E+02  0.51100000000E-03 0.  1.
    9900012    2    1    2    0    0 -0.10492843276E+00 -0.11253406948E+01  0.33991762006E+00  0.90007768818E+02  0.90000030566E+02 0.  0.
        -12    1    1    2    0    0  0.10492843276E+00  0.11253406948E+01 -0.33991762006E+00  0.11802311824E+01  0.00000000000E+00 0.  1.
         11    1    3    3    0    0  0.33331607345E+02 -0.44206435665E+01  0.28229976435E+02  0.43902957845E+02  0.51100000000E-03 0. -1.
        -11    1    3    3    0    0 -0.39995036771E+01  0.58391784161E+01 -0.41687940752E+01  0.82140658958E+01  0.51100000000E-03 0.  1.
        -12    1    3    3    0    0 -0.29437032100E+02 -0.25438755445E+01 -0.23721264740E+02  0.37890745077E+02  0.00000000000E+00 0.  1.
</event>
<event>
 7    1  0.2641103E-015  0.9000772E+02  0.7816164E-02  0.1186339E+00
        -11   -1    0    0    0    0  0.00000000000E+00  0.00000000000E+00  0.45593999997E+02  0.45594000000E+02  0.51100000000E-03 0. -1.
         11   -1    0    0    0    0 -0.00000000000E+00 -0.00000000000E+00 -0.45593999997E+02  0.45594000000E+02  0.51100000000E-03 0.  1.
    9900012    2    1    2    0    0 -0.30870035144E-01  0.10888275740E+01 -0.45448479275E+00  0.90007722545E+02  0.89999983682E+02 0.  0.
        -12    1    1    2    0    0  0.30870035144E-01 -0.10888275740E+01  0.45448479275E+00  0.11802774554E+01  0.00000000000E+00 0.  1.
         11    1    3    3    0    0 -0.82616595599E+01  0.31923629359E+01  0.64480591494E+01  0.10955531336E+02  0.51100000000E-03 0. -1.
        -11    1    3    3    0    0 -0.29597644776E+02 -0.15531952290E+02  0.10875668861E+02  0.35150281531E+02  0.51100000000E-03 0.  1.
         12    1    3    3    0    0  0.37828434301E+02  0.13428416928E+02 -0.17778212804E+02  0.43901909678E+02  0.00000000000E+00 0. -1.
</event>
<event>
 7    1  0.2641103E-015  0.9000776E+02  0.7816164E-02  0.1186339E+00
        -11   -1    0    0    0    0  0.00000000000E+00  0.00000000000E+00  0.45593999997E+02  0.45594000000E+02  0.51100000000E-03 0.  1.
         11   -1    0    0    0    0 -0.00000000000E+00 -0.00000000000E+00 -0.45593999997E+02  0.45594000000E+02  0.51100000000E-03 0. -1.
    9900012    2    1    2    0    0 -0.60630410013E+00 -0.17805205269E+00 -0.99682768679E+00  0.90007757384E+02  0.90000018982E+02 0.  0.
        -12    1    1    2    0    0  0.60630410013E+00  0.17805205269E+00  0.99682768679E+00  0.11802426159E+01  0.00000000000E+00 0.  1.
         11    1    3    3    0    0  0.14067467991E+02  0.38819584531E+02 -0.51465462720E+01  0.41609382808E+02  0.51100000000E-03 0. -1.
        -11    1    3    3    0    0 -0.49325902956E+00 -0.45628202965E+01  0.97149983205E+01  0.10744478869E+02  0.51100000000E-03 0.  1.
        -12    1    3    3    0    0 -0.14180513062E+02 -0.34434816287E+02 -0.55652797353E+01  0.37653895708E+02  0.00000000000E+00 0.  1.
</event>
<event>
 7    1  0.2641103E-015  0.9000770E+02  0.7816164E-02  0.1186339E+00
        -11   -1    0    0    0    0  0.00000000000E+00  0.00000000000E+00  0.45593999997E+02  0.45594000000E+02  0.51100000000E-03 0. -1.
         11   -1    0    0    0    0 -0.00000000000E+00 -0.00000000000E+00 -0.45593999997E+02  0.45594000000E+02  0.51100000000E-03 0.  1.
    9900012    2    1    2    0    0 -0.64400191022E+00 -0.58648883709E-01  0.98738518463E+00  0.90007700184E+02  0.89999961027E+02 0.  0.
        -12    1    1    2    0    0  0.64400191022E+00  0.58648883709E-01 -0.98738518463E+00  0.11802998156E+01  0.00000000000E+00 0.  1.
         11    1    3    3    0    0 -0.14251813830E+02 -0.56124115693E+01 -0.53244451378E+01  0.16216136327E+02  0.51100000000E-03 0. -1.
        -11    1    3    3    0    0 -0.25043509575E+02 -0.63669869499E+01 -0.13049832339E+02  0.28948471790E+02  0.51100000000E-03 0.  1.
         12    1    3    3    0    0  0.38651321495E+02  0.11920749635E+02  0.19361662662E+02  0.44843092068E+02  0.00000000000E+00 0. -1.
</event>
<event>
 7    1  0.2641103E-015  0.9000753E+02  0.7816164E-02  0.1186339E+00
        -11   -1    0    0    0    0  0.00000000000E+00  0.00000000000E+00  0.45593999997E+02  0.45594000000E+02  0.51100000000E-03 0. -1.
         11   -1    0    0    0    0 -0.00000000000E+00 -0.00000000000E+00 -0.45593999997E+02  0.45594000000E+02  0.51100000000E-03 0.  1.
    9900012    2    1    2    0    0  0.96114473888E+00 -0.15639705991E+00  0.66726720768E+00  0.90007531967E+02  0.89999790589E+02 0.  0.
        -12    1    1    2    0    0 -0.96114473888E+00  0.15639705991E+00 -0.66726720768E+00  0.11804680326E+01  0.00000000000E+00 0.  1.
         11    1    3    3    0    0 -0.11281691420E+02 -0.23546825217E+01 -0.86130291039E+01  0.14387680900E+02  0.51100000000E-03 0. -1.
        -11    1    3    3    0    0  0.64331620331E+01 -0.27335886528E+02 -0.19329698147E+02  0.34092132475E+02  0.51100000000E-03 0.  1.
         12    1    3    3    0    0  0.58096741258E+01  0.29534171990E+02  0.28609994458E+02  0.41527718592E+02  0.00000000000E+00 0. -1.
</event>
<event>
 7    1  0.2641103E-015  0.9000772E+02  0.7816164E-02  0.1186339E+00
        -11   -1    0    0    0    0  0.00000000000E+00  0.00000000000E+00  0.45593999997E+02  0.45594000000E+02  0.51100000000E-03 0. -1.
         11   -1    0    0    0    0 -0.00000000000E+00 -0.00000000000E+00 -0.45593999997E+02  0.45594000000E+02  0.51100000000E-03 0.  1.
    9900012    2    1    2    0    0 -0.44604900843E-01 -0.83127790727E+00 -0.83669009764E+00  0.90007719154E+02  0.89999980247E+02 0.  0.
        -12    1    1    2    0    0  0.44604900843E-01  0.83127790727E+00  0.83669009764E+00  0.11802808461E+01  0.00000000000E+00 0.  1.
         11    1    3    3    0    0  0.79963049411E+01  0.39881711125E+01  0.12634063587E+01  0.90245552479E+01  0.51100000000E-03 0. -1.
        -11    1    3    3    0    0  0.13654156459E+02 -0.37921628397E+02  0.55106706455E+01  0.40679889136E+02  0.51100000000E-03 0.  1.
         12    1    3    3    0    0 -0.21695066301E+02  0.33102179377E+02 -0.76107671018E+01  0.40303274770E+02  0.00000000000E+00 0. -1.
</event>
<event>
 7    1  0.2641103E-015  0.9000775E+02  0.7816164E-02  0.1186339E+00
        -11   -1    0    0    0    0  0.00000000000E+00  0.00000000000E+00  0.45593999997E+02  0.45594000000E+02  0.51100000000E-03 0.  1.
         11   -1    0    0    0    0 -0.00000000000E+00 -0.00000000000E+00 -0.45593999997E+02  0.45594000000E+02  0.51100000000E-03 0. -1.
    9900012    2    1    2    0    0 -0.49283143325E+00 -0.96494637799E+00 -0.46796275006E+00  0.90007748557E+02  0.90000010038E+02 0.  0.
        -12    1    1    2    0    0  0.49283143325E+00  0.96494637799E+00  0.46796275006E+00  0.11802514433E+01  0.00000000000E+00 0.  1.
         11    1    3    3    0    0  0.37993420133E+02 -0.66116072749E+01 -0.18712119023E+01  0.38609775425E+02  0.51100000000E-03 0. -1.
        -11    1    3    3    0    0  0.21100842837E+01 -0.60861618310E+01 -0.56345215530E+01  0.85581338450E+01  0.51100000000E-03 0.  1.
        -12    1    3    3    0    0 -0.40596335850E+02  0.11732822728E+02  0.70377707052E+01  0.42839839286E+02  0.00000000000E+00 0.  1.
</event>
<event>
 7    1  0.2641103E-015  0.9000778E+02  0.7816164E-02  0.1186339E+00
        -11   -1    0    0    0    0  0.00000000000E+00  0.00000000000E+00  0.45593999997E+02  0.45594000000E+02  0.51100000000E-03 0. -1.
         11   -1    0    0    0    0 -0.00000000000E+00 -0.00000000000E+00 -0.45593999997E+02  0.45594000000E+02  0.51100000000E-03 0.  1.
    9900012    2    1    2    0    0  0.92140488884E+00 -0.52056393704E+00  0.52245259594E+00  0.90007775235E+02  0.90000037068E+02 0.  0.
        -12    1    1    2    0    0 -0.92140488884E+00  0.52056393704E+00 -0.52245259594E+00  0.11802247653E+01  0.00000000000E+00 0.  1.
         11    1    3    3    0    0  0.32092266581E+02  0.11447866008E+02  0.10387236981E+02  0.35621087895E+02  0.51100000000E-03 0. -1.
        -11    1    3    3    0    0  0.63847209701E+01 -0.17454858340E+01  0.89693138333E+01  0.11147195771E+02  0.51100000000E-03 0.  1.
        -12    1    3    3    0    0 -0.37555582662E+02 -0.10222944111E+02 -0.18834098218E+02  0.43239491569E+02  0.00000000000E+00 0.  1.
</event>
<event>
 7    1  0.2641103E-015  0.9000779E+02  0.7816164E-02  0.1186339E+00
        -11   -1    0    0    0    0  0.00000000000E+00  0.00000000000E+00  0.45593999997E+02  0.45594000000E+02  0.51100000000E-03 0.  1.
         11   -1    0    0    0    0 -0.00000000000E+00 -0.00000000000E+00 -0.45593999997E+02  0.45594000000E+02  0.51100000000E-03 0. -1.
    9900012    2    1    2    0    0 -0.10646650455E+01  0.39798198569E+00 -0.31778403825E+00  0.90007793232E+02  0.90000055303E+02 0.  0.
        -12    1    1    2    0    0  0.10646650455E+01 -0.39798198569E+00  0.31778403825E+00  0.11802067679E+01  0.00000000000E+00 0.  1.
         11    1    3    3    0    0  0.11918885477E+02 -0.32989351458E+01 -0.12808605635E+02  0.17804583193E+02  0.51100000000E-03 0. -1.
        -11    1    3    3    0    0  0.16703436081E+02  0.23376820085E+02  0.20994648579E+02  0.35584487680E+02  0.51100000000E-03 0.  1.
         12    1    3    3    0    0 -0.29686986603E+02 -0.19679902954E+02 -0.85038269827E+01  0.36618722359E+02  0.00000000000E+00 0. -1.
</event>
<event>
 7    1  0.2641103E-015  0.9000803E+02  0.7816164E-02  0.1186338E+00
        -11   -1    0    0    0    0  0.00000000000E+00  0.00000000000E+00  0.45593999997E+02  0.45594000000E+02  0.51100000000E-03 0.  1.
         11   -1    0    0    0    0 -0.00000000000E+00 -0.00000000000E+00 -0.45593999997E+02  0.45594000000E+02  0.51100000000E-03 0. -1.
    9900012    2    1    2    0    0  0.76746958439E+00 -0.40717260778E+00 -0.79844934756E+00  0.90008033706E+02  0.90000298950E+02 0.  0.
        -12    1    1    2    0    0 -0.76746958439E+00  0.40717260778E+00  0.79844934756E+00  0.11799662945E+01  0.00000000000E+00 0.  1.
         11    1    3    3    0    0 -0.31728904772E+02  0.23179469240E+02  0.54451586423E+01  0.39669395573E+02  0.51100000000E-03 0. -1.
        -11    1    3    3    0    0  0.14823803882E+02  0.17936288281E+01  0.72466692984E+01  0.16597484209E+02  0.51100000000E-03 0.  1.
        -12    1    3    3    0    0  0.17672570474E+02 -0.25380270676E+02 -0.13490277288E+02  0.33741153923E+02  0.00000000000E+00 0.  1.
</event>
<event>
 8    1  0.2641103E-015  0.9000811E+02  0.7816164E-02  0.1186338E+00
        -11   -1    0    0    0    0  0.00000000000E+00  0.00000000000E+00  0.45593999997E+02  0.45594000000E+02  0.51100000000E-03 0.  1.
         11   -1    0    0    0    0 -0.00000000000E+00 -0.00000000000E+00 -0.45593999997E+02  0.45594000000E+02  0.51100000000E-03 0. -1.
    9900012    2    1    2    0    0  0.32252744709E+00  0.14756627408E+00 -0.11253175910E+01  0.90008110412E+02  0.90000376669E+02 0.  0.
         23    2    3    3    0    0 -0.17650495637E+02  0.76478212930E+01 -0.21764583557E+02  0.61630959679E+02  0.54356682448E+02 0.  0.
        -12    1    1    2    0    0 -0.32252744709E+00 -0.14756627408E+00  0.11253175910E+01  0.11798895880E+01  0.00000000000E+00 0.  1.
         11    1    4    4    0    0 -0.20026346685E+02 -0.17387606643E+02 -0.24788063953E+02  0.36301949550E+02  0.51100000000E-03 0. -1.
        -11    1    4    4    0    0  0.23758510484E+01  0.25035427936E+02  0.30234803962E+01  0.25329010129E+02  0.51100000000E-03 0.  1.
        -12    1    3    3    0    0  0.17973023084E+02 -0.75002550189E+01  0.20639265966E+02  0.28377150733E+02  0.00000000000E+00 0.  1.
</event>
<event>
 7    1  0.2641103E-015  0.9000775E+02  0.7816164E-02  0.1186339E+00
        -11   -1    0    0    0    0  0.00000000000E+00  0.00000000000E+00  0.45593999997E+02  0.45594000000E+02  0.51100000000E-03 0.  1.
         11   -1    0    0    0    0 -0.00000000000E+00 -0.00000000000E+00 -0.45593999997E+02  0.45594000000E+02  0.51100000000E-03 0. -1.
    9900012    2    1    2    0    0 -0.10926704418E+01 -0.58922825112E-01 -0.44224347900E+00  0.90007754310E+02  0.90000015867E+02 0.  0.
        -12    1    1    2    0    0  0.10926704418E+01  0.58922825112E-01  0.44224347900E+00  0.11802456899E+01  0.00000000000E+00 0.  1.
         11    1    3    3    0    0 -0.16520869078E+02 -0.35975895447E+02 -0.13513723302E+02  0.41830908262E+02  0.51100000000E-03 0. -1.
        -11    1    3    3    0    0 -0.62701910322E+01  0.52880427552E+01  0.55254295836E+01  0.98898465158E+01  0.51100000000E-03 0.  1.
        -12    1    3    3    0    0  0.21698389668E+02  0.30628929867E+02  0.75460502394E+01  0.38286999532E+02  0.00000000000E+00 0.  1.
</event>
<event>
 7    1  0.2675087E-015  0.9000774E+02  0.7816164E-02  0.1186339E+00
        -11   -1    0    0    0    0  0.00000000000E+00  0.00000000000E+00  0.45593999997E+02  0.45594000000E+02  0.51100000000E-03 0.  1.
         11   -1    0    0    0    0 -0.00000000000E+00 -0.00000000000E+00 -0.45593999997E+02  0.45594000000E+02  0.51100000000E-03 0. -1.
    9900012    2    1    2    0    0  0.68300679725E+00  0.66204029557E+00 -0.69873389856E+00  0.90007735327E+02  0.89999996633E+02 0.  0.
        -12    1    1    2    0    0 -0.68300679725E+00 -0.66204029557E+00  0.69873389856E+00  0.11802646733E+01  0.00000000000E+00 0.  1.
         11    1    3    3    0    0  0.19254919650E+01 -0.85442539529E+01 -0.32005781647E+01  0.93249930708E+01  0.51100000000E-03 0. -1.
        -11    1    3    3    0    0 -0.16490819068E+02  0.57577655290E+01  0.38039655160E+02  0.41858264923E+02  0.51100000000E-03 0.  1.
         12    1    3    3    0    0  0.15248333900E+02  0.34485287195E+01 -0.35537810894E+02  0.38824477333E+02  0.00000000000E+00 0. -1.
</event>
<event>
 7    1  0.2641103E-015  0.9000706E+02  0.7816164E-02  0.1186340E+00
        -11   -1    0    0    0    0  0.00000000000E+00  0.00000000000E+00  0.45593999997E+02  0.45594000000E+02  0.51100000000E-03 0.  1.
         11   -1    0    0    0    0 -0.00000000000E+00 -0.00000000000E+00 -0.45593999997E+02  0.45594000000E+02  0.51100000000E-03 0. -1.
    9900012    2    1    2    0    0  0.44245168644E+00 -0.10936670066E+01 -0.52475501136E-01  0.90007057709E+02  0.89999310068E+02 0.  0.
        -12    1    1    2    0    0 -0.44245168644E+00  0.10936670066E+01  0.52475501137E-01  0.11809422908E+01  0.00000000000E+00 0.  1.
         11    1    3    3    0    0  0.31178325454E+02 -0.20198273883E+01 -0.24178442074E+02  0.39506515186E+02  0.51100000000E-03 0. -1.
        -11    1    3    3    0    0 -0.17277341102E+01 -0.91687581979E+01 -0.27080733430E+01  0.97151867475E+01  0.51100000000E-03 0.  1.
        -12    1    3    3    0    0 -0.29008139658E+02  0.10094918580E+02  0.26834039915E+02  0.40785355775E+02  0.00000000000E+00 0.  1.
</event>
<event>
 7    1  0.2641103E-015  0.9000770E+02  0.7816164E-02  0.1186339E+00
        -11   -1    0    0    0    0  0.00000000000E+00  0.00000000000E+00  0.45593999997E+02  0.45594000000E+02  0.51100000000E-03 0. -1.
         11   -1    0    0    0    0 -0.00000000000E+00 -0.00000000000E+00 -0.45593999997E+02  0.45594000000E+02  0.51100000000E-03 0.  1.
    9900012    2    1    2    0    0 -0.51567956218E+00 -0.34152032602E+00 -0.10052615738E+01  0.90007698184E+02  0.89999959001E+02 0.  0.
        -12    1    1    2    0    0  0.51567956218E+00  0.34152032602E+00  0.10052615738E+01  0.11803018155E+01  0.00000000000E+00 0.  1.
         11    1    3    3    0    0 -0.12843328941E+02 -0.75130120850E+00 -0.14643694530E+02  0.19492391889E+02  0.51100000000E-03 0. -1.
        -11    1    3    3    0    0  0.14658300066E+02 -0.27202438590E+02 -0.11627313780E+02  0.33015645565E+02  0.51100000000E-03 0.  1.
         12    1    3    3    0    0 -0.23306506870E+01  0.27612219473E+02  0.25265746736E+02  0.37499660731E+02  0.00000000000E+00 0. -1.
</event>
<event>
 7    1  0.2641103E-015  0.9000774E+02  0.7816164E-02  0.1186339E+00
        -11   -1    0    0    0    0  0.00000000000E+00  0.00000000000E+00  0.45593999997E+02  0.45594000000E+02  0.51100000000E-03 0.  1.
         11   -1    0    0    0    0 -0.00000000000E+00 -0.00000000000E+00 -0.45593999997E+02  0.45594000000E+02  0.51100000000E-03 0. -1.
    9900012    2    1    2    0    0 -0.73799935545E+00  0.42046273451E+00  0.81950437147E+00  0.90007737582E+02  0.89999998918E+02 0.  0.
        -12    1    1    2    0    0  0.73799935545E+00 -0.42046273451E+00 -0.81950437147E+00  0.11802624177E+01  0.00000000000E+00 0.  1.
         11    1    3    3    0    0 -0.41358977703E+01 -0.47877838679E+00  0.10481268764E+02  0.11277937501E+02  0.51100000000E-03 0. -1.
        -11    1    3    3    0    0 -0.18891628615E+02 -0.20149631543E+02  0.21510105330E+02  0.35008369208E+02  0.51100000000E-03 0.  1.
         12    1    3    3    0    0  0.22289527030E+02  0.21048872664E+02 -0.31171869722E+02  0.43721430874E+02  0.00000000000E+00 0. -1.
</event>
<event>
 7    1  0.2641103E-015  0.9000779E+02  0.7816164E-02  0.1186339E+00
        -11   -1    0    0    0    0  0.00000000000E+00  0.00000000000E+00  0.45593999997E+02  0.45594000000E+02  0.51100000000E-03 0.  1.
         11   -1    0    0    0    0 -0.00000000000E+00 -0.00000000000E+00 -0.45593999997E+02  0.45594000000E+02  0.51100000000E-03 0. -1.
    9900012    2    1    2    0    0 -0.78403630140E+00  0.60975218221E+00 -0.63748819671E+00  0.90007787372E+02  0.90000049366E+02 0.  0.
        -12    1    1    2    0    0  0.78403630140E+00 -0.60975218221E+00  0.63748819671E+00  0.11802126277E+01  0.00000000000E+00 0.  1.
         11    1    3    3    0    0  0.61644114136E+01 -0.38661851362E+02  0.18948189751E+02  0.43494512457E+02  0.51100000000E-03 0. -1.
        -11    1    3    3    0    0  0.27374669637E+01  0.63166383688E+01  0.17374750647E+00  0.68864965052E+01  0.51100000000E-03 0.  1.
        -12    1    3    3    0    0 -0.96859146787E+01  0.32954965175E+02 -0.19759425454E+02  0.39626778410E+02  0.00000000000E+00 0.  1.
</event>
<event>
 7    1  0.2641103E-015  0.9000770E+02  0.7816164E-02  0.1186339E+00
        -11   -1    0    0    0    0  0.00000000000E+00  0.00000000000E+00  0.45593999997E+02  0.45594000000E+02  0.51100000000E-03 0. -1.
         11   -1    0    0    0    0 -0.00000000000E+00 -0.00000000000E+00 -0.45593999997E+02  0.45594000000E+02  0.51100000000E-03 0.  1.
    9900012    2    1    2    0    0  0.49086403756E+00 -0.17002545863E+00  0.10598362273E+01  0.90007699619E+02  0.89999960454E+02 0.  0.
        -12    1    1    2    0    0 -0.49086403756E+00  0.17002545863E+00 -0.10598362273E+01  0.11803003807E+01  0.00000000000E+00 0.  1.
         11    1    3    3    0    0 -0.32799235171E+01 -0.34084666273E+02  0.12176586776E+02  0.36342697189E+02  0.51100000000E-03 0. -1.
        -11    1    3    3    0    0  0.21675210000E+01 -0.77023490293E+01  0.45063959797E+01  0.91832419571E+01  0.51100000000E-03 0.  1.
        -12    1    3    3    0    0  0.16032665546E+01  0.41616989844E+02 -0.15623146529E+02  0.44481760473E+02  0.00000000000E+00 0.  1.
</event>
<event>
 7    1  0.2641103E-015  0.9000767E+02  0.7816164E-02  0.1186339E+00
        -11   -1    0    0    0    0  0.00000000000E+00  0.00000000000E+00  0.45593999997E+02  0.45594000000E+02  0.51100000000E-03 0. -1.
         11   -1    0    0    0    0 -0.00000000000E+00 -0.00000000000E+00 -0.45593999997E+02  0.45594000000E+02  0.51100000000E-03 0.  1.
    9900012    2    1    2    0    0 -0.38538601427E+00 -0.11019337742E+01 -0.17432872508E+00  0.90007673381E+02  0.89999933870E+02 0.  0.
        -12    1    1    2    0    0  0.38538601427E+00  0.11019337742E+01  0.17432872508E+00  0.11803266188E+01  0.00000000000E+00 0.  1.
         11    1    3    3    0    0  0.24682421292E+01 -0.36674618291E+02 -0.15804939859E+01  0.36791545326E+02  0.51100000000E-03 0. -1.
        -11    1    3    3    0    0 -0.76460700172E+01 -0.12718060024E+01 -0.11513153831E+02  0.13879214265E+02  0.51100000000E-03 0.  1.
        -12    1    3    3    0    0  0.47924418737E+01  0.36844490519E+02  0.12919319092E+02  0.39336913790E+02  0.00000000000E+00 0.  1.
</event>
<event>
 7    1  0.2641103E-015  0.9000768E+02  0.7816164E-02  0.1186339E+00
        -11   -1    0    0    0    0  0.00000000000E+00  0.00000000000E+00  0.45593999997E+02  0.45594000000E+02  0.51100000000E-03 0.  1.
         11   -1    0    0    0    0 -0.00000000000E+00 -0.00000000000E+00 -0.45593999997E+02  0.45594000000E+02  0.51100000000E-03 0. -1.
    9900012    2    1    2    0    0 -0.35761183344E+00  0.31021000742E-01 -0.11244159693E+01  0.90007678096E+02  0.89999938646E+02 0.  0.
        -12    1    1    2    0    0  0.35761183344E+00 -0.31021000742E-01  0.11244159693E+01  0.11803219044E+01  0.00000000000E+00 0.  1.
         11    1    3    3    0    0 -0.28896930101E+02  0.15764715623E+01 -0.27576921870E+02  0.39975047866E+02  0.51100000000E-03 0. -1.
        -11    1    3    3    0    0 -0.33315429963E+01  0.83900403537E+01  0.45888212138E+01  0.10126659680E+02  0.51100000000E-03 0.  1.
        -12    1    3    3    0    0  0.31870861264E+02 -0.99354909153E+01  0.21863684687E+02  0.39905970550E+02  0.00000000000E+00 0.  1.
</event>
<event>
 7    1  0.2641103E-015  0.9000774E+02  0.7816164E-02  0.1186339E+00
        -11   -1    0    0    0    0  0.00000000000E+00  0.00000000000E+00  0.45593999997E+02  0.45594000000E+02  0.51100000000E-03 0.  1.
         11   -1    0    0    0    0 -0.00000000000E+00 -0.00000000000E+00 -0.45593999997E+02  0.45594000000E+02  0.51100000000E-03 0. -1.
    9900012    2    1    2    0    0  0.93941540684E+00  0.15199301361E+00 -0.69814231938E+00  0.90007743299E+02  0.90000004710E+02 0.  0.
        -12    1    1    2    0    0 -0.93941540684E+00 -0.15199301361E+00  0.69814231938E+00  0.11802567013E+01  0.00000000000E+00 0.  1.
         11    1    3    3    0    0 -0.21126930752E+02  0.33041354935E+02 -0.25951918094E+01  0.39304113776E+02  0.51100000000E-03 0. -1.
        -11    1    3    3    0    0  0.24353407517E+01 -0.36071013404E+01 -0.12034232736E+02  0.12797063040E+02  0.51100000000E-03 0.  1.
        -12    1    3    3    0    0  0.19631005408E+02 -0.29282260581E+02  0.13931282226E+02  0.37906566482E+02  0.00000000000E+00 0.  1.
</event>
<event>
 7    1  0.2641103E-015  0.9000773E+02  0.7816164E-02  0.1186339E+00
        -11   -1    0    0    0    0  0.00000000000E+00  0.00000000000E+00  0.45593999997E+02  0.45594000000E+02  0.51100000000E-03 0.  1.
         11   -1    0    0    0    0 -0.00000000000E+00 -0.00000000000E+00 -0.45593999997E+02  0.45594000000E+02  0.51100000000E-03 0. -1.
    9900012    2    1    2    0    0  0.84204734563E+00 -0.60191091548E+00  0.56718179777E+00  0.90007730677E+02  0.89999991922E+02 0.  0.
        -12    1    1    2    0    0 -0.84204734563E+00  0.60191091548E+00 -0.56718179777E+00  0.11802693227E+01  0.00000000000E+00 0.  1.
         11    1    3    3    0    0  0.90733095401E+01 -0.30317044566E+02  0.20402206964E+02  0.37652333082E+02  0.51100000000E-03 0. -1.
        -11    1    3    3    0    0  0.12420951014E+01 -0.85482484312E+01 -0.62480244419E+01  0.10660823663E+02  0.51100000000E-03 0.  1.
        -12    1    3    3    0    0 -0.94733572959E+01  0.38263382081E+02 -0.13587000724E+02  0.41694573933E+02  0.00000000000E+00 0.  1.
</event>
<event>
 7    1  0.2641103E-015  0.9000782E+02  0.7816164E-02  0.1186339E+00
        -11   -1    0    0    0    0  0.00000000000E+00  0.00000000000E+00  0.45593999997E+02  0.45594000000E+02  0.51100000000E-03 0.  1.
         11   -1    0    0    0    0 -0.00000000000E+00 -0.00000000000E+00 -0.45593999997E+02  0.45594000000E+02  0.51100000000E-03 0. -1.
    9900012    2    1    2    0    0 -0.21145443105E+00  0.99502548449E+00 -0.59835793016E+00  0.90007821664E+02  0.90000084110E+02 0.  0.
        -12    1    1    2    0    0  0.21145443105E+00 -0.99502548449E+00  0.59835793016E+00  0.11801783356E+01  0.00000000000E+00 0.  1.
         11    1    3    3    0    0  0.28283728152E+02 -0.79034159765E+01 -0.26861910992E+02  0.39799441261E+02  0.51100000000E-03 0. -1.
        -11    1    3    3    0    0 -0.88837529239E+01 -0.30761772259E+01 -0.55855920981E+01  0.10935390788E+02  0.51100000000E-03 0.  1.
        -12    1    3    3    0    0 -0.19611429659E+02  0.11974618687E+02  0.31849145160E+02  0.39272989616E+02  0.00000000000E+00 0.  1.
</event>
<event>
 7    1  0.2641103E-015  0.9000768E+02  0.7816164E-02  0.1186339E+00
        -11   -1    0    0    0    0  0.00000000000E+00  0.00000000000E+00  0.45593999997E+02  0.45594000000E+02  0.51100000000E-03 0.  1.
         11   -1    0    0    0    0 -0.00000000000E+00 -0.00000000000E+00 -0.45593999997E+02  0.45594000000E+02  0.51100000000E-03 0. -1.
    9900012    2    1    2    0    0 -0.27825287454E+00  0.80299247753E-01 -0.11442387303E+01  0.90007680169E+02  0.89999940747E+02 0.  0.
        -12    1    1    2    0    0  0.27825287454E+00 -0.80299247753E-01  0.11442387303E+01  0.11803198309E+01  0.00000000000E+00 0.  1.
         11    1    3    3    0    0  0.23124772951E+02  0.26303352888E+02  0.87582508493E+01  0.36101640619E+02  0.51100000000E-03 0. -1.
        -11    1    3    3    0    0  0.58108711396E+01  0.39092375611E+01  0.58023191836E+01  0.90947935589E+01  0.51100000000E-03 0.  1.
        -12    1    3    3    0    0 -0.29213896965E+02 -0.30132291202E+02 -0.15704808763E+02  0.44811245991E+02  0.00000000000E+00 0.  1.
</event>
<event>
 7    1  0.2641103E-015  0.9000777E+02  0.7816164E-02  0.1186339E+00
        -11   -1    0    0    0    0  0.00000000000E+00  0.00000000000E+00  0.45593999997E+02  0.45594000000E+02  0.51100000000E-03 0.  1.
         11   -1    0    0    0    0 -0.00000000000E+00 -0.00000000000E+00 -0.45593999997E+02  0.45594000000E+02  0.51100000000E-03 0. -1.
    9900012    2    1    2    0    0  0.21239683642E+00  0.68349539210E+00 -0.93844088380E+00  0.90007767116E+02  0.90000028842E+02 0.  0.
        -12    1    1    2    0    0 -0.21239683642E+00 -0.68349539210E+00  0.93844088380E+00  0.11802328836E+01  0.00000000000E+00 0.  1.
         11    1    3    3    0    0 -0.15742638509E+02 -0.25371540470E+02 -0.27059616095E+02  0.40296011670E+02  0.51100000000E-03 0. -1.
        -11    1    3    3    0    0  0.10534117911E+02  0.51288331005E+01 -0.42237742362E+01  0.12454430465E+02  0.51100000000E-03 0.  1.
        -12    1    3    3    0    0  0.54209174337E+01  0.20926202761E+02  0.30344949448E+02  0.37257324982E+02  0.00000000000E+00 0.  1.
</event>
<event>
 7    1  0.2641103E-015  0.9000780E+02  0.7816164E-02  0.1186339E+00
        -11   -1    0    0    0    0  0.00000000000E+00  0.00000000000E+00  0.45593999997E+02  0.45594000000E+02  0.51100000000E-03 0. -1.
         11   -1    0    0    0    0 -0.00000000000E+00 -0.00000000000E+00 -0.45593999997E+02  0.45594000000E+02  0.51100000000E-03 0.  1.
    9900012    2    1    2    0    0  0.34170530491E+00  0.96899545171E+00  0.58065754970E+00  0.90007797521E+02  0.90000059649E+02 0.  0.
        -12    1    1    2    0    0 -0.34170530491E+00 -0.96899545171E+00 -0.58065754970E+00  0.11802024788E+01  0.00000000000E+00 0.  1.
         11    1    3    3    0    0  0.10580111492E+02  0.39865112187E+02 -0.98475742624E+01  0.42404488536E+02  0.51100000000E-03 0. -1.
        -11    1    3    3    0    0 -0.85915585376E+01 -0.11926281912E+01  0.12469715258E+01  0.87631146492E+01  0.51100000000E-03 0.  1.
        -12    1    3    3    0    0 -0.16468476500E+01 -0.37703488544E+02  0.91812602863E+01  0.38840194336E+02  0.00000000000E+00 0.  1.
</event>
<event>
 7    1  0.2641103E-015  0.9000769E+02  0.7816164E-02  0.1186339E+00
        -11   -1    0    0    0    0  0.00000000000E+00  0.00000000000E+00  0.45593999997E+02  0.45594000000E+02  0.51100000000E-03 0.  1.
         11   -1    0    0    0    0 -0.00000000000E+00 -0.00000000000E+00 -0.45593999997E+02  0.45594000000E+02  0.51100000000E-03 0. -1.
    9900012    2    1    2    0    0 -0.18524393335E+00 -0.67464990441E+00  0.95061119253E+00  0.90007690952E+02  0.89999951673E+02 0.  0.
        -12    1    1    2    0    0  0.18524393335E+00  0.67464990441E+00 -0.95061119253E+00  0.11803090476E+01  0.00000000000E+00 0.  1.
         11    1    3    3    0    0  0.24500387689E+02  0.11642484782E+02 -0.65606452207E+01  0.27908036742E+02  0.51100000000E-03 0. -1.
        -11    1    3    3    0    0  0.13028417271E+02 -0.17934151406E+02 -0.34303194445E+01  0.22430794346E+02  0.51100000000E-03 0.  1.
        -12    1    3    3    0    0 -0.37714048893E+02  0.56170167189E+01  0.10941575858E+02  0.39668859865E+02  0.00000000000E+00 0.  1.
</event>
<event>
 7    1  0.2641103E-015  0.9000763E+02  0.7816164E-02  0.1186339E+00
        -11   -1    0    0    0    0  0.00000000000E+00  0.00000000000E+00  0.45593999997E+02  0.45594000000E+02  0.51100000000E-03 0. -1.
         11   -1    0    0    0    0 -0.00000000000E+00 -0.00000000000E+00 -0.45593999997E+02  0.45594000000E+02  0.51100000000E-03 0.  1.
    9900012    2    1    2    0    0  0.59195746819E+00  0.58323637675E+00  0.83827573489E+00  0.90007625262E+02  0.89999885115E+02 0.  0.
        -12    1    1    2    0    0 -0.59195746819E+00 -0.58323637675E+00 -0.83827573489E+00  0.11803747384E+01  0.00000000000E+00 0.  1.
         11    1    3    3    0    0 -0.26900854318E+02  0.12946079262E+02  0.29576881317E+02  0.42024383874E+02  0.51100000000E-03 0. -1.
        -11    1    3    3    0    0 -0.41324281573E+01  0.41001753815E+00 -0.46073019381E+01  0.62026049581E+01  0.51100000000E-03 0.  1.
        -12    1    3    3    0    0  0.31625239944E+02 -0.12772860423E+02 -0.24131303644E+02  0.41780636429E+02  0.00000000000E+00 0.  1.
</event>
<event>
 7    1  0.2641103E-015  0.9000758E+02  0.7816164E-02  0.1186339E+00
        -11   -1    0    0    0    0  0.00000000000E+00  0.00000000000E+00  0.45593999997E+02  0.45594000000E+02  0.51100000000E-03 0. -1.
         11   -1    0    0    0    0 -0.00000000000E+00 -0.00000000000E+00 -0.45593999997E+02  0.45594000000E+02  0.51100000000E-03 0.  1.
    9900012    2    1    2    0    0  0.75420128992E+00  0.74856327137E+00  0.51402120420E+00  0.90007582974E+02  0.89999842269E+02 0.  0.
        -12    1    1    2    0    0 -0.75420128992E+00 -0.74856327137E+00 -0.51402120420E+00  0.11804170260E+01  0.00000000000E+00 0.  1.
         11    1    3    3    0    0  0.71617370504E+01  0.41885535079E+01  0.55327001979E+01  0.99722229121E+01  0.51100000000E-03 0. -1.
        -11    1    3    3    0    0 -0.10399113330E+02 -0.13562572227E+02  0.34792782609E+02  0.38763676881E+02  0.51100000000E-03 0.  1.
         12    1    3    3    0    0  0.39915775693E+01  0.10122581990E+02 -0.39811461602E+02  0.41271683181E+02  0.00000000000E+00 0. -1.
</event>
<event>
 7    1  0.2641103E-015  0.9000770E+02  0.7816164E-02  0.1186339E+00
        -11   -1    0    0    0    0  0.00000000000E+00  0.00000000000E+00  0.45593999997E+02  0.45594000000E+02  0.51100000000E-03 0. -1.
         11   -1    0    0    0    0 -0.00000000000E+00 -0.00000000000E+00 -0.45593999997E+02  0.45594000000E+02  0.51100000000E-03 0.  1.
    9900012    2    1    2    0    0 -0.21210477899E+00 -0.11484837232E+01 -0.17056930246E+00  0.90007704619E+02  0.89999965520E+02 0.  0.
        -12    1    1    2    0    0  0.21210477899E+00  0.11484837232E+01  0.17056930246E+00  0.11802953811E+01  0.00000000000E+00 0.  1.
         11    1    3    3    0    0 -0.10247315474E+02 -0.32396130886E+02  0.18148842197E+02  0.38521386842E+02  0.51100000000E-03 0. -1.
        -11    1    3    3    0    0 -0.11603782391E+02  0.63963900498E+01 -0.12118401744E+02  0.17955980411E+02  0.51100000000E-03 0.  1.
        -12    1    3    3    0    0  0.21638993086E+02  0.24851257113E+02 -0.62010097559E+01  0.33530337366E+02  0.00000000000E+00 0.  1.
</event>
<event>
 7    1  0.2641103E-015  0.9000777E+02  0.7816164E-02  0.1186339E+00
        -11   -1    0    0    0    0  0.00000000000E+00  0.00000000000E+00  0.45593999997E+02  0.45594000000E+02  0.51100000000E-03 0.  1.
         11   -1    0    0    0    0 -0.00000000000E+00 -0.00000000000E+00 -0.45593999997E+02  0.45594000000E+02  0.51100000000E-03 0. -1.
    9900012    2    1    2    0    0  0.98611920446E+00  0.37881927648E+00 -0.52631600718E+00  0.90007769654E+02  0.90000031414E+02 0.  0.
        -12    1    1    2    0    0 -0.98611920446E+00 -0.37881927648E+00  0.52631600718E+00  0.11802303458E+01  0.00000000000E+00 0.  1.
         11    1    3    3    0    0  0.24885955321E+02  0.22304749911E+02 -0.14248778057E+02  0.36329606621E+02  0.51100000000E-03 0. -1.
        -11    1    3    3    0    0  0.17522951402E+01  0.76394767508E+01 -0.59780498582E+01  0.98574450875E+01  0.51100000000E-03 0.  1.
        -12    1    3    3    0    0 -0.25652131257E+02 -0.29565407385E+02  0.19700511908E+02  0.43820717946E+02  0.00000000000E+00 0.  1.
</event>
<event>
 7    1  0.2641103E-015  0.9000754E+02  0.7816164E-02  0.1186339E+00
        -11   -1    0    0    0    0  0.00000000000E+00  0.00000000000E+00  0.45593999997E+02  0.45594000000E+02  0.51100000000E-03 0. -1.
         11   -1    0    0    0    0 -0.00000000000E+00 -0.00000000000E+00 -0.45593999997E+02  0.45594000000E+02  0.51100000000E-03 0.  1.
    9900012    2    1    2    0    0 -0.15345631397E+00  0.93162267279E+00  0.70852357875E+00  0.90007544450E+02  0.89999803236E+02 0.  0.
        -12    1    1    2    0    0  0.15345631397E+00 -0.93162267279E+00 -0.70852357875E+00  0.11804555504E+01  0.00000000000E+00 0.  1.
         11    1    3    3    0    0  0.10491370335E+02  0.30815168004E+02  0.20169642373E+02  0.38294358648E+02  0.51100000000E-03 0. -1.
        -11    1    3    3    0    0  0.92752244866E+01  0.25252836166E+01 -0.18333233470E+01  0.97861085922E+01  0.51100000000E-03 0.  1.
        -12    1    3    3    0    0 -0.19920051135E+02 -0.32408828947E+02 -0.17627795447E+02  0.41927077209E+02  0.00000000000E+00 0.  1.
</event>
<event>
 7    1  0.2641103E-015  0.9000772E+02  0.7816164E-02  0.1186339E+00
        -11   -1    0    0    0    0  0.00000000000E+00  0.00000000000E+00  0.45593999997E+02  0.45594000000E+02  0.51100000000E-03 0.  1.
         11   -1    0    0    0    0 -0.00000000000E+00 -0.00000000000E+00 -0.45593999997E+02  0.45594000000E+02  0.51100000000E-03 0. -1.
    9900012    2    1    2    0    0 -0.22582579195E+00  0.92373874125E+00 -0.69911757356E+00  0.90007722095E+02  0.89999983227E+02 0.  0.
        -12    1    1    2    0    0  0.22582579195E+00 -0.92373874125E+00  0.69911757356E+00  0.11802779046E+01  0.00000000000E+00 0.  1.
         11    1    3    3    0    0 -0.17973233527E+02  0.35029341406E+02 -0.62107005934E+01  0.39858056712E+02  0.51100000000E-03 0. -1.
        -11    1    3    3    0    0  0.65741367588E+01  0.27159453504E+01 -0.67074042091E+01  0.97767532829E+01  0.51100000000E-03 0.  1.
        -12    1    3    3    0    0  0.11173270976E+02 -0.36821548015E+02  0.12218987229E+02  0.40372912100E+02  0.00000000000E+00 0.  1.
</event>
<event>
 7    1  0.2641103E-015  0.9000775E+02  0.7816164E-02  0.1186339E+00
        -11   -1    0    0    0    0  0.00000000000E+00  0.00000000000E+00  0.45593999997E+02  0.45594000000E+02  0.51100000000E-03 0.  1.
         11   -1    0    0    0    0 -0.00000000000E+00 -0.00000000000E+00 -0.45593999997E+02  0.45594000000E+02  0.51100000000E-03 0. -1.
    9900012    2    1    2    0    0  0.72771579637E+00  0.38879934234E+00 -0.84395171565E+00  0.90007750150E+02  0.90000011652E+02 0.  0.
        -12    1    1    2    0    0 -0.72771579637E+00 -0.38879934234E+00  0.84395171565E+00  0.11802498495E+01  0.00000000000E+00 0.  1.
         11    1    3    3    0    0 -0.20247397788E-01 -0.39420770441E+02 -0.17483696834E+01  0.39459527987E+02  0.51100000000E-03 0. -1.
        -11    1    3    3    0    0 -0.77659653732E+01 -0.18472333641E+01  0.87325172933E+00  0.80302589076E+01  0.51100000000E-03 0.  1.
        -12    1    3    3    0    0  0.85139285674E+01  0.41656803148E+02  0.31166238405E-01  0.42517963256E+02  0.00000000000E+00 0.  1.
</event>
<event>
 7    1  0.2641103E-015  0.9000776E+02  0.7816164E-02  0.1186339E+00
        -11   -1    0    0    0    0  0.00000000000E+00  0.00000000000E+00  0.45593999997E+02  0.45594000000E+02  0.51100000000E-03 0. -1.
         11   -1    0    0    0    0 -0.00000000000E+00 -0.00000000000E+00 -0.45593999997E+02  0.45594000000E+02  0.51100000000E-03 0.  1.
    9900012    2    1    2    0    0  0.57163276248E+00  0.10100464755E+01  0.21451184470E+00  0.90007757131E+02  0.90000018725E+02 0.  0.
        -12    1    1    2    0    0 -0.57163276248E+00 -0.10100464755E+01 -0.21451184470E+00  0.11802428688E+01  0.00000000000E+00 0.  1.
         11    1    3    3    0    0  0.62578271291E+01  0.55225796986E+01  0.98377945478E+00  0.84039936448E+01  0.51100000000E-03 0. -1.
        -11    1    3    3    0    0  0.21965116033E+02 -0.24784358303E+00 -0.32545967605E+02  0.39265350583E+02  0.51100000000E-03 0.  1.
         12    1    3    3    0    0 -0.27651310400E+02 -0.42646896400E+01  0.31776699995E+02  0.42338412903E+02  0.00000000000E+00 0. -1.
</event>
<event>
 7    1  0.2641103E-015  0.9000721E+02  0.7816164E-02  0.1186340E+00
        -11   -1    0    0    0    0  0.00000000000E+00  0.00000000000E+00  0.45593999997E+02  0.45594000000E+02  0.51100000000E-03 0.  1.
         11   -1    0    0    0    0 -0.00000000000E+00 -0.00000000000E+00 -0.45593999997E+02  0.45594000000E+02  0.51100000000E-03 0. -1.
    9900012    2    1    2    0    0 -0.42819851521E+00 -0.54525011371E+00 -0.95583590978E+00  0.90007206224E+02  0.89999460545E+02 0.  0.
        -12    1    1    2    0    0  0.42819851521E+00  0.54525011371E+00  0.95583590978E+00  0.11807937760E+01  0.00000000000E+00 0.  1.
         11    1    3    3    0    0 -0.13234752674E+02 -0.28393434975E+02 -0.25211971868E+02  0.40211806149E+02  0.51100000000E-03 0. -1.
        -11    1    3    3    0    0  0.65147081181E+01  0.31182349098E+01 -0.65797713447E+01  0.97702713385E+01  0.51100000000E-03 0.  1.
        -12    1    3    3    0    0  0.62918460407E+01  0.24729949952E+02  0.30835907303E+02  0.40025128737E+02  0.00000000000E+00 0.  1.
</event>
<event>
 7    1  0.2641103E-015  0.9000766E+02  0.7816164E-02  0.1186339E+00
        -11   -1    0    0    0    0  0.00000000000E+00  0.00000000000E+00  0.45593999997E+02  0.45594000000E+02  0.51100000000E-03 0. -1.
         11   -1    0    0    0    0 -0.00000000000E+00 -0.00000000000E+00 -0.45593999997E+02  0.45594000000E+02  0.51100000000E-03 0.  1.
    9900012    2    1    2    0    0  0.11196281736E+01  0.20143133327E+00  0.31473054680E+00  0.90007662274E+02  0.89999922616E+02 0.  0.
        -12    1    1    2    0    0 -0.11196281736E+01 -0.20143133327E+00 -0.31473054680E+00  0.11803377255E+01  0.00000000000E+00 0.  1.
         11    1    3    3    0    0  0.90999719248E+01 -0.47258453670E+01 -0.58931370559E+01  0.11826756448E+02  0.51100000000E-03 0. -1.
        -11    1    3    3    0    0  0.25153056272E+02 -0.14955526969E+02 -0.16265166156E+02  0.33479839562E+02  0.51100000000E-03 0.  1.
         12    1    3    3    0    0 -0.33133400023E+02  0.19882803670E+02  0.22473033758E+02  0.44701066264E+02  0.00000000000E+00 0. -1.
</event>
<event>
 7    1  0.2641103E-015  0.9000767E+02  0.7816164E-02  0.1186339E+00
        -11   -1    0    0    0    0  0.00000000000E+00  0.00000000000E+00  0.45593999997E+02  0.45594000000E+02  0.51100000000E-03 0. -1.
         11   -1    0    0    0    0 -0.00000000000E+00 -0.00000000000E+00 -0.45593999997E+02  0.45594000000E+02  0.51100000000E-03 0.  1.
    9900012    2    1    2    0    0  0.79619797320E+00  0.86067959991E+00 -0.13593781792E+00  0.90007669675E+02  0.89999930114E+02 0.  0.
        -12    1    1    2    0    0 -0.79619797320E+00 -0.86067959991E+00  0.13593781792E+00  0.11803303252E+01  0.00000000000E+00 0.  1.
         11    1    3    3    0    0  0.14588101728E+02  0.57005920853E+01 -0.64531223815E+00  0.15675646408E+02  0.51100000000E-03 0. -1.
        -11    1    3    3    0    0  0.78293259515E+01  0.27026550459E+02  0.16518165633E+02  0.32627941564E+02  0.51100000000E-03 0.  1.
         12    1    3    3    0    0 -0.21621229706E+02 -0.31866462944E+02 -0.16008791212E+02  0.41704081703E+02  0.00000000000E+00 0. -1.
</event>
<event>
 7    1  0.2641103E-015  0.9000772E+02  0.7816164E-02  0.1186339E+00
        -11   -1    0    0    0    0  0.00000000000E+00  0.00000000000E+00  0.45593999997E+02  0.45594000000E+02  0.51100000000E-03 0.  1.
         11   -1    0    0    0    0 -0.00000000000E+00 -0.00000000000E+00 -0.45593999997E+02  0.45594000000E+02  0.51100000000E-03 0. -1.
    9900012    2    1    2    0    0  0.63472239504E+00 -0.60834740865E+00 -0.78745947091E+00  0.90007723970E+02  0.89999985127E+02 0.  0.
        -12    1    1    2    0    0 -0.63472239504E+00  0.60834740865E+00  0.78745947091E+00  0.11802760299E+01  0.00000000000E+00 0.  1.
         11    1    3    3    0    0  0.80951075880E+01 -0.39919859450E+02 -0.97727236057E+01  0.41888328593E+02  0.51100000000E-03 0. -1.
        -11    1    3    3    0    0  0.49745118131E+01  0.35580164892E+01  0.82350966850E+01  0.10257780793E+02  0.51100000000E-03 0.  1.
        -12    1    3    3    0    0 -0.12434897006E+02  0.35753495552E+02  0.75016744978E+00  0.37861614585E+02  0.00000000000E+00 0.  1.
</event>
<event>
 7    1  0.2641103E-015  0.9000750E+02  0.7816164E-02  0.1186340E+00
        -11   -1    0    0    0    0  0.00000000000E+00  0.00000000000E+00  0.45593999997E+02  0.45594000000E+02  0.51100000000E-03 0. -1.
         11   -1    0    0    0    0 -0.00000000000E+00 -0.00000000000E+00 -0.45593999997E+02  0.45594000000E+02  0.51100000000E-03 0.  1.
    9900012    2    1    2    0    0  0.95592844907E+00 -0.66049687648E+00 -0.20863151073E+00  0.90007499076E+02  0.89999757264E+02 0.  0.
        -12    1    1    2    0    0 -0.95592844907E+00  0.66049687648E+00  0.20863151073E+00  0.11805009237E+01  0.00000000000E+00 0.  1.
         11    1    3    3    0    0  0.20036746475E+02  0.19540521729E+02  0.23783092798E+02  0.36727900866E+02  0.51100000000E-03 0. -1.
        -11    1    3    3    0    0  0.17291531885E+01  0.48509964805E+01  0.67528046139E+01  0.84924971603E+01  0.51100000000E-03 0.  1.
        -12    1    3    3    0    0 -0.20809971214E+02 -0.25052015086E+02 -0.30744528923E+02  0.44787101050E+02  0.00000000000E+00 0.  1.
</event>
<event>
 7    1  0.2641103E-015  0.9000772E+02  0.7816164E-02  0.1186339E+00
        -11   -1    0    0    0    0  0.00000000000E+00  0.00000000000E+00  0.45593999997E+02  0.45594000000E+02  0.51100000000E-03 0.  1.
         11   -1    0    0    0    0 -0.00000000000E+00 -0.00000000000E+00 -0.45593999997E+02  0.45594000000E+02  0.51100000000E-03 0. -1.
    9900012    2    1    2    0    0  0.92252108613E+00 -0.70731227213E+00  0.20429323698E+00  0.90007715487E+02  0.89999976532E+02 0.  0.
        -12    1    1    2    0    0 -0.92252108613E+00  0.70731227213E+00 -0.20429323698E+00  0.11802845129E+01  0.00000000000E+00 0.  1.
         11    1    3    3    0    0 -0.21326328696E+01 -0.28527580638E+02 -0.28700853250E+02  0.40522955933E+02  0.51100000000E-03 0. -1.
        -11    1    3    3    0    0  0.47342558279E+00 -0.61055435867E+01  0.49401264589E+01  0.78680775265E+01  0.51100000000E-03 0.  1.
        -12    1    3    3    0    0  0.25817283729E+01  0.33925811953E+02  0.23965020028E+02  0.41616682028E+02  0.00000000000E+00 0.  1.
</event>
<event>
 7    1  0.2641103E-015  0.9000773E+02  0.7816164E-02  0.1186339E+00
        -11   -1    0    0    0    0  0.00000000000E+00  0.00000000000E+00  0.45593999997E+02  0.45594000000E+02  0.51100000000E-03 0. -1.
         11   -1    0    0    0    0 -0.00000000000E+00 -0.00000000000E+00 -0.45593999997E+02  0.45594000000E+02  0.51100000000E-03 0.  1.
    9900012    2    1    2    0    0  0.21190688226E+00 -0.33622325779E+00  0.11113462101E+01  0.90007728419E+02  0.89999989634E+02 0.  0.
        -12    1    1    2    0    0 -0.21190688226E+00  0.33622325779E+00 -0.11113462101E+01  0.11802715809E+01  0.00000000000E+00 0.  1.
         11    1    3    3    0    0  0.39495565747E+02 -0.79800606180E+01  0.24063469047E+01  0.40365475184E+02  0.51100000000E-03 0. -1.
        -11    1    3    3    0    0  0.14369594984E+01  0.31582515136E+01 -0.74472924168E+01  0.82159338986E+01  0.51100000000E-03 0.  1.
        -12    1    3    3    0    0 -0.40720618364E+02  0.44855858466E+01  0.61522917223E+01  0.41426319336E+02  0.00000000000E+00 0.  1.
</event>
<event>
 7    1  0.2641103E-015  0.9000773E+02  0.7816164E-02  0.1186339E+00
        -11   -1    0    0    0    0  0.00000000000E+00  0.00000000000E+00  0.45593999997E+02  0.45594000000E+02  0.51100000000E-03 0.  1.
         11   -1    0    0    0    0 -0.00000000000E+00 -0.00000000000E+00 -0.45593999997E+02  0.45594000000E+02  0.51100000000E-03 0. -1.
    9900012    2    1    2    0    0 -0.35473606489E+00 -0.11100902606E+01 -0.18684450489E+00  0.90007725061E+02  0.89999986232E+02 0.  0.
        -12    1    1    2    0    0  0.35473606489E+00  0.11100902606E+01  0.18684450489E+00  0.11802749389E+01  0.00000000000E+00 0.  1.
         11    1    3    3    0    0  0.43078631399E+01  0.60806835408E+01  0.10097174687E+02  0.12549316080E+02  0.51100000000E-03 0. -1.
        -11    1    3    3    0    0 -0.12048207769E+02  0.24983264793E+02  0.18763443437E+02  0.33487156344E+02  0.51100000000E-03 0.  1.
         12    1    3    3    0    0  0.73856085641E+01 -0.32174038594E+02 -0.29047462629E+02  0.43971252637E+02  0.00000000000E+00 0. -1.
</event>
<event>
 7    1  0.2641103E-015  0.9000771E+02  0.7816164E-02  0.1186339E+00
        -11   -1    0    0    0    0  0.00000000000E+00  0.00000000000E+00  0.45593999997E+02  0.45594000000E+02  0.51100000000E-03 0. -1.
         11   -1    0    0    0    0 -0.00000000000E+00 -0.00000000000E+00 -0.45593999997E+02  0.45594000000E+02  0.51100000000E-03 0.  1.
    9900012    2    1    2    0    0  0.90269864600E+00 -0.26018104975E+00  0.71451072044E+00  0.90007709954E+02  0.89999970925E+02 0.  0.
        -12    1    1    2    0    0 -0.90269864600E+00  0.26018104975E+00 -0.71451072044E+00  0.11802900465E+01  0.00000000000E+00 0.  1.
         11    1    3    3    0    0  0.16984021989E+02 -0.37415035365E+01 -0.39052034403E+02  0.42749470674E+02  0.51100000000E-03 0. -1.
        -11    1    3    3    0    0  0.64547113544E+00  0.73796459513E+01  0.66587072073E+01  0.99606319723E+01  0.51100000000E-03 0.  1.
        -12    1    3    3    0    0 -0.16726794478E+02 -0.38983234646E+01  0.33107837916E+02  0.37297607307E+02  0.00000000000E+00 0.  1.
</event>
<event>
 7    1  0.2641103E-015  0.9000738E+02  0.7816164E-02  0.1186340E+00
        -11   -1    0    0    0    0  0.00000000000E+00  0.00000000000E+00  0.45593999997E+02  0.45594000000E+02  0.51100000000E-03 0.  1.
         11   -1    0    0    0    0 -0.00000000000E+00 -0.00000000000E+00 -0.45593999997E+02  0.45594000000E+02  0.51100000000E-03 0. -1.
    9900012    2    1    2    0    0  0.58377114972E+00  0.37311449241E+00 -0.95595941343E+00  0.90007380849E+02  0.89999637475E+02 0.  0.
        -12    1    1    2    0    0 -0.58377114972E+00 -0.37311449241E+00  0.95595941343E+00  0.11806191510E+01  0.00000000000E+00 0.  1.
         11    1    3    3    0    0 -0.11145960422E+02  0.38396990258E+02  0.92919830205E+01  0.41047560747E+02  0.51100000000E-03 0. -1.
        -11    1    3    3    0    0  0.73131430743E+01  0.39838463940E+00  0.32283085137E+01  0.80039207934E+01  0.51100000000E-03 0.  1.
        -12    1    3    3    0    0  0.44165884972E+01 -0.38422260405E+02 -0.13476250948E+02  0.40955899308E+02  0.00000000000E+00 0.  1.
</event>
<event>
 7    1  0.2641103E-015  0.9000651E+02  0.7816164E-02  0.1186342E+00
        -11   -1    0    0    0    0  0.00000000000E+00  0.00000000000E+00  0.45593999997E+02  0.45594000000E+02  0.51100000000E-03 0.  1.
         11   -1    0    0    0    0 -0.00000000000E+00 -0.00000000000E+00 -0.45593999997E+02  0.45594000000E+02  0.51100000000E-03 0. -1.
    9900012    2    1    2    0    0  0.60343286786E-01 -0.73292513851E+00 -0.92471668321E+00  0.90006508775E+02  0.89998753882E+02 0.  0.
        -12    1    1    2    0    0 -0.60343286786E-01  0.73292513851E+00  0.92471668321E+00  0.11814912252E+01  0.00000000000E+00 0.  1.
         11    1    3    3    0    0  0.77733364611E+01  0.69739963530E+01  0.11260203313E+01  0.10503775841E+02  0.51100000000E-03 0. -1.
        -11    1    3    3    0    0  0.22627478921E+02  0.24793230239E+02 -0.83709386517E+01  0.34594503641E+02  0.51100000000E-03 0.  1.
         12    1    3    3    0    0 -0.30340472095E+02 -0.32500151731E+02  0.63202016372E+01  0.44908229293E+02  0.00000000000E+00 0. -1.
</event>
<event>
 7    1  0.2641103E-015  0.9000759E+02  0.7816164E-02  0.1186339E+00
        -11   -1    0    0    0    0  0.00000000000E+00  0.00000000000E+00  0.45593999997E+02  0.45594000000E+02  0.51100000000E-03 0. -1.
         11   -1    0    0    0    0 -0.00000000000E+00 -0.00000000000E+00 -0.45593999997E+02  0.45594000000E+02  0.51100000000E-03 0.  1.
    9900012    2    1    2    0    0  0.10796725940E+01 -0.47251644324E+00 -0.66272805250E-01  0.90007594653E+02  0.89999854102E+02 0.  0.
        -12    1    1    2    0    0 -0.10796725940E+01  0.47251644324E+00  0.66272805250E-01  0.11804053474E+01  0.00000000000E+00 0.  1.
         11    1    3    3    0    0 -0.42856646269E+01 -0.74204404211E+00  0.89168182062E+01  0.99210482227E+01  0.51100000000E-03 0. -1.
        -11    1    3    3    0    0 -0.27479413997E+02  0.15770236525E+02 -0.25033419298E+02  0.40379334265E+02  0.51100000000E-03 0.  1.
         12    1    3    3    0    0  0.32844751218E+02 -0.15500708926E+02  0.16050328287E+02  0.39707212165E+02  0.00000000000E+00 0. -1.
</event>
<event>
 7    1  0.2641103E-015  0.9000771E+02  0.7816164E-02  0.1186339E+00
        -11   -1    0    0    0    0  0.00000000000E+00  0.00000000000E+00  0.45593999997E+02  0.45594000000E+02  0.51100000000E-03 0.  1.
         11   -1    0    0    0    0 -0.00000000000E+00 -0.00000000000E+00 -0.45593999997E+02  0.45594000000E+02  0.51100000000E-03 0. -1.
    9900012    2    1    2    0    0  0.68200950870E+00 -0.67377698957E+00 -0.68845960858E+00  0.90007708072E+02  0.89999969019E+02 0.  0.
        -12    1    1    2    0    0 -0.68200950870E+00  0.67377698957E+00  0.68845960858E+00  0.11802919276E+01  0.00000000000E+00 0.  1.
         11    1    3    3    0    0 -0.67203834192E+01 -0.96726283051E+01 -0.48570552983E+01  0.12740262088E+02  0.51100000000E-03 0. -1.
        -11    1    3    3    0    0  0.17638592524E+02 -0.24029816950E+02  0.23222539044E+02  0.37786748588E+02  0.51100000000E-03 0.  1.
         12    1    3    3    0    0 -0.10236199596E+02  0.33028668266E+02 -0.19053943355E+02  0.39480697397E+02  0.00000000000E+00 0. -1.
</event>
<event>
 7    1  0.2641103E-015  0.9000770E+02  0.7816164E-02  0.1186339E+00
        -11   -1    0    0    0    0  0.00000000000E+00  0.00000000000E+00  0.45593999997E+02  0.45594000000E+02  0.51100000000E-03 0.  1.
         11   -1    0    0    0    0 -0.00000000000E+00 -0.00000000000E+00 -0.45593999997E+02  0.45594000000E+02  0.51100000000E-03 0. -1.
    9900012    2    1    2    0    0  0.80907709055E+00  0.25461314902E+00 -0.82077861752E+00  0.90007698711E+02  0.89999959534E+02 0.  0.
        -12    1    1    2    0    0 -0.80907709055E+00 -0.25461314902E+00  0.82077861752E+00  0.11803012891E+01  0.00000000000E+00 0.  1.
         11    1    3    3    0    0  0.14219365770E+02 -0.41516216596E+01 -0.14456019460E+02  0.20697894197E+02  0.51100000000E-03 0. -1.
        -11    1    3    3    0    0  0.13470887907E+01 -0.25443652383E+02  0.23415505980E+02  0.34604624190E+02  0.51100000000E-03 0.  1.
         12    1    3    3    0    0 -0.14757377470E+02  0.29849887191E+02 -0.97802651373E+01  0.34705180323E+02  0.00000000000E+00 0. -1.
</event>
<event>
 7    1  0.2641103E-015  0.9000648E+02  0.7816164E-02  0.1186342E+00
        -11   -1    0    0    0    0  0.00000000000E+00  0.00000000000E+00  0.45593999997E+02  0.45594000000E+02  0.51100000000E-03 0.  1.
         11   -1    0    0    0    0 -0.00000000000E+00 -0.00000000000E+00 -0.45593999997E+02  0.45594000000E+02  0.51100000000E-03 0. -1.
    9900012    2    1    2    0    0  0.52853570534E+00  0.75559880024E-01 -0.10540048560E+01  0.90006481687E+02  0.89998726436E+02 0.  0.
        -12    1    1    2    0    0 -0.52853570534E+00 -0.75559880024E-01  0.10540048560E+01  0.11815183129E+01  0.00000000000E+00 0.  1.
         11    1    3    3    0    0 -0.19840891022E+01 -0.62226763060E+01 -0.70770369747E+01  0.96303043865E+01  0.51100000000E-03 0. -1.
        -11    1    3    3    0    0 -0.24000779632E+02  0.28216182724E+02 -0.15106790806E+02  0.40005068668E+02  0.51100000000E-03 0.  1.
         12    1    3    3    0    0  0.26513404439E+02 -0.21917946538E+02  0.21129822924E+02  0.40371108632E+02  0.00000000000E+00 0. -1.
</event>
<event>
 7    1  0.2641103E-015  0.9000783E+02  0.7816164E-02  0.1186339E+00
        -11   -1    0    0    0    0  0.00000000000E+00  0.00000000000E+00  0.45593999997E+02  0.45594000000E+02  0.51100000000E-03 0.  1.
         11   -1    0    0    0    0 -0.00000000000E+00 -0.00000000000E+00 -0.45593999997E+02  0.45594000000E+02  0.51100000000E-03 0. -1.
    9900012    2    1    2    0    0 -0.75609605930E+00 -0.28129660822E+00 -0.86138397775E+00  0.90007834169E+02  0.90000096779E+02 0.  0.
        -12    1    1    2    0    0  0.75609605930E+00  0.28129660822E+00  0.86138397775E+00  0.11801658315E+01  0.00000000000E+00 0.  1.
         11    1    3    3    0    0 -0.31233189785E+02 -0.21240809137E+02  0.11662230066E+02  0.39530895858E+02  0.51100000000E-03 0. -1.
        -11    1    3    3    0    0 -0.49671143990E+01  0.21098496263E+01 -0.85838266504E+01  0.10139318080E+02  0.51100000000E-03 0.  1.
        -12    1    3    3    0    0  0.35444208125E+02  0.18849662903E+02 -0.39397873934E+01  0.40337620231E+02  0.00000000000E+00 0.  1.
</event>
<event>
 7    1  0.2641103E-015  0.9000777E+02  0.7816164E-02  0.1186339E+00
        -11   -1    0    0    0    0  0.00000000000E+00  0.00000000000E+00  0.45593999997E+02  0.45594000000E+02  0.51100000000E-03 0.  1.
         11   -1    0    0    0    0 -0.00000000000E+00 -0.00000000000E+00 -0.45593999997E+02  0.45594000000E+02  0.51100000000E-03 0. -1.
    9900012    2    1    2    0    0 -0.70802698916E+00  0.79340111948E+00  0.51202060095E+00  0.90007765850E+02  0.90000027559E+02 0.  0.
        -12    1    1    2    0    0  0.70802698916E+00 -0.79340111948E+00 -0.51202060095E+00  0.11802341503E+01  0.00000000000E+00 0.  1.
         11    1    3    3    0    0  0.29563621290E+02  0.58382911258E+01 -0.18260388842E+02  0.35235424617E+02  0.51100000000E-03 0. -1.
        -11    1    3    3    0    0  0.95889755616E+01 -0.93621522247E+00 -0.16846818512E+01  0.97807517331E+01  0.51100000000E-03 0.  1.
        -12    1    3    3    0    0 -0.39860623841E+02 -0.41086747838E+01  0.20457091294E+02  0.44991589499E+02  0.00000000000E+00 0.  1.
</event>
<event>
 8    1  0.2641103E-015  0.9000760E+02  0.7816164E-02  0.1186339E+00
        -11   -1    0    0    0    0  0.00000000000E+00  0.00000000000E+00  0.45593999997E+02  0.45594000000E+02  0.51100000000E-03 0. -1.
         11   -1    0    0    0    0 -0.00000000000E+00 -0.00000000000E+00 -0.45593999997E+02  0.45594000000E+02  0.51100000000E-03 0.  1.
    9900012    2    1    2    0    0  0.73308656597E+00 -0.82846011942E+00  0.41179091875E+00  0.90007604370E+02  0.89999863948E+02 0.  0.
         23    2    3    3    0    0  0.12398010056E+02  0.20686406588E+02 -0.12926590479E+02  0.62135174483E+02  0.55785706913E+02 0.  0.
        -12    1    1    2    0    0 -0.73308656597E+00  0.82846011942E+00 -0.41179091875E+00  0.11803956301E+01  0.00000000000E+00 0.  1.
         11    1    4    4    0    0  0.11918762522E+02 -0.81893188834E+01  0.15787872625E+02  0.21409782020E+02  0.51100000000E-03 0. -1.
        -11    1    4    4    0    0  0.47924753348E+00  0.28875725471E+02 -0.28714463104E+02  0.40725392464E+02  0.51100000000E-03 0.  1.
         12    1    3    3    0    0 -0.11664923490E+02 -0.21514866707E+02  0.13338381398E+02  0.27872429887E+02  0.00000000000E+00 0. -1.
</event>
<event>
 7    1  0.2641103E-015  0.9000747E+02  0.7816164E-02  0.1186340E+00
        -11   -1    0    0    0    0  0.00000000000E+00  0.00000000000E+00  0.45593999997E+02  0.45594000000E+02  0.51100000000E-03 0.  1.
         11   -1    0    0    0    0 -0.00000000000E+00 -0.00000000000E+00 -0.45593999997E+02  0.45594000000E+02  0.51100000000E-03 0. -1.
    9900012    2    1    2    0    0 -0.25665645918E+00  0.10818183250E+01 -0.39678638285E+00  0.90007473482E+02  0.89999731331E+02 0.  0.
        -12    1    1    2    0    0  0.25665645918E+00 -0.10818183250E+01  0.39678638285E+00  0.11805265181E+01  0.00000000000E+00 0.  1.
         11    1    3    3    0    0 -0.14982553358E+02  0.33815586081E+02 -0.39598157647E+01  0.37197458358E+02  0.51100000000E-03 0. -1.
        -11    1    3    3    0    0 -0.33432928255E+01  0.36223943751E+01 -0.90428434197E+01  0.10299143911E+02  0.51100000000E-03 0.  1.
        -12    1    3    3    0    0  0.18069189724E+02 -0.36356162131E+02  0.12605872802E+02  0.42510871213E+02  0.00000000000E+00 0.  1.
</event>
<event>
 7    1  0.2641103E-015  0.9000773E+02  0.7816164E-02  0.1186339E+00
        -11   -1    0    0    0    0  0.00000000000E+00  0.00000000000E+00  0.45593999997E+02  0.45594000000E+02  0.51100000000E-03 0.  1.
         11   -1    0    0    0    0 -0.00000000000E+00 -0.00000000000E+00 -0.45593999997E+02  0.45594000000E+02  0.51100000000E-03 0. -1.
    9900012    2    1    2    0    0  0.98960840614E+00  0.58794955717E+00  0.26083928398E+00  0.90007726044E+02  0.89999987228E+02 0.  0.
        -12    1    1    2    0    0 -0.98960840614E+00 -0.58794955717E+00 -0.26083928398E+00  0.11802739561E+01  0.00000000000E+00 0.  1.
         11    1    3    3    0    0 -0.34216644785E+01 -0.51573047799E+01  0.29655892277E+01  0.68629658402E+01  0.51100000000E-03 0. -1.
        -11    1    3    3    0    0 -0.43449346529E+01 -0.19395295413E+02  0.33050809772E+02  0.38566980282E+02  0.51100000000E-03 0.  1.
         12    1    3    3    0    0  0.87562075375E+01  0.25140549750E+02 -0.35755559715E+02  0.44577779921E+02  0.00000000000E+00 0. -1.
</event>
<event>
 7    1  0.2641103E-015  0.9000772E+02  0.7816164E-02  0.1186339E+00
        -11   -1    0    0    0    0  0.00000000000E+00  0.00000000000E+00  0.45593999997E+02  0.45594000000E+02  0.51100000000E-03 0. -1.
         11   -1    0    0    0    0 -0.00000000000E+00 -0.00000000000E+00 -0.45593999997E+02  0.45594000000E+02  0.51100000000E-03 0.  1.
    9900012    2    1    2    0    0 -0.76047855790E+00  0.52531995497E+00  0.73401197909E+00  0.90007719407E+02  0.89999980503E+02 0.  0.
        -12    1    1    2    0    0  0.76047855790E+00 -0.52531995497E+00 -0.73401197909E+00  0.11802805927E+01  0.00000000000E+00 0.  1.
         11    1    3    3    0    0 -0.11285716585E+02 -0.20361563978E+02 -0.23909517669E+02  0.33371031178E+02  0.51100000000E-03 0. -1.
        -11    1    3    3    0    0  0.62466823904E+01 -0.37826642671E+01 -0.10924053035E+02  0.13140187397E+02  0.51100000000E-03 0.  1.
        -12    1    3    3    0    0  0.42785556362E+01  0.24669548200E+02  0.35567582684E+02  0.43496500832E+02  0.00000000000E+00 0.  1.
</event>
<event>
 7    1  0.2641103E-015  0.9000783E+02  0.7816164E-02  0.1186339E+00
        -11   -1    0    0    0    0  0.00000000000E+00  0.00000000000E+00  0.45593999997E+02  0.45594000000E+02  0.51100000000E-03 0.  1.
         11   -1    0    0    0    0 -0.00000000000E+00 -0.00000000000E+00 -0.45593999997E+02  0.45594000000E+02  0.51100000000E-03 0. -1.
    9900012    2    1    2    0    0  0.73179172377E+00 -0.11091798037E+00 -0.91922665625E+00  0.90007830702E+02  0.90000093268E+02 0.  0.
        -12    1    1    2    0    0 -0.73179172377E+00  0.11091798037E+00  0.91922665625E+00  0.11801692976E+01  0.00000000000E+00 0.  1.
         11    1    3    3    0    0 -0.12382180245E+02  0.25523502628E+01 -0.11353790517E+02  0.16992393559E+02  0.51100000000E-03 0. -1.
        -11    1    3    3    0    0  0.18178913675E+02  0.31050638996E+01 -0.28161823419E+02  0.33663075064E+02  0.51100000000E-03 0.  1.
        -12    1    3    3    0    0 -0.50649417059E+01 -0.57683321427E+01  0.38596387280E+02  0.39352362080E+02  0.00000000000E+00 0.  1.
</event>
<event>
 7    1  0.2641103E-015  0.9000774E+02  0.7816164E-02  0.1186339E+00
        -11   -1    0    0    0    0  0.00000000000E+00  0.00000000000E+00  0.45593999997E+02  0.45594000000E+02  0.51100000000E-03 0.  1.
         11   -1    0    0    0    0 -0.00000000000E+00 -0.00000000000E+00 -0.45593999997E+02  0.45594000000E+02  0.51100000000E-03 0. -1.
    9900012    2    1    2    0    0  0.20778481278E+00 -0.37143411801E+00 -0.11008540186E+01  0.90007738418E+02  0.89999999765E+02 0.  0.
        -12    1    1    2    0    0 -0.20778481278E+00  0.37143411801E+00  0.11008540186E+01  0.11802615824E+01  0.00000000000E+00 0.  1.
         11    1    3    3    0    0 -0.41920634121E+00 -0.91446043206E+01  0.66706628201E+01  0.11326838255E+02  0.51100000000E-03 0. -1.
        -11    1    3    3    0    0 -0.23170438451E+02 -0.26827503387E+02 -0.25145720950E+01  0.35537406054E+02  0.51100000000E-03 0.  1.
         12    1    3    3    0    0  0.23797429605E+02  0.35600673590E+02 -0.52569447437E+01  0.43143494108E+02  0.00000000000E+00 0. -1.
</event>
<event>
 7    1  0.2641103E-015  0.9000771E+02  0.7816164E-02  0.1186339E+00
        -11   -1    0    0    0    0  0.00000000000E+00  0.00000000000E+00  0.45593999997E+02  0.45594000000E+02  0.51100000000E-03 0. -1.
         11   -1    0    0    0    0 -0.00000000000E+00 -0.00000000000E+00 -0.45593999997E+02  0.45594000000E+02  0.51100000000E-03 0.  1.
    9900012    2    1    2    0    0 -0.45596006877E+00 -0.44809866029E+00  0.99215970837E+00  0.90007714916E+02  0.89999975952E+02 0.  0.
        -12    1    1    2    0    0  0.45596006877E+00  0.44809866029E+00 -0.99215970837E+00  0.11802850845E+01  0.00000000000E+00 0.  1.
         11    1    3    3    0    0  0.10510391256E+02  0.14314241799E+01 -0.20501454758E+01  0.10803721409E+02  0.51100000000E-03 0. -1.
        -11    1    3    3    0    0 -0.62209803021E+01  0.35976546098E+02 -0.11644525861E+02  0.38322414431E+02  0.51100000000E-03 0.  1.
         12    1    3    3    0    0 -0.47453710231E+01 -0.37856068938E+02  0.14686831045E+02  0.40881579076E+02  0.00000000000E+00 0. -1.
</event>
<event>
 7    1  0.2641103E-015  0.9000768E+02  0.7816164E-02  0.1186339E+00
        -11   -1    0    0    0    0  0.00000000000E+00  0.00000000000E+00  0.45593999997E+02  0.45594000000E+02  0.51100000000E-03 0. -1.
         11   -1    0    0    0    0 -0.00000000000E+00 -0.00000000000E+00 -0.45593999997E+02  0.45594000000E+02  0.51100000000E-03 0.  1.
    9900012    2    1    2    0    0  0.54059342563E+00  0.80394512570E+00  0.67422645507E+00  0.90007682107E+02  0.89999942710E+02 0.  0.
        -12    1    1    2    0    0 -0.54059342563E+00 -0.80394512570E+00 -0.67422645507E+00  0.11803178935E+01  0.00000000000E+00 0.  1.
         11    1    3    3    0    0 -0.47266232762E+01  0.30818012657E+02  0.20203029921E+02  0.37151760254E+02  0.51100000000E-03 0. -1.
        -11    1    3    3    0    0  0.28753805033E+00  0.87690745105E+01  0.75531050083E+00  0.88062387042E+01  0.51100000000E-03 0.  1.
        -12    1    3    3    0    0  0.49796786515E+01 -0.38783142041E+02 -0.20284113967E+02  0.44049683149E+02  0.00000000000E+00 0.  1.
</event>
<event>
 7    1  0.2641103E-015  0.9000854E+02  0.7816164E-02  0.1186337E+00
        -11   -1    0    0    0    0  0.00000000000E+00  0.00000000000E+00  0.45593999997E+02  0.45594000000E+02  0.51100000000E-03 0.  1.
         11   -1    0    0    0    0 -0.00000000000E+00 -0.00000000000E+00 -0.45593999997E+02  0.45594000000E+02  0.51100000000E-03 0. -1.
    9900012    2    1    2    0    0 -0.90548440486E+00 -0.74680368367E+00  0.11621576248E+00  0.90008540864E+02  0.90000812800E+02 0.  0.
        -12    1    1    2    0    0  0.90548440486E+00  0.74680368367E+00 -0.11621576248E+00  0.11794591357E+01  0.00000000000E+00 0.  1.
         11    1    3    3    0    0  0.16443852267E+02  0.29652276003E+02  0.12818945866E+02  0.36248905128E+02  0.51100000000E-03 0. -1.
        -11    1    3    3    0    0  0.19395579214E+01  0.74656159455E+01  0.32487645306E+01  0.83696939976E+01  0.51100000000E-03 0.  1.
        -12    1    3    3    0    0 -0.19288894594E+02 -0.37864695633E+02 -0.15951494634E+02  0.45389941739E+02  0.00000000000E+00 0.  1.
</event>
<event>
 7    1  0.2712035E-015  0.9000774E+02  0.7816164E-02  0.1186339E+00
        -11   -1    0    0    0    0  0.00000000000E+00  0.00000000000E+00  0.45593999997E+02  0.45594000000E+02  0.51100000000E-03 0. -1.
         11   -1    0    0    0    0 -0.00000000000E+00 -0.00000000000E+00 -0.45593999997E+02  0.45594000000E+02  0.51100000000E-03 0.  1.
    9900012    2    1    2    0    0  0.96053099943E+00  0.35574566291E+00  0.58637502991E+00  0.90007741362E+02  0.90000002748E+02 0.  0.
        -12    1    1    2    0    0 -0.96053099943E+00 -0.35574566291E+00 -0.58637502991E+00  0.11802586383E+01  0.00000000000E+00 0.  1.
         11    1    3    3    0    0  0.96788938813E+01  0.66384041742E+00  0.26737483872E+01  0.10063329547E+02  0.51100000000E-03 0. -1.
        -11    1    3    3    0    0 -0.28787742839E+02  0.14256674342E+02 -0.29050695008E+02  0.43312005054E+02  0.51100000000E-03 0.  1.
         12    1    3    3    0    0  0.20069379957E+02 -0.14564769096E+02  0.26963321650E+02  0.36632406761E+02  0.00000000000E+00 0. -1.
</event>
<event>
 7    1  0.2641103E-015  0.9000777E+02  0.7816164E-02  0.1186339E+00
        -11   -1    0    0    0    0  0.00000000000E+00  0.00000000000E+00  0.45593999997E+02  0.45594000000E+02  0.51100000000E-03 0.  1.
         11   -1    0    0    0    0 -0.00000000000E+00 -0.00000000000E+00 -0.45593999997E+02  0.45594000000E+02  0.51100000000E-03 0. -1.
    9900012    2    1    2    0    0 -0.10205333994E+01 -0.53907953781E+00 -0.24665629427E+00  0.90007773541E+02  0.90000035352E+02 0.  0.
        -12    1    1    2    0    0  0.10205333994E+01  0.53907953781E+00  0.24665629427E+00  0.11802264591E+01  0.00000000000E+00 0.  1.
         11    1    3    3    0    0 -0.11550327601E+02 -0.84287743061E+00 -0.29708668954E+02  0.31886133684E+02  0.51100000000E-03 0. -1.
        -11    1    3    3    0    0  0.32646593783E+01 -0.11940951880E+02 -0.10162835549E+02  0.16016477744E+02  0.51100000000E-03 0.  1.
        -12    1    3    3    0    0  0.72651348235E+01  0.12244749773E+02  0.39624848208E+02  0.42105162113E+02  0.00000000000E+00 0.  1.
</event>
<event>
 7    1  0.2641103E-015  0.9000755E+02  0.7816164E-02  0.1186339E+00
        -11   -1    0    0    0    0  0.00000000000E+00  0.00000000000E+00  0.45593999997E+02  0.45594000000E+02  0.51100000000E-03 0.  1.
         11   -1    0    0    0    0 -0.00000000000E+00 -0.00000000000E+00 -0.45593999997E+02  0.45594000000E+02  0.51100000000E-03 0. -1.
    9900012    2    1    2    0    0  0.84212766832E+00  0.53296921278E+00 -0.63263084011E+00  0.90007552216E+02  0.89999811105E+02 0.  0.
        -12    1    1    2    0    0 -0.84212766832E+00 -0.53296921278E+00  0.63263084011E+00  0.11804477843E+01  0.00000000000E+00 0.  1.
         11    1    3    3    0    0  0.38526307399E+02  0.13380172661E+01  0.30794056997E+01  0.38672333673E+02  0.51100000000E-03 0. -1.
        -11    1    3    3    0    0  0.34319698850E+01  0.79359255902E+01 -0.34231586096E+01  0.92992121920E+01  0.51100000000E-03 0.  1.
        -12    1    3    3    0    0 -0.41116149616E+02 -0.87409736435E+01 -0.28887793018E+00  0.42036006351E+02  0.00000000000E+00 0.  1.
</event>
<event>
 7    1  0.2641103E-015  0.9000778E+02  0.7816164E-02  0.1186339E+00
        -11   -1    0    0    0    0  0.00000000000E+00  0.00000000000E+00  0.45593999997E+02  0.45594000000E+02  0.51100000000E-03 0. -1.
         11   -1    0    0    0    0 -0.00000000000E+00 -0.00000000000E+00 -0.45593999997E+02  0.45594000000E+02  0.51100000000E-03 0.  1.
    9900012    2    1    2    0    0  0.10556420509E+01  0.39657799678E+00  0.34824387141E+00  0.90007776275E+02  0.90000038122E+02 0.  0.
        -12    1    1    2    0    0 -0.10556420509E+01 -0.39657799678E+00 -0.34824387141E+00  0.11802237251E+01  0.00000000000E+00 0.  1.
         11    1    3    3    0    0 -0.16150882049E+02 -0.91862133353E+01  0.29523238857E+02  0.34883508127E+02  0.51100000000E-03 0. -1.
        -11    1    3    3    0    0 -0.31154389599E+00  0.48541950394E+00  0.10655327590E+02  0.10670927701E+02  0.51100000000E-03 0.  1.
        -12    1    3    3    0    0  0.17518067996E+02  0.90973718282E+01 -0.39830322575E+02  0.44453340447E+02  0.00000000000E+00 0.  1.
</event>
<event>
 7    1  0.2641103E-015  0.9000767E+02  0.7816164E-02  0.1186339E+00
        -11   -1    0    0    0    0  0.00000000000E+00  0.00000000000E+00  0.45593999997E+02  0.45594000000E+02  0.51100000000E-03 0.  1.
         11   -1    0    0    0    0 -0.00000000000E+00 -0.00000000000E+00 -0.45593999997E+02  0.45594000000E+02  0.51100000000E-03 0. -1.
    9900012    2    1    2    0    0 -0.11680638348E+01  0.90859046320E-01 -0.14333737727E+00  0.90007672040E+02  0.89999932511E+02 0.  0.
        -12    1    1    2    0    0  0.11680638348E+01 -0.90859046320E-01  0.14333737727E+00  0.11803279596E+01  0.00000000000E+00 0.  1.
         11    1    3    3    0    0 -0.15345487087E+02 -0.98076558567E+01 -0.34345389101E+02  0.38875182831E+02  0.51100000000E-03 0. -1.
        -11    1    3    3    0    0 -0.79398768191E+01 -0.53630190452E+01  0.31913443998E+01  0.10098925513E+02  0.51100000000E-03 0.  1.
        -12    1    3    3    0    0  0.22117300072E+02  0.15261533948E+02  0.31010707324E+02  0.41033563697E+02  0.00000000000E+00 0.  1.
</event>
<event>
 7    1  0.3472348E-015  0.9000774E+02  0.7816164E-02  0.1186339E+00
        -11   -1    0    0    0    0  0.00000000000E+00  0.00000000000E+00  0.45593999997E+02  0.45594000000E+02  0.51100000000E-03 0. -1.
         11   -1    0    0    0    0 -0.00000000000E+00 -0.00000000000E+00 -0.45593999997E+02  0.45594000000E+02  0.51100000000E-03 0.  1.
    9900012    2    1    2    0    0 -0.58379548545E+00  0.20549652969E+00  0.10049685263E+01  0.90007742515E+02  0.90000003916E+02 0.  0.
        -12    1    1    2    0    0  0.58379548545E+00 -0.20549652969E+00 -0.10049685263E+01  0.11802574852E+01  0.00000000000E+00 0.  1.
         11    1    3    3    0    0 -0.32674793671E+01 -0.60266769770E+01 -0.66934376963E+01  0.95811985291E+01  0.51100000000E-03 0. -1.
        -11    1    3    3    0    0 -0.36102322540E+02  0.43276586405E+01 -0.10058754250E+02  0.37726447744E+02  0.51100000000E-03 0.  1.
         12    1    3    3    0    0  0.38786006421E+02  0.19045148662E+01  0.17757160473E+02  0.42700096242E+02  0.00000000000E+00 0. -1.
</event>
<event>
 7    1  0.3052512E-015  0.9000784E+02  0.7816164E-02  0.1186339E+00
        -11   -1    0    0    0    0  0.00000000000E+00  0.00000000000E+00  0.45593999997E+02  0.45594000000E+02  0.51100000000E-03 0. -1.
         11   -1    0    0    0    0 -0.00000000000E+00 -0.00000000000E+00 -0.45593999997E+02  0.45594000000E+02  0.51100000000E-03 0.  1.
    9900012    2    1    2    0    0 -0.10920661171E+00  0.11745528371E+01 -0.35730847555E-01  0.90007840204E+02  0.90000102894E+02 0.  0.
        -12    1    1    2    0    0  0.10920661171E+00 -0.11745528371E+01  0.35730847555E-01  0.11801597962E+01  0.00000000000E+00 0.  1.
         11    1    3    3    0    0 -0.22874006799E+01 -0.33521637146E+01 -0.81629477937E+01  0.91160803191E+01  0.51100000000E-03 0. -1.
        -11    1    3    3    0    0  0.27414927514E+02  0.26942440245E+02 -0.13572775835E+02  0.40763875933E+02  0.51100000000E-03 0.  1.
         12    1    3    3    0    0 -0.25236733446E+02 -0.22415723693E+02  0.21699992781E+02  0.40127883952E+02  0.00000000000E+00 0. -1.
</event>
<event>
 7    1  0.2641103E-015  0.9000667E+02  0.7816164E-02  0.1186341E+00
        -11   -1    0    0    0    0  0.00000000000E+00  0.00000000000E+00  0.45593999997E+02  0.45594000000E+02  0.51100000000E-03 0.  1.
         11   -1    0    0    0    0 -0.00000000000E+00 -0.00000000000E+00 -0.45593999997E+02  0.45594000000E+02  0.51100000000E-03 0. -1.
    9900012    2    1    2    0    0 -0.72771735608E+00 -0.87790134032E+00 -0.30863940279E+00  0.90006669566E+02  0.89998916798E+02 0.  0.
        -12    1    1    2    0    0  0.72771735608E+00  0.87790134032E+00  0.30863940279E+00  0.11813304341E+01  0.00000000000E+00 0.  1.
         11    1    3    3    0    0  0.14483102992E+01  0.97108158279E+01 -0.35886944888E+01  0.10453529316E+02  0.51100000000E-03 0. -1.
        -11    1    3    3    0    0  0.37067335798E+02 -0.98094334819E+01  0.10246010804E+02  0.39688702499E+02  0.51100000000E-03 0.  1.
         12    1    3    3    0    0 -0.39243363453E+02 -0.77928368626E+00 -0.69659557182E+01  0.39864437751E+02  0.00000000000E+00 0. -1.
</event>
<event>
 7    1  0.2641103E-015  0.9000790E+02  0.7816164E-02  0.1186339E+00
        -11   -1    0    0    0    0  0.00000000000E+00  0.00000000000E+00  0.45593999997E+02  0.45594000000E+02  0.51100000000E-03 0. -1.
         11   -1    0    0    0    0 -0.00000000000E+00 -0.00000000000E+00 -0.45593999997E+02  0.45594000000E+02  0.51100000000E-03 0.  1.
    9900012    2    1    2    0    0  0.57666938559E+00  0.65356474225E+00  0.79557494811E+00  0.90007900873E+02  0.90000164364E+02 0.  0.
        -12    1    1    2    0    0 -0.57666938559E+00 -0.65356474225E+00 -0.79557494811E+00  0.11800991275E+01  0.00000000000E+00 0.  1.
         11    1    3    3    0    0 -0.49523936726E+01 -0.52560200550E+01 -0.64128088380E+01  0.96579535805E+01  0.51100000000E-03 0. -1.
        -11    1    3    3    0    0 -0.10899416594E+02  0.11309362503E+02 -0.33018258003E+02  0.36563702276E+02  0.51100000000E-03 0.  1.
         12    1    3    3    0    0  0.16428479652E+02 -0.53997777057E+01  0.40226641789E+02  0.43786245016E+02  0.00000000000E+00 0. -1.
</event>
<event>
 7    1  0.2641103E-015  0.9000776E+02  0.7816164E-02  0.1186339E+00
        -11   -1    0    0    0    0  0.00000000000E+00  0.00000000000E+00  0.45593999997E+02  0.45594000000E+02  0.51100000000E-03 0.  1.
         11   -1    0    0    0    0 -0.00000000000E+00 -0.00000000000E+00 -0.45593999997E+02  0.45594000000E+02  0.51100000000E-03 0. -1.
    9900012    2    1    2    0    0 -0.39086490100E+00 -0.10084673536E+01  0.47241859955E+00  0.90007762267E+02  0.90000023929E+02 0.  0.
        -12    1    1    2    0    0  0.39086490100E+00  0.10084673536E+01 -0.47241859955E+00  0.11802377334E+01  0.00000000000E+00 0.  1.
         11    1    3    3    0    0  0.52828884676E+01 -0.75011047001E+01 -0.11136558477E+00  0.91753956230E+01  0.51100000000E-03 0. -1.
        -11    1    3    3    0    0  0.37067411350E+02  0.76142309101E+01  0.33351071591E+01  0.37988056499E+02  0.51100000000E-03 0.  1.
         12    1    3    3    0    0 -0.42741164719E+02 -0.11215935636E+01 -0.27513229747E+01  0.42844310145E+02  0.00000000000E+00 0. -1.
</event>
<event>
 7    1  0.2641103E-015  0.9000777E+02  0.7816164E-02  0.1186339E+00
        -11   -1    0    0    0    0  0.00000000000E+00  0.00000000000E+00  0.45593999997E+02  0.45594000000E+02  0.51100000000E-03 0.  1.
         11   -1    0    0    0    0 -0.00000000000E+00 -0.00000000000E+00 -0.45593999997E+02  0.45594000000E+02  0.51100000000E-03 0. -1.
    9900012    2    1    2    0    0  0.70435868667E+00  0.91525705801E+00 -0.24316510650E+00  0.90007768705E+02  0.90000030451E+02 0.  0.
        -12    1    1    2    0    0 -0.70435868667E+00 -0.91525705801E+00  0.24316510650E+00  0.11802312954E+01  0.00000000000E+00 0.  1.
         11    1    3    3    0    0  0.28085030854E+02 -0.71280310853E+01 -0.29560262346E+02  0.41393077869E+02  0.51100000000E-03 0. -1.
        -11    1    3    3    0    0  0.23816463370E+01  0.85135537599E+01  0.48497206664E+01  0.10083284569E+02  0.51100000000E-03 0.  1.
        -12    1    3    3    0    0 -0.29762318504E+02 -0.47026561651E+00  0.24467376573E+02  0.38531406267E+02  0.00000000000E+00 0.  1.
</event>
<event>
 7    1  0.2641103E-015  0.9000771E+02  0.7816164E-02  0.1186339E+00
        -11   -1    0    0    0    0  0.00000000000E+00  0.00000000000E+00  0.45593999997E+02  0.45594000000E+02  0.51100000000E-03 0. -1.
         11   -1    0    0    0    0 -0.00000000000E+00 -0.00000000000E+00 -0.45593999997E+02  0.45594000000E+02  0.51100000000E-03 0.  1.
    9900012    2    1    2    0    0  0.26909176322E+00  0.33328179243E+00  0.10998159548E+01  0.90007710940E+02  0.89999971925E+02 0.  0.
        -12    1    1    2    0    0 -0.26909176322E+00 -0.33328179243E+00 -0.10998159548E+01  0.11802890598E+01  0.00000000000E+00 0.  1.
         11    1    3    3    0    0  0.75809817236E+01 -0.23719428597E+00 -0.51571766694E+01  0.91719145484E+01  0.51100000000E-03 0. -1.
        -11    1    3    3    0    0  0.27508930303E+02 -0.25161251645E+02  0.36998849483E+01  0.37463568698E+02  0.51100000000E-03 0.  1.
         12    1    3    3    0    0 -0.34820820263E+02  0.25731727723E+02  0.25571076759E+01  0.43372227693E+02  0.00000000000E+00 0. -1.
</event>
<event>
 7    1  0.2641103E-015  0.9000771E+02  0.7816164E-02  0.1186339E+00
        -11   -1    0    0    0    0  0.00000000000E+00  0.00000000000E+00  0.45593999997E+02  0.45594000000E+02  0.51100000000E-03 0. -1.
         11   -1    0    0    0    0 -0.00000000000E+00 -0.00000000000E+00 -0.45593999997E+02  0.45594000000E+02  0.51100000000E-03 0.  1.
    9900012    2    1    2    0    0 -0.95118318582E-01 -0.11277408943E+01 -0.33500698934E+00  0.90007713297E+02  0.89999974312E+02 0.  0.
        -12    1    1    2    0    0  0.95118318582E-01  0.11277408943E+01  0.33500698934E+00  0.11802867033E+01  0.00000000000E+00 0.  1.
         11    1    3    3    0    0 -0.47875858145E-01 -0.10130887721E+02  0.71406440129E+00  0.10156134419E+02  0.51100000000E-03 0. -1.
        -11    1    3    3    0    0 -0.86402721505E+01 -0.20434389203E+02 -0.30245178792E+02  0.37509857442E+02  0.51100000000E-03 0.  1.
         12    1    3    3    0    0  0.85930296901E+01  0.29437536030E+02  0.29196107401E+02  0.42341721435E+02  0.00000000000E+00 0. -1.
</event>
<event>
 7    1  0.2641103E-015  0.9000781E+02  0.7816164E-02  0.1186339E+00
        -11   -1    0    0    0    0  0.00000000000E+00  0.00000000000E+00  0.45593999997E+02  0.45594000000E+02  0.51100000000E-03 0.  1.
         11   -1    0    0    0    0 -0.00000000000E+00 -0.00000000000E+00 -0.45593999997E+02  0.45594000000E+02  0.51100000000E-03 0. -1.
    9900012    2    1    2    0    0 -0.39557997902E+00 -0.11110997132E+01 -0.42774173867E-01  0.90007806913E+02  0.90000069164E+02 0.  0.
        -12    1    1    2    0    0  0.39557997902E+00  0.11110997132E+01  0.42774173867E-01  0.11801930869E+01  0.00000000000E+00 0.  1.
         11    1    3    3    0    0 -0.17475516284E+02 -0.49996843083E+00 -0.35363907554E+02  0.39449329469E+02  0.51100000000E-03 0. -1.
        -11    1    3    3    0    0 -0.41604715355E+01 -0.17963191231E+01 -0.38742736622E+01  0.59620703166E+01  0.51100000000E-03 0.  1.
        -12    1    3    3    0    0  0.21240407841E+02  0.11851878407E+01  0.39195407042E+02  0.44596407127E+02  0.00000000000E+00 0.  1.
</event>
<event>
 7    1  0.2641103E-015  0.9000776E+02  0.7816164E-02  0.1186339E+00
        -11   -1    0    0    0    0  0.00000000000E+00  0.00000000000E+00  0.45593999997E+02  0.45594000000E+02  0.51100000000E-03 0.  1.
         11   -1    0    0    0    0 -0.00000000000E+00 -0.00000000000E+00 -0.45593999997E+02  0.45594000000E+02  0.51100000000E-03 0. -1.
    9900012    2    1    2    0    0 -0.65943724086E+00 -0.35205136609E+00 -0.91332823896E+00  0.90007760147E+02  0.90000021781E+02 0.  0.
        -12    1    1    2    0    0  0.65943724086E+00  0.35205136609E+00  0.91332823896E+00  0.11802398532E+01  0.00000000000E+00 0.  1.
         11    1    3    3    0    0  0.97553963484E+01 -0.10362136957E+01 -0.18395807655E+01  0.99812601605E+01  0.51100000000E-03 0. -1.
        -11    1    3    3    0    0  0.30873240589E+02 -0.21154666061E+01  0.17380453098E+02  0.35492426425E+02  0.51100000000E-03 0.  1.
         12    1    3    3    0    0 -0.41288074178E+02  0.27996289357E+01 -0.16454200572E+02  0.44534073561E+02  0.00000000000E+00 0. -1.
</event>
<event>
 7    1  0.2641103E-015  0.9000794E+02  0.7816164E-02  0.1186339E+00
        -11   -1    0    0    0    0  0.00000000000E+00  0.00000000000E+00  0.45593999997E+02  0.45594000000E+02  0.51100000000E-03 0.  1.
         11   -1    0    0    0    0 -0.00000000000E+00 -0.00000000000E+00 -0.45593999997E+02  0.45594000000E+02  0.51100000000E-03 0. -1.
    9900012    2    1    2    0    0  0.22650896697E+00 -0.11578409534E+01  0.25090332972E-01  0.90007944277E+02  0.90000208341E+02 0.  0.
        -12    1    1    2    0    0 -0.22650896697E+00  0.11578409534E+01 -0.25090332972E-01  0.11800557234E+01  0.00000000000E+00 0.  1.
         11    1    3    3    0    0  0.18461733301E+02  0.20446487281E+02 -0.27811170091E+02  0.39145314160E+02  0.51100000000E-03 0. -1.
        -11    1    3    3    0    0 -0.48463597523E+01  0.82251465406E+01  0.37704916673E+01  0.10264348306E+02  0.51100000000E-03 0.  1.
        -12    1    3    3    0    0 -0.13388864582E+02 -0.29829474775E+02  0.24065768756E+02  0.40598281811E+02  0.00000000000E+00 0.  1.
</event>
<event>
 7    1  0.2641103E-015  0.9000745E+02  0.7816164E-02  0.1186340E+00
        -11   -1    0    0    0    0  0.00000000000E+00  0.00000000000E+00  0.45593999997E+02  0.45594000000E+02  0.51100000000E-03 0.  1.
         11   -1    0    0    0    0 -0.00000000000E+00 -0.00000000000E+00 -0.45593999997E+02  0.45594000000E+02  0.51100000000E-03 0. -1.
    9900012    2    1    2    0    0 -0.11652323756E+01  0.91781864170E-01  0.16583407247E+00  0.90007452949E+02  0.89999710528E+02 0.  0.
        -12    1    1    2    0    0  0.11652323756E+01 -0.91781864170E-01 -0.16583407247E+00  0.11805470509E+01  0.00000000000E+00 0.  1.
         11    1    3    3    0    0  0.24092846519E+02  0.16892716845E+02 -0.24649113488E+02  0.38384996181E+02  0.51100000000E-03 0. -1.
        -11    1    3    3    0    0  0.39734972389E+01  0.33470794353E+01 -0.34551408381E+01  0.62393605062E+01  0.51100000000E-03 0.  1.
        -12    1    3    3    0    0 -0.29231576134E+02 -0.20148014417E+02  0.28270088399E+02  0.45383096262E+02  0.00000000000E+00 0.  1.
</event>
<event>
 7    1  0.2641103E-015  0.9000775E+02  0.7816164E-02  0.1186339E+00
        -11   -1    0    0    0    0  0.00000000000E+00  0.00000000000E+00  0.45593999997E+02  0.45594000000E+02  0.51100000000E-03 0. -1.
         11   -1    0    0    0    0 -0.00000000000E+00 -0.00000000000E+00 -0.45593999997E+02  0.45594000000E+02  0.51100000000E-03 0.  1.
    9900012    2    1    2    0    0 -0.44966208305E+00 -0.77080957890E+00  0.77242467992E+00  0.90007752872E+02  0.90000014410E+02 0.  0.
        -12    1    1    2    0    0  0.44966208305E+00  0.77080957890E+00 -0.77242467992E+00  0.11802471275E+01  0.00000000000E+00 0.  1.
         11    1    3    3    0    0 -0.27487881117E+02 -0.24551830183E+02  0.38103851754E+01  0.37052597872E+02  0.51100000000E-03 0. -1.
        -11    1    3    3    0    0  0.42868011653E+00 -0.85769544410E+01  0.55027976785E+01  0.10199445900E+02  0.51100000000E-03 0.  1.
        -12    1    3    3    0    0  0.26609538918E+02  0.32357975045E+02 -0.85407581739E+01  0.42755709100E+02  0.00000000000E+00 0.  1.
</event>
<event>
 7    1  0.2641103E-015  0.9000775E+02  0.7816164E-02  0.1186339E+00
        -11   -1    0    0    0    0  0.00000000000E+00  0.00000000000E+00  0.45593999997E+02  0.45594000000E+02  0.51100000000E-03 0.  1.
         11   -1    0    0    0    0 -0.00000000000E+00 -0.00000000000E+00 -0.45593999997E+02  0.45594000000E+02  0.51100000000E-03 0. -1.
    9900012    2    1    2    0    0 -0.65287567313E+00 -0.35103372490E+00 -0.91843571310E+00  0.90007747705E+02  0.90000009175E+02 0.  0.
        -12    1    1    2    0    0  0.65287567313E+00  0.35103372490E+00  0.91843571310E+00  0.11802522949E+01  0.00000000000E+00 0.  1.
         11    1    3    3    0    0  0.59177319503E+01 -0.52306152997E+01  0.25273244970E+01  0.82925422653E+01  0.51100000000E-03 0. -1.
        -11    1    3    3    0    0  0.22744435864E+02 -0.27314236633E+02  0.85382696633E+01  0.36555149223E+02  0.51100000000E-03 0.  1.
         12    1    3    3    0    0 -0.29315043488E+02  0.32193818208E+02 -0.11984029873E+02  0.45160056217E+02  0.00000000000E+00 0. -1.
</event>
<event>
 7    1  0.2641103E-015  0.9000770E+02  0.7816164E-02  0.1186339E+00
        -11   -1    0    0    0    0  0.00000000000E+00  0.00000000000E+00  0.45593999997E+02  0.45594000000E+02  0.51100000000E-03 0.  1.
         11   -1    0    0    0    0 -0.00000000000E+00 -0.00000000000E+00 -0.45593999997E+02  0.45594000000E+02  0.51100000000E-03 0. -1.
    9900012    2    1    2    0    0 -0.72982337316E+00 -0.91729745245E+00 -0.13798858602E+00  0.90007695962E+02  0.89999956749E+02 0.  0.
        -12    1    1    2    0    0  0.72982337316E+00  0.91729745245E+00  0.13798858602E+00  0.11803040380E+01  0.00000000000E+00 0.  1.
         11    1    3    3    0    0 -0.59865824039E+01 -0.18273493732E+02 -0.34107251056E+02  0.39154365234E+02  0.51100000000E-03 0. -1.
        -11    1    3    3    0    0 -0.56532144090E+01 -0.50888691913E+01 -0.12296983878E+01  0.77050360924E+01  0.51100000000E-03 0.  1.
        -12    1    3    3    0    0  0.10909973440E+02  0.22445065471E+02  0.35198960858E+02  0.43148294635E+02  0.00000000000E+00 0.  1.
</event>
<event>
 7    1  0.2641103E-015  0.9000779E+02  0.7816164E-02  0.1186339E+00
        -11   -1    0    0    0    0  0.00000000000E+00  0.00000000000E+00  0.45593999997E+02  0.45594000000E+02  0.51100000000E-03 0.  1.
         11   -1    0    0    0    0 -0.00000000000E+00 -0.00000000000E+00 -0.45593999997E+02  0.45594000000E+02  0.51100000000E-03 0. -1.
    9900012    2    1    2    0    0 -0.73429986114E+00 -0.91693811610E+00  0.11370534330E+00  0.90007787858E+02  0.90000049858E+02 0.  0.
        -12    1    1    2    0    0  0.73429986114E+00  0.91693811610E+00 -0.11370534330E+00  0.11802121419E+01  0.00000000000E+00 0.  1.
         11    1    3    3    0    0 -0.11822084389E+02 -0.59948969783E+00 -0.39482587510E+01  0.12478373877E+02  0.51100000000E-03 0. -1.
        -11    1    3    3    0    0 -0.18567904262E+02 -0.27721001146E+02  0.13615654904E+02  0.36036190586E+02  0.51100000000E-03 0.  1.
         12    1    3    3    0    0  0.29655688789E+02  0.27403552727E+02 -0.95536908099E+01  0.41493223395E+02  0.00000000000E+00 0. -1.
</event>
<event>
 7    1  0.2641103E-015  0.9000768E+02  0.7816164E-02  0.1186339E+00
        -11   -1    0    0    0    0  0.00000000000E+00  0.00000000000E+00  0.45593999997E+02  0.45594000000E+02  0.51100000000E-03 0.  1.
         11   -1    0    0    0    0 -0.00000000000E+00 -0.00000000000E+00 -0.45593999997E+02  0.45594000000E+02  0.51100000000E-03 0. -1.
    9900012    2    1    2    0    0 -0.10877329482E+01 -0.29668019190E+00 -0.34923628367E+00  0.90007683058E+02  0.89999943674E+02 0.  0.
        -12    1    1    2    0    0  0.10877329482E+01  0.29668019190E+00  0.34923628367E+00  0.11803169424E+01  0.00000000000E+00 0.  1.
         11    1    3    3    0    0 -0.85889333074E+01 -0.36096521641E+01  0.71213733658E+00  0.93437949438E+01  0.51100000000E-03 0. -1.
        -11    1    3    3    0    0  0.30795802969E+02 -0.27686379365E+02 -0.48890907779E+01  0.41699164161E+02  0.51100000000E-03 0.  1.
         12    1    3    3    0    0 -0.23294602610E+02  0.30999351337E+02  0.38277171576E+01  0.38964723953E+02  0.00000000000E+00 0. -1.
</event>
<event>
 8    1  0.2641103E-015  0.9000773E+02  0.7816164E-02  0.1186339E+00
        -11   -1    0    0    0    0  0.00000000000E+00  0.00000000000E+00  0.45593999997E+02  0.45594000000E+02  0.51100000000E-03 0. -1.
         11   -1    0    0    0    0 -0.00000000000E+00 -0.00000000000E+00 -0.45593999997E+02  0.45594000000E+02  0.51100000000E-03 0.  1.
    9900012    2    1    2    0    0 -0.39428797328E+00 -0.76380526362E+00  0.80881477960E+00  0.90007727644E+02  0.89999988849E+02 0.  0.
         23    2    3    3    0    0 -0.73976073333E+01 -0.20252325321E+02  0.24425367426E+01  0.69234717666E+02  0.65746474197E+02 0.  0.
        -12    1    1    2    0    0  0.39428797328E+00  0.76380526362E+00 -0.80881477960E+00  0.11802723560E+01  0.00000000000E+00 0.  1.
         11    1    4    4    0    0 -0.27204345422E+02 -0.35096064701E+02  0.26222790668E+01  0.44482429285E+02  0.51100000000E-03 0.  1.
        -11    1    4    4    0    0  0.19806738089E+02  0.14843739380E+02 -0.17974232419E+00  0.24752288380E+02  0.51100000000E-03 0. -1.
        -12    1    3    3    0    0  0.70033193600E+01  0.19488520058E+02 -0.16337219630E+01  0.20773009978E+02  0.00000000000E+00 0.  1.
</event>
<event>
 7    1  0.2641103E-015  0.9000776E+02  0.7816164E-02  0.1186339E+00
        -11   -1    0    0    0    0  0.00000000000E+00  0.00000000000E+00  0.45593999997E+02  0.45594000000E+02  0.51100000000E-03 0.  1.
         11   -1    0    0    0    0 -0.00000000000E+00 -0.00000000000E+00 -0.45593999997E+02  0.45594000000E+02  0.51100000000E-03 0. -1.
    9900012    2    1    2    0    0 -0.94978118010E+00  0.68619043075E+00 -0.14153185556E+00  0.90007757286E+02  0.90000018882E+02 0.  0.
        -12    1    1    2    0    0  0.94978118010E+00 -0.68619043075E+00  0.14153185556E+00  0.11802427138E+01  0.00000000000E+00 0.  1.
         11    1    3    3    0    0 -0.22234017828E+02 -0.19303654620E+02 -0.19557063312E+02  0.35347720663E+02  0.51100000000E-03 0. -1.
        -11    1    3    3    0    0 -0.10299219734E+02  0.13600527417E+01 -0.40231450215E+01  0.11140438354E+02  0.51100000000E-03 0.  1.
        -12    1    3    3    0    0  0.31583456381E+02  0.18629792309E+02  0.23438676478E+02  0.43519598269E+02  0.00000000000E+00 0.  1.
</event>
<event>
 7    1  0.2641103E-015  0.9000773E+02  0.7816164E-02  0.1186339E+00
        -11   -1    0    0    0    0  0.00000000000E+00  0.00000000000E+00  0.45593999997E+02  0.45594000000E+02  0.51100000000E-03 0. -1.
         11   -1    0    0    0    0 -0.00000000000E+00 -0.00000000000E+00 -0.45593999997E+02  0.45594000000E+02  0.51100000000E-03 0.  1.
    9900012    2    1    2    0    0 -0.75030674849E+00 -0.65883631641E+00  0.62929978062E+00  0.90007727268E+02  0.89999988468E+02 0.  0.
        -12    1    1    2    0    0  0.75030674849E+00  0.65883631641E+00 -0.62929978062E+00  0.11802727323E+01  0.00000000000E+00 0.  1.
         11    1    3    3    0    0 -0.96197829397E+01 -0.51478471346E+01 -0.69036366282E+00  0.10932390232E+02  0.51100000000E-03 0. -1.
        -11    1    3    3    0    0 -0.17784521330E+02  0.33576238317E+02 -0.73045065079E+01  0.38691197888E+02  0.51100000000E-03 0.  1.
         12    1    3    3    0    0  0.26653997521E+02 -0.29087227498E+02  0.86241699513E+01  0.40384139148E+02  0.00000000000E+00 0. -1.
</event>
<event>
 7    1  0.2641103E-015  0.9000772E+02  0.7816164E-02  0.1186339E+00
        -11   -1    0    0    0    0  0.00000000000E+00  0.00000000000E+00  0.45593999997E+02  0.45594000000E+02  0.51100000000E-03 0.  1.
         11   -1    0    0    0    0 -0.00000000000E+00 -0.00000000000E+00 -0.45593999997E+02  0.45594000000E+02  0.51100000000E-03 0. -1.
    9900012    2    1    2    0    0  0.78841552021E+00  0.19057280634E+00  0.85740233659E+00  0.90007722154E+02  0.89999983286E+02 0.  0.
        -12    1    1    2    0    0 -0.78841552021E+00 -0.19057280634E+00 -0.85740233659E+00  0.11802778460E+01  0.00000000000E+00 0.  1.
         11    1    3    3    0    0 -0.37154836790E+02 -0.30270255194E+01 -0.15297124777E+02  0.40294500953E+02  0.51100000000E-03 0. -1.
        -11    1    3    3    0    0  0.30672425905E+01 -0.93248656552E+01  0.18694923464E+01  0.99928023342E+01  0.51100000000E-03 0.  1.
        -12    1    3    3    0    0  0.34876009719E+02  0.12542463981E+02  0.14285034767E+02  0.39720418867E+02  0.00000000000E+00 0.  1.
</event>
<event>
 7    1  0.2641103E-015  0.9000769E+02  0.7816164E-02  0.1186339E+00
        -11   -1    0    0    0    0  0.00000000000E+00  0.00000000000E+00  0.45593999997E+02  0.45594000000E+02  0.51100000000E-03 0.  1.
         11   -1    0    0    0    0 -0.00000000000E+00 -0.00000000000E+00 -0.45593999997E+02  0.45594000000E+02  0.51100000000E-03 0. -1.
    9900012    2    1    2    0    0 -0.61559184099E+00 -0.94177277457E+00 -0.35672064793E+00  0.90007686951E+02  0.89999947618E+02 0.  0.
        -12    1    1    2    0    0  0.61559184099E+00  0.94177277457E+00  0.35672064793E+00  0.11803130493E+01  0.00000000000E+00 0.  1.
         11    1    3    3    0    0 -0.93306336020E+01 -0.34846653435E+02  0.93597993421E+00  0.36086369140E+02  0.51100000000E-03 0. -1.
        -11    1    3    3    0    0 -0.12627257011E+02 -0.13394782471E+01 -0.61827780897E+00  0.12713146318E+02  0.51100000000E-03 0.  1.
        -12    1    3    3    0    0  0.21342298772E+02  0.35244358907E+02 -0.67442277317E+00  0.41208171492E+02  0.00000000000E+00 0.  1.
</event>
<event>
 7    1  0.2641103E-015  0.9000767E+02  0.7816164E-02  0.1186339E+00
        -11   -1    0    0    0    0  0.00000000000E+00  0.00000000000E+00  0.45593999997E+02  0.45594000000E+02  0.51100000000E-03 0. -1.
         11   -1    0    0    0    0 -0.00000000000E+00 -0.00000000000E+00 -0.45593999997E+02  0.45594000000E+02  0.51100000000E-03 0.  1.
    9900012    2    1    2    0    0 -0.24579870796E+00  0.29575323022E+00  0.11159258364E+01  0.90007670618E+02  0.89999931070E+02 0.  0.
        -12    1    1    2    0    0  0.24579870796E+00 -0.29575323022E+00 -0.11159258364E+01  0.11803293822E+01  0.00000000000E+00 0.  1.
         11    1    3    3    0    0 -0.34897608484E+02 -0.14125626744E+01  0.25964879917E+02  0.43520264252E+02  0.51100000000E-03 0. -1.
        -11    1    3    3    0    0  0.10472088494E+02 -0.20697820599E+01  0.12043182639E+01  0.10742393492E+02  0.51100000000E-03 0.  1.
        -12    1    3    3    0    0  0.24179721282E+02  0.37780979646E+01 -0.26053272344E+02  0.35745012874E+02  0.00000000000E+00 0.  1.
</event>
<event>
 7    1  0.2641103E-015  0.9000773E+02  0.7816164E-02  0.1186339E+00
        -11   -1    0    0    0    0  0.00000000000E+00  0.00000000000E+00  0.45593999997E+02  0.45594000000E+02  0.51100000000E-03 0. -1.
         11   -1    0    0    0    0 -0.00000000000E+00 -0.00000000000E+00 -0.45593999997E+02  0.45594000000E+02  0.51100000000E-03 0.  1.
    9900012    2    1    2    0    0 -0.28942054584E+00 -0.86148391348E+00  0.75307980590E+00  0.90007725464E+02  0.89999986640E+02 0.  0.
        -12    1    1    2    0    0  0.28942054584E+00  0.86148391348E+00 -0.75307980590E+00  0.11802745357E+01  0.00000000000E+00 0.  1.
         11    1    3    3    0    0  0.27059249341E+00 -0.10245879654E+02  0.31121953757E+01  0.10711537261E+02  0.51100000000E-03 0. -1.
        -11    1    3    3    0    0 -0.35738300152E+02 -0.48820903757E+01  0.13005981475E+02  0.38343401760E+02  0.51100000000E-03 0.  1.
         12    1    3    3    0    0  0.35178287112E+02  0.14266486116E+02 -0.15365097044E+02  0.40952786443E+02  0.00000000000E+00 0. -1.
</event>
<event>
 7    1  0.2641103E-015  0.9000776E+02  0.7816164E-02  0.1186339E+00
        -11   -1    0    0    0    0  0.00000000000E+00  0.00000000000E+00  0.45593999997E+02  0.45594000000E+02  0.51100000000E-03 0. -1.
         11   -1    0    0    0    0 -0.00000000000E+00 -0.00000000000E+00 -0.45593999997E+02  0.45594000000E+02  0.51100000000E-03 0.  1.
    9900012    2    1    2    0    0 -0.46376202245E+00  0.21123916127E+00  0.10645504145E+01  0.90007760710E+02  0.90000022351E+02 0.  0.
        -12    1    1    2    0    0  0.46376202245E+00 -0.21123916127E+00 -0.10645504145E+01  0.11802392900E+01  0.00000000000E+00 0.  1.
         11    1    3    3    0    0  0.39373686451E+01 -0.23747874087E+01 -0.72569666503E+01  0.85910448904E+01  0.51100000000E-03 0. -1.
        -11    1    3    3    0    0  0.11115296751E+02  0.34868087041E+02 -0.14033623456E+02  0.39195355635E+02  0.51100000000E-03 0.  1.
         12    1    3    3    0    0 -0.15516427418E+02 -0.32282060472E+02  0.22355140521E+02  0.42221360185E+02  0.00000000000E+00 0. -1.
</event>
<event>
 7    1  0.2641103E-015  0.9000779E+02  0.7816164E-02  0.1186339E+00
        -11   -1    0    0    0    0  0.00000000000E+00  0.00000000000E+00  0.45593999997E+02  0.45594000000E+02  0.51100000000E-03 0.  1.
         11   -1    0    0    0    0 -0.00000000000E+00 -0.00000000000E+00 -0.45593999997E+02  0.45594000000E+02  0.51100000000E-03 0. -1.
    9900012    2    1    2    0    0  0.89997385143E+00  0.70643296343E+00 -0.28962874269E+00  0.90007794393E+02  0.90000056479E+02 0.  0.
        -12    1    1    2    0    0 -0.89997385143E+00 -0.70643296343E+00  0.28962874269E+00  0.11802056065E+01  0.00000000000E+00 0.  1.
         11    1    3    3    0    0  0.18797328441E+02  0.28538798190E+02 -0.19636937755E+02  0.39413346512E+02  0.51100000000E-03 0. -1.
        -11    1    3    3    0    0 -0.83270502406E+01  0.49804098514E+01 -0.25115144679E+01  0.10022572184E+02  0.51100000000E-03 0.  1.
        -12    1    3    3    0    0 -0.95703043492E+01 -0.32812775078E+02  0.21858823480E+02  0.40571875697E+02  0.00000000000E+00 0.  1.
</event>
<event>
 7    1  0.2641103E-015  0.9000767E+02  0.7816164E-02  0.1186339E+00
        -11   -1    0    0    0    0  0.00000000000E+00  0.00000000000E+00  0.45593999997E+02  0.45594000000E+02  0.51100000000E-03 0.  1.
         11   -1    0    0    0    0 -0.00000000000E+00 -0.00000000000E+00 -0.45593999997E+02  0.45594000000E+02  0.51100000000E-03 0. -1.
    9900012    2    1    2    0    0 -0.63482497849E+00  0.82790089165E+00 -0.55205108253E+00  0.90007668251E+02  0.89999928672E+02 0.  0.
        -12    1    1    2    0    0  0.63482497849E+00 -0.82790089165E+00  0.55205108253E+00  0.11803317489E+01  0.00000000000E+00 0.  1.
         11    1    3    3    0    0  0.55188012906E+01  0.63819868901E+01 -0.55444708853E+01  0.10095943839E+02  0.51100000000E-03 0. -1.
        -11    1    3    3    0    0  0.26839739540E+02  0.20568782167E+02  0.14460271226E+02  0.36776974625E+02  0.51100000000E-03 0.  1.
         12    1    3    3    0    0 -0.32993365809E+02 -0.26122868165E+02 -0.94678514229E+01  0.43134749787E+02  0.00000000000E+00 0. -1.
</event>
<event>
 7    1  0.2641103E-015  0.9000772E+02  0.7816164E-02  0.1186339E+00
        -11   -1    0    0    0    0  0.00000000000E+00  0.00000000000E+00  0.45593999997E+02  0.45594000000E+02  0.51100000000E-03 0. -1.
         11   -1    0    0    0    0 -0.00000000000E+00 -0.00000000000E+00 -0.45593999997E+02  0.45594000000E+02  0.51100000000E-03 0.  1.
    9900012    2    1    2    0    0  0.13436477906E+00 -0.60185875672E+00  0.10063606029E+01  0.90007724812E+02  0.89999985979E+02 0.  0.
        -12    1    1    2    0    0 -0.13436477906E+00  0.60185875672E+00 -0.10063606029E+01  0.11802751883E+01  0.00000000000E+00 0.  1.
         11    1    3    3    0    0 -0.33263154430E+02  0.11390979521E+02  0.68590849607E+01  0.35822324099E+02  0.51100000000E-03 0. -1.
        -11    1    3    3    0    0 -0.82281212200E+01 -0.75477514961E+01  0.26326613204E+01  0.11471766967E+02  0.51100000000E-03 0.  1.
        -12    1    3    3    0    0  0.41625640429E+02 -0.44450867819E+01 -0.84853856781E+01  0.42713633746E+02  0.00000000000E+00 0.  1.
</event>
<event>
 7    1  0.2641103E-015  0.9000783E+02  0.7816164E-02  0.1186339E+00
        -11   -1    0    0    0    0  0.00000000000E+00  0.00000000000E+00  0.45593999997E+02  0.45594000000E+02  0.51100000000E-03 0.  1.
         11   -1    0    0    0    0 -0.00000000000E+00 -0.00000000000E+00 -0.45593999997E+02  0.45594000000E+02  0.51100000000E-03 0. -1.
    9900012    2    1    2    0    0 -0.29419497932E+00  0.10529138719E+01 -0.44454300305E+00  0.90007831881E+02  0.90000094462E+02 0.  0.
        -12    1    1    2    0    0  0.29419497932E+00 -0.10529138719E+01  0.44454300305E+00  0.11801681190E+01  0.00000000000E+00 0.  1.
         11    1    3    3    0    0 -0.19839745087E+02  0.51157868788E+01 -0.32808460790E+02  0.38680510082E+02  0.51100000000E-03 0. -1.
        -11    1    3    3    0    0 -0.55175792316E+01  0.15727031886E+01 -0.38629944565E+01  0.69166322968E+01  0.51100000000E-03 0.  1.
        -12    1    3    3    0    0  0.25063129340E+02 -0.56355761955E+01  0.36226912244E+02  0.44410689502E+02  0.00000000000E+00 0.  1.
</event>
<event>
 7    1  0.2641103E-015  0.9000772E+02  0.7816164E-02  0.1186339E+00
        -11   -1    0    0    0    0  0.00000000000E+00  0.00000000000E+00  0.45593999997E+02  0.45594000000E+02  0.51100000000E-03 0. -1.
         11   -1    0    0    0    0 -0.00000000000E+00 -0.00000000000E+00 -0.45593999997E+02  0.45594000000E+02  0.51100000000E-03 0.  1.
    9900012    2    1    2    0    0  0.32788436725E+00 -0.10980559392E+01 -0.28254988790E+00  0.90007716372E+02  0.89999977428E+02 0.  0.
        -12    1    1    2    0    0 -0.32788436725E+00  0.10980559392E+01  0.28254988790E+00  0.11802836282E+01  0.00000000000E+00 0.  1.
         11    1    3    3    0    0 -0.21830821974E+02  0.29124156695E+02  0.91778118245E+01  0.37537095271E+02  0.51100000000E-03 0. -1.
        -11    1    3    3    0    0 -0.33485642332E+01  0.39704461570E+00  0.82111423932E+01  0.88765638912E+01  0.51100000000E-03 0.  1.
        -12    1    3    3    0    0  0.25507270574E+02 -0.30619257250E+02 -0.17671504106E+02  0.43594057210E+02  0.00000000000E+00 0.  1.
</event>
<event>
 7    1  0.2641103E-015  0.9000773E+02  0.7816164E-02  0.1186339E+00
        -11   -1    0    0    0    0  0.00000000000E+00  0.00000000000E+00  0.45593999997E+02  0.45594000000E+02  0.51100000000E-03 0. -1.
         11   -1    0    0    0    0 -0.00000000000E+00 -0.00000000000E+00 -0.45593999997E+02  0.45594000000E+02  0.51100000000E-03 0.  1.
    9900012    2    1    2    0    0 -0.10391709250E+01 -0.28894696662E+00  0.47924068544E+00  0.90007729609E+02  0.89999990840E+02 0.  0.
        -12    1    1    2    0    0  0.10391709250E+01  0.28894696662E+00 -0.47924068544E+00  0.11802703908E+01  0.00000000000E+00 0.  1.
         11    1    3    3    0    0  0.15497446938E+02  0.21093601237E+02  0.24027761642E+02  0.35530890849E+02  0.51100000000E-03 0. -1.
        -11    1    3    3    0    0 -0.28523613808E+00  0.41435098088E+01  0.90747540460E+01  0.99800398018E+01  0.51100000000E-03 0.  1.
        -12    1    3    3    0    0 -0.16251381725E+02 -0.25526058013E+02 -0.32623275003E+02  0.44496798958E+02  0.00000000000E+00 0.  1.
</event>
<event>
 7    1  0.2641103E-015  0.9000767E+02  0.7816164E-02  0.1186339E+00
        -11   -1    0    0    0    0  0.00000000000E+00  0.00000000000E+00  0.45593999997E+02  0.45594000000E+02  0.51100000000E-03 0. -1.
         11   -1    0    0    0    0 -0.00000000000E+00 -0.00000000000E+00 -0.45593999997E+02  0.45594000000E+02  0.51100000000E-03 0.  1.
    9900012    2    1    2    0    0  0.91006939508E-01  0.11612267863E+01 -0.19089336224E+00  0.90007673694E+02  0.89999934187E+02 0.  0.
        -12    1    1    2    0    0 -0.91006939508E-01 -0.11612267863E+01  0.19089336224E+00  0.11803263057E+01  0.00000000000E+00 0.  1.
         11    1    3    3    0    0  0.25606286434E+01  0.73781920497E+01 -0.62312197281E+01  0.99911278909E+01  0.51100000000E-03 0. -1.
        -11    1    3    3    0    0  0.10776065946E+02 -0.27041139040E+01 -0.35014596558E+02  0.36734967016E+02  0.51100000000E-03 0.  1.
         12    1    3    3    0    0 -0.13245687650E+02 -0.35128513594E+01  0.41054922924E+02  0.43281578787E+02  0.00000000000E+00 0. -1.
</event>
<event>
 7    1  0.2641103E-015  0.9000768E+02  0.7816164E-02  0.1186339E+00
        -11   -1    0    0    0    0  0.00000000000E+00  0.00000000000E+00  0.45593999997E+02  0.45594000000E+02  0.51100000000E-03 0. -1.
         11   -1    0    0    0    0 -0.00000000000E+00 -0.00000000000E+00 -0.45593999997E+02  0.45594000000E+02  0.51100000000E-03 0.  1.
    9900012    2    1    2    0    0  0.96580593293E-01 -0.97416933114E+00 -0.65940720259E+00  0.90007681587E+02  0.89999942184E+02 0.  0.
        -12    1    1    2    0    0 -0.96580593293E-01  0.97416933114E+00  0.65940720259E+00  0.11803184128E+01  0.00000000000E+00 0.  1.
         11    1    3    3    0    0 -0.47900919253E+01  0.80880858859E+01 -0.51300966726E+01  0.10708875108E+02  0.51100000000E-03 0. -1.
        -11    1    3    3    0    0 -0.36653950209E+02 -0.82133368577E+01  0.36705627046E+01  0.37741807046E+02  0.51100000000E-03 0.  1.
         12    1    3    3    0    0  0.41540622728E+02 -0.84891835940E+00  0.80012676547E+00  0.41556999433E+02  0.00000000000E+00 0. -1.
</event>
<event>
 7    1  0.2641103E-015  0.9000766E+02  0.7816164E-02  0.1186339E+00
        -11   -1    0    0    0    0  0.00000000000E+00  0.00000000000E+00  0.45593999997E+02  0.45594000000E+02  0.51100000000E-03 0.  1.
         11   -1    0    0    0    0 -0.00000000000E+00 -0.00000000000E+00 -0.45593999997E+02  0.45594000000E+02  0.51100000000E-03 0. -1.
    9900012    2    1    2    0    0  0.91940259083E+00 -0.21020977560E+00  0.70972080721E+00  0.90007664074E+02  0.89999924440E+02 0.  0.
        -12    1    1    2    0    0 -0.91940259083E+00  0.21020977560E+00 -0.70972080721E+00  0.11803359259E+01  0.00000000000E+00 0.  1.
         11    1    3    3    0    0  0.94795655265E+01  0.29508752713E+01  0.73509129813E+00  0.99554099321E+01  0.51100000000E-03 0. -1.
        -11    1    3    3    0    0  0.19664592488E+02 -0.17198271348E+02  0.27696969755E+02  0.38073598057E+02  0.51100000000E-03 0.  1.
         12    1    3    3    0    0 -0.28224755424E+02  0.14037186302E+02 -0.27722340246E+02  0.41978656085E+02  0.00000000000E+00 0. -1.
</event>
<event>
 7    1  0.2641103E-015  0.9000769E+02  0.7816164E-02  0.1186339E+00
        -11   -1    0    0    0    0  0.00000000000E+00  0.00000000000E+00  0.45593999997E+02  0.45594000000E+02  0.51100000000E-03 0.  1.
         11   -1    0    0    0    0 -0.00000000000E+00 -0.00000000000E+00 -0.45593999997E+02  0.45594000000E+02  0.51100000000E-03 0. -1.
    9900012    2    1    2    0    0  0.63716162745E+00 -0.70122442281E+00 -0.70388113203E+00  0.90007686788E+02  0.89999947453E+02 0.  0.
        -12    1    1    2    0    0 -0.63716162745E+00  0.70122442281E+00  0.70388113203E+00  0.11803132121E+01  0.00000000000E+00 0.  1.
         11    1    3    3    0    0  0.53901303634E+01 -0.19900681860E+01  0.35319784396E+01  0.67445347266E+01  0.51100000000E-03 0. -1.
        -11    1    3    3    0    0 -0.22258426277E+02  0.65430882221E+01  0.33839229233E+02  0.41028562967E+02  0.51100000000E-03 0.  1.
         12    1    3    3    0    0  0.17505457541E+02 -0.52542444589E+01 -0.38075088804E+02  0.42234589095E+02  0.00000000000E+00 0. -1.
</event>
<event>
 7    1  0.2641103E-015  0.9000775E+02  0.7816164E-02  0.1186339E+00
        -11   -1    0    0    0    0  0.00000000000E+00  0.00000000000E+00  0.45593999997E+02  0.45594000000E+02  0.51100000000E-03 0.  1.
         11   -1    0    0    0    0 -0.00000000000E+00 -0.00000000000E+00 -0.45593999997E+02  0.45594000000E+02  0.51100000000E-03 0. -1.
    9900012    2    1    2    0    0 -0.81173148078E+00 -0.64117330079E+00 -0.56830811832E+00  0.90007752011E+02  0.90000013537E+02 0.  0.
        -12    1    1    2    0    0  0.81173148078E+00  0.64117330079E+00  0.56830811832E+00  0.11802479891E+01  0.00000000000E+00 0.  1.
         11    1    3    3    0    0 -0.81068972903E+01 -0.59619724947E+01 -0.61204014479E+01  0.11778209280E+02  0.51100000000E-03 0. -1.
        -11    1    3    3    0    0  0.28395285760E+02  0.11619394866E+02  0.31652169895E+02  0.44081316334E+02  0.51100000000E-03 0.  1.
         12    1    3    3    0    0 -0.21100119950E+02 -0.62985956721E+01 -0.26100076565E+02  0.34148226397E+02  0.00000000000E+00 0. -1.
</event>
<event>
 7    1  0.2641103E-015  0.9000778E+02  0.7816164E-02  0.1186339E+00
        -11   -1    0    0    0    0  0.00000000000E+00  0.00000000000E+00  0.45593999997E+02  0.45594000000E+02  0.51100000000E-03 0. -1.
         11   -1    0    0    0    0 -0.00000000000E+00 -0.00000000000E+00 -0.45593999997E+02  0.45594000000E+02  0.51100000000E-03 0.  1.
    9900012    2    1    2    0    0  0.17882492815E+00  0.11236685979E+01  0.31353675783E+00  0.90007781897E+02  0.90000043818E+02 0.  0.
        -12    1    1    2    0    0 -0.17882492815E+00 -0.11236685979E+01 -0.31353675783E+00  0.11802181033E+01  0.00000000000E+00 0.  1.
         11    1    3    3    0    0 -0.62455463200E+01 -0.75204772485E+01 -0.54312407218E+01  0.11183148167E+02  0.51100000000E-03 0. -1.
        -11    1    3    3    0    0  0.22628946274E+02 -0.12270214816E+02  0.32324263120E+02  0.41321729968E+02  0.51100000000E-03 0.  1.
         12    1    3    3    0    0 -0.16204575026E+02  0.20914360662E+02 -0.26579485640E+02  0.37502903762E+02  0.00000000000E+00 0. -1.
</event>
<event>
 7    1  0.2641103E-015  0.9000774E+02  0.7816164E-02  0.1186339E+00
        -11   -1    0    0    0    0  0.00000000000E+00  0.00000000000E+00  0.45593999997E+02  0.45594000000E+02  0.51100000000E-03 0.  1.
         11   -1    0    0    0    0 -0.00000000000E+00 -0.00000000000E+00 -0.45593999997E+02  0.45594000000E+02  0.51100000000E-03 0. -1.
    9900012    2    1    2    0    0 -0.13820422643E+00 -0.53344173576E+00 -0.10437211163E+01  0.90007739748E+02  0.90000001113E+02 0.  0.
        -12    1    1    2    0    0  0.13820422643E+00  0.53344173576E+00  0.10437211163E+01  0.11802602519E+01  0.00000000000E+00 0.  1.
         11    1    3    3    0    0  0.32872076406E+02 -0.17667823751E+02 -0.62194320995E+01  0.37833936343E+02  0.51100000000E-03 0. -1.
        -11    1    3    3    0    0 -0.21240415875E+01 -0.10055326612E+02  0.39390183288E+01  0.11006226038E+02  0.51100000000E-03 0.  1.
        -12    1    3    3    0    0 -0.30886239045E+02  0.27189708627E+02  0.12366926544E+01  0.41167577367E+02  0.00000000000E+00 0.  1.
</event>
<event>
 7    1  0.2641103E-015  0.9000778E+02  0.7816164E-02  0.1186339E+00
        -11   -1    0    0    0    0  0.00000000000E+00  0.00000000000E+00  0.45593999997E+02  0.45594000000E+02  0.51100000000E-03 0. -1.
         11   -1    0    0    0    0 -0.00000000000E+00 -0.00000000000E+00 -0.45593999997E+02  0.45594000000E+02  0.51100000000E-03 0.  1.
    9900012    2    1    2    0    0  0.77199466530E+00  0.56120400383E+00  0.69425525273E+00  0.90007781354E+02  0.90000043268E+02 0.  0.
        -12    1    1    2    0    0 -0.77199466530E+00 -0.56120400383E+00 -0.69425525273E+00  0.11802186463E+01  0.00000000000E+00 0.  1.
         11    1    3    3    0    0 -0.23942996494E+02 -0.72768062577E+01  0.33923302091E+02  0.42154589494E+02  0.51100000000E-03 0. -1.
        -11    1    3    3    0    0  0.33787303798E+01 -0.70805530922E+01 -0.43473477733E+01  0.89693636337E+01  0.51100000000E-03 0.  1.
        -12    1    3    3    0    0  0.21336260780E+02  0.14918563354E+02 -0.28881699065E+02  0.38883828226E+02  0.00000000000E+00 0.  1.
</event>
<event>
 7    1  0.2641103E-015  0.9000770E+02  0.7816164E-02  0.1186339E+00
        -11   -1    0    0    0    0  0.00000000000E+00  0.00000000000E+00  0.45593999997E+02  0.45594000000E+02  0.51100000000E-03 0. -1.
         11   -1    0    0    0    0 -0.00000000000E+00 -0.00000000000E+00 -0.45593999997E+02  0.45594000000E+02  0.51100000000E-03 0.  1.
    9900012    2    1    2    0    0 -0.78511370062E+00  0.72890765442E+00 -0.49538774945E+00  0.90007695415E+02  0.89999956194E+02 0.  0.
        -12    1    1    2    0    0  0.78511370062E+00 -0.72890765442E+00  0.49538774945E+00  0.11803045852E+01  0.00000000000E+00 0.  1.
         11    1    3    3    0    0  0.23189020714E+01 -0.15939854237E+02 -0.99630399223E+01  0.18939863375E+02  0.51100000000E-03 0. -1.
        -11    1    3    3    0    0  0.25119665796E+02  0.22620279438E+02  0.21230152190E+02  0.39917339764E+02  0.51100000000E-03 0.  1.
         12    1    3    3    0    0 -0.28223681568E+02 -0.59515175471E+01 -0.11762500018E+02  0.31150492276E+02  0.00000000000E+00 0. -1.
</event>
<event>
 7    1  0.2641103E-015  0.9000758E+02  0.7816164E-02  0.1186339E+00
        -11   -1    0    0    0    0  0.00000000000E+00  0.00000000000E+00  0.45593999997E+02  0.45594000000E+02  0.51100000000E-03 0.  1.
         11   -1    0    0    0    0 -0.00000000000E+00 -0.00000000000E+00 -0.45593999997E+02  0.45594000000E+02  0.51100000000E-03 0. -1.
    9900012    2    1    2    0    0  0.91332297514E+00  0.44558030243E+00  0.60057784956E+00  0.90007578712E+02  0.89999837951E+02 0.  0.
        -12    1    1    2    0    0 -0.91332297514E+00 -0.44558030243E+00 -0.60057784956E+00  0.11804212876E+01  0.00000000000E+00 0.  1.
         11    1    3    3    0    0 -0.25749555808E+01 -0.19772136635E+01  0.84078698814E+01  0.90128822425E+01  0.51100000000E-03 0. -1.
        -11    1    3    3    0    0 -0.36376808764E+02  0.35283603766E+01  0.91236754122E+01  0.37669125236E+02  0.51100000000E-03 0.  1.
         12    1    3    3    0    0  0.39865087320E+02 -0.11055664106E+01 -0.16930967444E+02  0.43325571233E+02  0.00000000000E+00 0. -1.
</event>
<event>
 7    1  0.2641103E-015  0.9000769E+02  0.7816164E-02  0.1186339E+00
        -11   -1    0    0    0    0  0.00000000000E+00  0.00000000000E+00  0.45593999997E+02  0.45594000000E+02  0.51100000000E-03 0. -1.
         11   -1    0    0    0    0 -0.00000000000E+00 -0.00000000000E+00 -0.45593999997E+02  0.45594000000E+02  0.51100000000E-03 0.  1.
    9900012    2    1    2    0    0 -0.45401532200E-01 -0.10915183899E+01  0.44684046535E+00  0.90007686442E+02  0.89999947103E+02 0.  0.
        -12    1    1    2    0    0  0.45401532200E-01  0.10915183899E+01 -0.44684046535E+00  0.11803135583E+01  0.00000000000E+00 0.  1.
         11    1    3    3    0    0  0.14683092820E+02  0.30135554763E+02  0.12125612131E+02  0.35647936062E+02  0.51100000000E-03 0. -1.
        -11    1    3    3    0    0  0.55322636604E+01  0.74800104031E+01 -0.33201781984E+01  0.98782630239E+01  0.51100000000E-03 0.  1.
        -12    1    3    3    0    0 -0.20260758013E+02 -0.38707083556E+02 -0.83585934669E+01  0.44481487356E+02  0.00000000000E+00 0.  1.
</event>
<event>
 7    1  0.2641103E-015  0.9000763E+02  0.7816164E-02  0.1186339E+00
        -11   -1    0    0    0    0  0.00000000000E+00  0.00000000000E+00  0.45593999997E+02  0.45594000000E+02  0.51100000000E-03 0. -1.
         11   -1    0    0    0    0 -0.00000000000E+00 -0.00000000000E+00 -0.45593999997E+02  0.45594000000E+02  0.51100000000E-03 0.  1.
    9900012    2    1    2    0    0  0.11413041019E+01 -0.12189306704E+00 -0.27539753878E+00  0.90007628543E+02  0.89999888439E+02 0.  0.
        -12    1    1    2    0    0 -0.11413041019E+01  0.12189306704E+00  0.27539753878E+00  0.11803714572E+01  0.00000000000E+00 0.  1.
         11    1    3    3    0    0  0.13750461954E+02  0.19048610775E+02  0.29442789741E+02  0.37666996753E+02  0.51100000000E-03 0. -1.
        -11    1    3    3    0    0  0.16562413016E+01  0.25551899513E+01  0.68388682007E+01  0.74861371524E+01  0.51100000000E-03 0.  1.
        -12    1    3    3    0    0 -0.14265399154E+02 -0.21725693793E+02 -0.36557055480E+02  0.44854494638E+02  0.00000000000E+00 0.  1.
</event>
<event>
 7    1  0.2641103E-015  0.9000775E+02  0.7816164E-02  0.1186339E+00
        -11   -1    0    0    0    0  0.00000000000E+00  0.00000000000E+00  0.45593999997E+02  0.45594000000E+02  0.51100000000E-03 0.  1.
         11   -1    0    0    0    0 -0.00000000000E+00 -0.00000000000E+00 -0.45593999997E+02  0.45594000000E+02  0.51100000000E-03 0. -1.
    9900012    2    1    2    0    0 -0.28104475097E+00  0.11280492926E+01  0.20375504052E+00  0.90007746860E+02  0.90000008318E+02 0.  0.
        -12    1    1    2    0    0  0.28104475097E+00 -0.11280492926E+01 -0.20375504052E+00  0.11802531403E+01  0.00000000000E+00 0.  1.
         11    1    3    3    0    0  0.33254947076E+02  0.42392972345E+01 -0.26711476805E+02  0.42864509089E+02  0.51100000000E-03 0. -1.
        -11    1    3    3    0    0 -0.64381124112E+00  0.20688338291E+01  0.91497535340E+01  0.94027951334E+01  0.51100000000E-03 0.  1.
        -12    1    3    3    0    0 -0.32892180586E+02 -0.51800817711E+01  0.17765478311E+02  0.37740442638E+02  0.00000000000E+00 0.  1.
</event>
<event>
 7    1  0.2641103E-015  0.9000775E+02  0.7816164E-02  0.1186339E+00
        -11   -1    0    0    0    0  0.00000000000E+00  0.00000000000E+00  0.45593999997E+02  0.45594000000E+02  0.51100000000E-03 0. -1.
         11   -1    0    0    0    0 -0.00000000000E+00 -0.00000000000E+00 -0.45593999997E+02  0.45594000000E+02  0.51100000000E-03 0.  1.
    9900012    2    1    2    0    0 -0.96918358312E+00  0.14464228153E+00  0.65784298725E+00  0.90007747653E+02  0.90000009122E+02 0.  0.
        -12    1    1    2    0    0  0.96918358312E+00 -0.14464228153E+00 -0.65784298725E+00  0.11802523473E+01  0.00000000000E+00 0.  1.
         11    1    3    3    0    0  0.14947940672E+02  0.27103495462E+02  0.22423624708E+02  0.38221189698E+02  0.51100000000E-03 0. -1.
        -11    1    3    3    0    0  0.49583352521E+01  0.61118074821E+01 -0.40877119262E+01  0.88684084380E+01  0.51100000000E-03 0.  1.
        -12    1    3    3    0    0 -0.20875459507E+02 -0.33070660663E+02 -0.17678069795E+02  0.42918149517E+02  0.00000000000E+00 0.  1.
</event>
<event>
 7    1  0.2641103E-015  0.9000791E+02  0.7816164E-02  0.1186339E+00
        -11   -1    0    0    0    0  0.00000000000E+00  0.00000000000E+00  0.45593999997E+02  0.45594000000E+02  0.51100000000E-03 0. -1.
         11   -1    0    0    0    0 -0.00000000000E+00 -0.00000000000E+00 -0.45593999997E+02  0.45594000000E+02  0.51100000000E-03 0.  1.
    9900012    2    1    2    0    0 -0.53654305787E+00  0.29691355718E+00 -0.10082563754E+01  0.90007908041E+02  0.90000171627E+02 0.  0.
        -12    1    1    2    0    0  0.53654305787E+00 -0.29691355718E+00  0.10082563754E+01  0.11800919591E+01  0.00000000000E+00 0.  1.
         11    1    3    3    0    0 -0.25488993038E+02  0.21668454678E+02 -0.17223194068E+02  0.37627770441E+02  0.51100000000E-03 0. -1.
        -11    1    3    3    0    0 -0.58365217744E+01  0.47025478228E+01  0.84469372183E+01  0.11292904457E+02  0.51100000000E-03 0.  1.
        -12    1    3    3    0    0  0.30788971755E+02 -0.26074088943E+02  0.77680004745E+01  0.41087233142E+02  0.00000000000E+00 0.  1.
</event>
<event>
 7    1  0.2641103E-015  0.9000768E+02  0.7816164E-02  0.1186339E+00
        -11   -1    0    0    0    0  0.00000000000E+00  0.00000000000E+00  0.45593999997E+02  0.45594000000E+02  0.51100000000E-03 0.  1.
         11   -1    0    0    0    0 -0.00000000000E+00 -0.00000000000E+00 -0.45593999997E+02  0.45594000000E+02  0.51100000000E-03 0. -1.
    9900012    2    1    2    0    0 -0.22557687576E+00  0.10172617217E+01  0.55447635081E+00  0.90007682093E+02  0.89999942697E+02 0.  0.
        -12    1    1    2    0    0  0.22557687576E+00 -0.10172617217E+01 -0.55447635081E+00  0.11803179067E+01  0.00000000000E+00 0.  1.
         11    1    3    3    0    0  0.16637219826E+02  0.13716157406E+02 -0.31141278506E+02  0.37877556478E+02  0.51100000000E-03 0. -1.
        -11    1    3    3    0    0  0.89362092040E+00  0.90961108694E+01 -0.78438167904E+00  0.91734969438E+01  0.51100000000E-03 0.  1.
        -12    1    3    3    0    0 -0.17756417622E+02 -0.21795006554E+02  0.32480136536E+02  0.42956628671E+02  0.00000000000E+00 0.  1.
</event>
<event>
 7    1  0.2641103E-015  0.9000764E+02  0.7816164E-02  0.1186339E+00
        -11   -1    0    0    0    0  0.00000000000E+00  0.00000000000E+00  0.45593999997E+02  0.45594000000E+02  0.51100000000E-03 0. -1.
         11   -1    0    0    0    0 -0.00000000000E+00 -0.00000000000E+00 -0.45593999997E+02  0.45594000000E+02  0.51100000000E-03 0.  1.
    9900012    2    1    2    0    0  0.83258960054E+00 -0.44541619024E+00  0.70826621727E+00  0.90007643249E+02  0.89999903340E+02 0.  0.
        -12    1    1    2    0    0 -0.83258960054E+00  0.44541619024E+00 -0.70826621727E+00  0.11803567511E+01  0.00000000000E+00 0.  1.
         11    1    3    3    0    0 -0.39023662542E+01 -0.82131265137E+00 -0.84921808878E+01  0.93819056351E+01  0.51100000000E-03 0. -1.
        -11    1    3    3    0    0  0.13779580496E+01  0.33779191861E+02  0.26410044586E+02  0.42900151823E+02  0.51100000000E-03 0.  1.
         12    1    3    3    0    0  0.33569978052E+01 -0.33403295400E+02 -0.17209597481E+02  0.37725585791E+02  0.00000000000E+00 0. -1.
</event>
<event>
 7    1  0.2641103E-015  0.9000783E+02  0.7816164E-02  0.1186339E+00
        -11   -1    0    0    0    0  0.00000000000E+00  0.00000000000E+00  0.45593999997E+02  0.45594000000E+02  0.51100000000E-03 0.  1.
         11   -1    0    0    0    0 -0.00000000000E+00 -0.00000000000E+00 -0.45593999997E+02  0.45594000000E+02  0.51100000000E-03 0. -1.
    9900012    2    1    2    0    0 -0.62899425709E+00 -0.39550957637E+00 -0.91692079005E+00  0.90007828260E+02  0.90000090793E+02 0.  0.
        -12    1    1    2    0    0  0.62899425709E+00  0.39550957637E+00  0.91692079005E+00  0.11801717399E+01  0.00000000000E+00 0.  1.
         11    1    3    3    0    0  0.30468116391E+02  0.24665417494E+02 -0.88406831108E+00  0.39210591854E+02  0.51100000000E-03 0. -1.
        -11    1    3    3    0    0 -0.46644445574E+01  0.72189044899E+01 -0.26495759554E+01  0.89938800341E+01  0.51100000000E-03 0.  1.
        -12    1    3    3    0    0 -0.26432666090E+02 -0.32279831560E+02  0.26167234765E+01  0.41803356372E+02  0.00000000000E+00 0.  1.
</event>
<event>
 7    1  0.2641103E-015  0.9000773E+02  0.7816164E-02  0.1186339E+00
        -11   -1    0    0    0    0  0.00000000000E+00  0.00000000000E+00  0.45593999997E+02  0.45594000000E+02  0.51100000000E-03 0.  1.
         11   -1    0    0    0    0 -0.00000000000E+00 -0.00000000000E+00 -0.45593999997E+02  0.45594000000E+02  0.51100000000E-03 0. -1.
    9900012    2    1    2    0    0  0.92051043619E+00  0.10772559291E+00 -0.73081549498E+00  0.90007730728E+02  0.89999991974E+02 0.  0.
        -12    1    1    2    0    0 -0.92051043619E+00 -0.10772559291E+00  0.73081549498E+00  0.11802692719E+01  0.00000000000E+00 0.  1.
         11    1    3    3    0    0 -0.18144797920E+02  0.23204560099E+02 -0.26181428719E+02  0.39410055962E+02  0.51100000000E-03 0. -1.
        -11    1    3    3    0    0  0.62927716479E+01 -0.82159779552E-01 -0.66030786330E+01  0.91217527338E+01  0.51100000000E-03 0.  1.
        -12    1    3    3    0    0  0.12772536709E+02 -0.23014674726E+02  0.32053691857E+02  0.41475922032E+02  0.00000000000E+00 0.  1.
</event>
<event>
 7    1  0.2641103E-015  0.9000761E+02  0.7816164E-02  0.1186339E+00
        -11   -1    0    0    0    0  0.00000000000E+00  0.00000000000E+00  0.45593999997E+02  0.45594000000E+02  0.51100000000E-03 0.  1.
         11   -1    0    0    0    0 -0.00000000000E+00 -0.00000000000E+00 -0.45593999997E+02  0.45594000000E+02  0.51100000000E-03 0. -1.
    9900012    2    1    2    0    0 -0.36045489023E+00  0.22600699327E+00 -0.11010517081E+01  0.90007609491E+02  0.89999869137E+02 0.  0.
        -12    1    1    2    0    0  0.36045489023E+00 -0.22600699327E+00  0.11010517081E+01  0.11803905086E+01  0.00000000000E+00 0.  1.
         11    1    3    3    0    0 -0.63857731635E+01  0.43397042100E+01 -0.66138507736E+01  0.10166324500E+02  0.51100000000E-03 0. -1.
        -11    1    3    3    0    0 -0.17235238761E+01  0.26070966847E+02  0.30309202628E+02  0.40016416769E+02  0.51100000000E-03 0.  1.
         12    1    3    3    0    0  0.77488421494E+01 -0.30184664064E+02 -0.24796403562E+02  0.39824868222E+02  0.00000000000E+00 0. -1.
</event>
<event>
 7    1  0.2641103E-015  0.9000769E+02  0.7816164E-02  0.1186339E+00
        -11   -1    0    0    0    0  0.00000000000E+00  0.00000000000E+00  0.45593999997E+02  0.45594000000E+02  0.51100000000E-03 0.  1.
         11   -1    0    0    0    0 -0.00000000000E+00 -0.00000000000E+00 -0.45593999997E+02  0.45594000000E+02  0.51100000000E-03 0. -1.
    9900012    2    1    2    0    0  0.22824746213E+00 -0.30821544732E+00 -0.11162557376E+01  0.90007694727E+02  0.89999955497E+02 0.  0.
        -12    1    1    2    0    0 -0.22824746213E+00  0.30821544732E+00  0.11162557376E+01  0.11803052731E+01  0.00000000000E+00 0.  1.
         11    1    3    3    0    0 -0.17105158273E+01  0.60868120551E+01  0.75223278509E+01  0.98265233907E+01  0.51100000000E-03 0. -1.
        -11    1    3    3    0    0 -0.90723429933E+01  0.96491230275E+01  0.32268961269E+02  0.34881210475E+02  0.51100000000E-03 0.  1.
         12    1    3    3    0    0  0.11011106283E+02 -0.16044150530E+02 -0.40907544857E+02  0.45299960861E+02  0.00000000000E+00 0. -1.
</event>
<event>
 7    1  0.2641103E-015  0.9000774E+02  0.7816164E-02  0.1186339E+00
        -11   -1    0    0    0    0  0.00000000000E+00  0.00000000000E+00  0.45593999997E+02  0.45594000000E+02  0.51100000000E-03 0. -1.
         11   -1    0    0    0    0 -0.00000000000E+00 -0.00000000000E+00 -0.45593999997E+02  0.45594000000E+02  0.51100000000E-03 0.  1.
    9900012    2    1    2    0    0  0.42677516911E-01 -0.11728099165E+01 -0.12532032859E+00  0.90007741700E+02  0.90000003090E+02 0.  0.
        -12    1    1    2    0    0 -0.42677516911E-01  0.11728099165E+01  0.12532032859E+00  0.11802583003E+01  0.00000000000E+00 0.  1.
         11    1    3    3    0    0 -0.39614516275E+01  0.51588710660E+01 -0.87987227148E+01  0.10941872388E+02  0.51100000000E-03 0. -1.
        -11    1    3    3    0    0 -0.28895600942E+02 -0.15222970490E+02 -0.16600386522E+02  0.36636967905E+02  0.51100000000E-03 0.  1.
         12    1    3    3    0    0  0.32899730086E+02  0.88912895074E+01  0.25273788908E+02  0.42428901407E+02  0.00000000000E+00 0. -1.
</event>
<event>
 7    1  0.2641103E-015  0.9000766E+02  0.7816164E-02  0.1186339E+00
        -11   -1    0    0    0    0  0.00000000000E+00  0.00000000000E+00  0.45593999997E+02  0.45594000000E+02  0.51100000000E-03 0. -1.
         11   -1    0    0    0    0 -0.00000000000E+00 -0.00000000000E+00 -0.45593999997E+02  0.45594000000E+02  0.51100000000E-03 0.  1.
    9900012    2    1    2    0    0  0.59053691677E+00  0.96622182356E+00 -0.33298494062E+00  0.90007662153E+02  0.89999922493E+02 0.  0.
        -12    1    1    2    0    0 -0.59053691677E+00 -0.96622182356E+00  0.33298494062E+00  0.11803378470E+01  0.00000000000E+00 0.  1.
         11    1    3    3    0    0  0.13955904654E+01 -0.93315081300E+01  0.34731208456E+02  0.35990020253E+02  0.51100000000E-03 0. -1.
        -11    1    3    3    0    0  0.69248872510E+01 -0.39826590080E+01  0.59140031174E+01  0.99393696655E+01  0.51100000000E-03 0.  1.
        -12    1    3    3    0    0 -0.77299407996E+01  0.14280388962E+02 -0.40978196514E+02  0.44078272235E+02  0.00000000000E+00 0.  1.
</event>
<event>
 7    1  0.2641103E-015  0.9000768E+02  0.7816164E-02  0.1186339E+00
        -11   -1    0    0    0    0  0.00000000000E+00  0.00000000000E+00  0.45593999997E+02  0.45594000000E+02  0.51100000000E-03 0.  1.
         11   -1    0    0    0    0 -0.00000000000E+00 -0.00000000000E+00 -0.45593999997E+02  0.45594000000E+02  0.51100000000E-03 0. -1.
    9900012    2    1    2    0    0 -0.52283895390E+00 -0.20606255369E+00 -0.10379482785E+01  0.90007678444E+02  0.89999938999E+02 0.  0.
        -12    1    1    2    0    0  0.52283895390E+00  0.20606255369E+00  0.10379482785E+01  0.11803215564E+01  0.00000000000E+00 0.  1.
         11    1    3    3    0    0 -0.18546345161E+02 -0.37146228264E+00  0.24847687952E+02  0.31008265025E+02  0.51100000000E-03 0. -1.
        -11    1    3    3    0    0  0.64667608678E+01  0.20950997195E+02  0.23852119815E+01  0.22055668569E+02  0.51100000000E-03 0.  1.
         12    1    3    3    0    0  0.11556745339E+02 -0.20785597466E+02 -0.28270848212E+02  0.36943744849E+02  0.00000000000E+00 0. -1.
</event>
<event>
 7    1  0.2641103E-015  0.9000764E+02  0.7816164E-02  0.1186339E+00
        -11   -1    0    0    0    0  0.00000000000E+00  0.00000000000E+00  0.45593999997E+02  0.45594000000E+02  0.51100000000E-03 0.  1.
         11   -1    0    0    0    0 -0.00000000000E+00 -0.00000000000E+00 -0.45593999997E+02  0.45594000000E+02  0.51100000000E-03 0. -1.
    9900012    2    1    2    0    0 -0.16198510449E+00  0.35901329346E+00 -0.11127044677E+01  0.90007643718E+02  0.89999903816E+02 0.  0.
        -12    1    1    2    0    0  0.16198510449E+00 -0.35901329346E+00  0.11127044677E+01  0.11803562815E+01  0.00000000000E+00 0.  1.
         11    1    3    3    0    0  0.37957189767E+02 -0.31179282281E+01 -0.22291672781E+02  0.44129223958E+02  0.51100000000E-03 0. -1.
        -11    1    3    3    0    0 -0.44500990163E+01 -0.77959878905E+00  0.85452587801E+01  0.96660541798E+01  0.51100000000E-03 0.  1.
        -12    1    3    3    0    0 -0.33669075856E+02  0.42565403107E+01  0.12633709534E+02  0.36212365581E+02  0.00000000000E+00 0.  1.
</event>
<event>
 7    1  0.3345083E-015  0.9000785E+02  0.7816164E-02  0.1186339E+00
        -11   -1    0    0    0    0  0.00000000000E+00  0.00000000000E+00  0.45593999997E+02  0.45594000000E+02  0.51100000000E-03 0. -1.
         11   -1    0    0    0    0 -0.00000000000E+00 -0.00000000000E+00 -0.45593999997E+02  0.45594000000E+02  0.51100000000E-03 0.  1.
    9900012    2    1    2    0    0  0.38960159368E+00  0.11130571306E+01  0.45603510088E-01  0.90007845240E+02  0.90000107997E+02 0.  0.
        -12    1    1    2    0    0 -0.38960159368E+00 -0.11130571306E+01 -0.45603510088E-01  0.11801547602E+01  0.00000000000E+00 0.  1.
         11    1    3    3    0    0 -0.57406096200E+01  0.57648206735E+01  0.47636510902E+01  0.94276257975E+01  0.51100000000E-03 0. -1.
        -11    1    3    3    0    0  0.25278955470E+02  0.10977578177E+02 -0.33016291545E+02  0.43007072906E+02  0.51100000000E-03 0.  1.
         12    1    3    3    0    0 -0.19148744256E+02 -0.15629341720E+02  0.28298243965E+02  0.37573146537E+02  0.00000000000E+00 0. -1.
</event>
<event>
 7    1  0.2641103E-015  0.9000781E+02  0.7816164E-02  0.1186339E+00
        -11   -1    0    0    0    0  0.00000000000E+00  0.00000000000E+00  0.45593999997E+02  0.45594000000E+02  0.51100000000E-03 0.  1.
         11   -1    0    0    0    0 -0.00000000000E+00 -0.00000000000E+00 -0.45593999997E+02  0.45594000000E+02  0.51100000000E-03 0. -1.
    9900012    2    1    2    0    0  0.87047816249E+00 -0.38481053671E+00 -0.69788875232E+00  0.90007805062E+02  0.90000067289E+02 0.  0.
        -12    1    1    2    0    0 -0.87047816249E+00  0.38481053671E+00  0.69788875232E+00  0.11801949378E+01  0.00000000000E+00 0.  1.
         11    1    3    3    0    0 -0.15740314814E+02 -0.21818636318E+02 -0.32931028417E+02  0.42523676159E+02  0.51100000000E-03 0. -1.
        -11    1    3    3    0    0 -0.70592403202E-01 -0.39850050915E+01  0.66315141636E+01  0.77370685166E+01  0.51100000000E-03 0.  1.
        -12    1    3    3    0    0  0.16681385380E+02  0.25418830872E+02  0.25601625501E+02  0.39747060387E+02  0.00000000000E+00 0.  1.
</event>
<event>
 7    1  0.2641103E-015  0.9000773E+02  0.7816164E-02  0.1186339E+00
        -11   -1    0    0    0    0  0.00000000000E+00  0.00000000000E+00  0.45593999997E+02  0.45594000000E+02  0.51100000000E-03 0. -1.
         11   -1    0    0    0    0 -0.00000000000E+00 -0.00000000000E+00 -0.45593999997E+02  0.45594000000E+02  0.51100000000E-03 0.  1.
    9900012    2    1    2    0    0 -0.39682274213E+00  0.10278270189E+01  0.42325716540E+00  0.90007727448E+02  0.89999988650E+02 0.  0.
        -12    1    1    2    0    0  0.39682274213E+00 -0.10278270189E+01 -0.42325716540E+00  0.11802725523E+01  0.00000000000E+00 0.  1.
         11    1    3    3    0    0  0.25718007966E+02 -0.62470940339E+01  0.24232428968E+02  0.35883878435E+02  0.51100000000E-03 0. -1.
        -11    1    3    3    0    0  0.33283080346E+01 -0.12197656245E+02 -0.24923813187E+01  0.12886908751E+02  0.51100000000E-03 0.  1.
        -12    1    3    3    0    0 -0.29443138743E+02  0.19472577298E+02 -0.21316790484E+02  0.41236940262E+02  0.00000000000E+00 0.  1.
</event>
<event>
 7    1  0.2641103E-015  0.9000779E+02  0.7816164E-02  0.1186339E+00
        -11   -1    0    0    0    0  0.00000000000E+00  0.00000000000E+00  0.45593999997E+02  0.45594000000E+02  0.51100000000E-03 0. -1.
         11   -1    0    0    0    0 -0.00000000000E+00 -0.00000000000E+00 -0.45593999997E+02  0.45594000000E+02  0.51100000000E-03 0.  1.
    9900012    2    1    2    0    0 -0.77872781517E+00  0.29192275982E+00  0.83741695329E+00  0.90007786858E+02  0.90000048844E+02 0.  0.
        -12    1    1    2    0    0  0.77872781517E+00 -0.29192275982E+00 -0.83741695329E+00  0.11802131424E+01  0.00000000000E+00 0.  1.
         11    1    3    3    0    0  0.74991648636E+01  0.70666047223E+01 -0.21195075235E+01  0.10519823590E+02  0.51100000000E-03 0. -1.
        -11    1    3    3    0    0  0.27655857322E+02  0.18945231209E+02  0.94365539047E+01  0.34825519087E+02  0.51100000000E-03 0.  1.
         12    1    3    3    0    0 -0.35933750001E+02 -0.25719913172E+02 -0.64796294279E+01  0.44662444181E+02  0.00000000000E+00 0. -1.
</event>
<event>
 7    1  0.2641103E-015  0.9000770E+02  0.7816164E-02  0.1186339E+00
        -11   -1    0    0    0    0  0.00000000000E+00  0.00000000000E+00  0.45593999997E+02  0.45594000000E+02  0.51100000000E-03 0.  1.
         11   -1    0    0    0    0 -0.00000000000E+00 -0.00000000000E+00 -0.45593999997E+02  0.45594000000E+02  0.51100000000E-03 0. -1.
    9900012    2    1    2    0    0 -0.11557916920E+01  0.17089281604E+00  0.16744631013E+00  0.90007704674E+02  0.89999965576E+02 0.  0.
        -12    1    1    2    0    0  0.11557916920E+01 -0.17089281604E+00 -0.16744631013E+00  0.11802953260E+01  0.00000000000E+00 0.  1.
         11    1    3    3    0    0  0.26550602128E+01 -0.10899668907E+02  0.35610634004E+01  0.11770016985E+02  0.51100000000E-03 0. -1.
        -11    1    3    3    0    0 -0.30647446269E+02  0.14998090357E+02  0.22393770555E+02  0.40812861173E+02  0.51100000000E-03 0.  1.
         12    1    3    3    0    0  0.26836594364E+02 -0.39275286340E+01 -0.25787387645E+02  0.37424826517E+02  0.00000000000E+00 0. -1.
</event>
<event>
 7    1  0.2641103E-015  0.9000773E+02  0.7816164E-02  0.1186339E+00
        -11   -1    0    0    0    0  0.00000000000E+00  0.00000000000E+00  0.45593999997E+02  0.45594000000E+02  0.51100000000E-03 0.  1.
         11   -1    0    0    0    0 -0.00000000000E+00 -0.00000000000E+00 -0.45593999997E+02  0.45594000000E+02  0.51100000000E-03 0. -1.
    9900012    2    1    2    0    0  0.54998256180E+00 -0.65322612033E-01 -0.10422488391E+01  0.90007732867E+02  0.89999994141E+02 0.  0.
        -12    1    1    2    0    0 -0.54998256180E+00  0.65322612033E-01  0.10422488391E+01  0.11802671327E+01  0.00000000000E+00 0.  1.
         11    1    3    3    0    0  0.85811899023E+01  0.23440098282E+01 -0.10613633859E+01  0.89586659002E+01  0.51100000000E-03 0. -1.
        -11    1    3    3    0    0  0.80787760092E+01 -0.10912606223E+02  0.37224544178E+02  0.39623456259E+02  0.51100000000E-03 0.  1.
         12    1    3    3    0    0 -0.16109983350E+02  0.85032737825E+01 -0.37205429631E+02  0.41425610708E+02  0.00000000000E+00 0. -1.
</event>
<event>
 7    1  0.2641103E-015  0.9000767E+02  0.7816164E-02  0.1186339E+00
        -11   -1    0    0    0    0  0.00000000000E+00  0.00000000000E+00  0.45593999997E+02  0.45594000000E+02  0.51100000000E-03 0.  1.
         11   -1    0    0    0    0 -0.00000000000E+00 -0.00000000000E+00 -0.45593999997E+02  0.45594000000E+02  0.51100000000E-03 0. -1.
    9900012    2    1    2    0    0 -0.10645647644E+01 -0.21595318918E+00  0.46177841471E+00  0.90007672409E+02  0.89999932885E+02 0.  0.
        -12    1    1    2    0    0  0.10645647644E+01  0.21595318918E+00 -0.46177841471E+00  0.11803275909E+01  0.00000000000E+00 0.  1.
         11    1    3    3    0    0 -0.33855587487E+02  0.85435711680E+01  0.22048403233E+02  0.41295586904E+02  0.51100000000E-03 0. -1.
        -11    1    3    3    0    0  0.58682087641E+01  0.94597929018E+01 -0.47578701799E+01  0.12106233302E+02  0.51100000000E-03 0.  1.
        -12    1    3    3    0    0  0.26922813959E+02 -0.18219317259E+02 -0.16828754638E+02  0.36605852203E+02  0.00000000000E+00 0.  1.
</event>
<event>
 7    1  0.2641103E-015  0.9000776E+02  0.7816164E-02  0.1186339E+00
        -11   -1    0    0    0    0  0.00000000000E+00  0.00000000000E+00  0.45593999997E+02  0.45594000000E+02  0.51100000000E-03 0.  1.
         11   -1    0    0    0    0 -0.00000000000E+00 -0.00000000000E+00 -0.45593999997E+02  0.45594000000E+02  0.51100000000E-03 0. -1.
    9900012    2    1    2    0    0  0.51414030019E+00  0.10589421073E+01  0.85260250183E-01  0.90007759370E+02  0.90000020994E+02 0.  0.
        -12    1    1    2    0    0 -0.51414030019E+00 -0.10589421073E+01 -0.85260250183E-01  0.11802406302E+01  0.00000000000E+00 0.  1.
         11    1    3    3    0    0  0.35194439140E+02 -0.70022083908E+01 -0.20506835389E+02  0.41330494392E+02  0.51100000000E-03 0. -1.
        -11    1    3    3    0    0 -0.65038625441E+01 -0.51733827482E+01 -0.37915481864E+01  0.91345473321E+01  0.51100000000E-03 0.  1.
        -12    1    3    3    0    0 -0.28176436296E+02  0.13234533246E+02  0.24383643826E+02  0.39542717646E+02  0.00000000000E+00 0.  1.
</event>
<event>
 7    1  0.2641103E-015  0.9000770E+02  0.7816164E-02  0.1186339E+00
        -11   -1    0    0    0    0  0.00000000000E+00  0.00000000000E+00  0.45593999997E+02  0.45594000000E+02  0.51100000000E-03 0.  1.
         11   -1    0    0    0    0 -0.00000000000E+00 -0.00000000000E+00 -0.45593999997E+02  0.45594000000E+02  0.51100000000E-03 0. -1.
    9900012    2    1    2    0    0 -0.96246424460E+00  0.24139773522E-01 -0.68277161837E+00  0.90007704599E+02  0.89999965500E+02 0.  0.
        -12    1    1    2    0    0  0.96246424460E+00 -0.24139773522E-01  0.68277161837E+00  0.11802954010E+01  0.00000000000E+00 0.  1.
         11    1    3    3    0    0  0.23790658149E+02 -0.27004493421E+02  0.98985366446E+00  0.36003026132E+02  0.51100000000E-03 0. -1.
        -11    1    3    3    0    0 -0.10727946659E+02 -0.96647517066E+01 -0.27894359791E+01  0.14706366594E+02  0.51100000000E-03 0.  1.
        -12    1    3    3    0    0 -0.14025175735E+02  0.36693384901E+02  0.11168106962E+01  0.39298311873E+02  0.00000000000E+00 0.  1.
</event>
<event>
 8    1  0.2641103E-015  0.9000891E+02  0.7816164E-02  0.1186337E+00
        -11   -1    0    0    0    0  0.00000000000E+00  0.00000000000E+00  0.45593999997E+02  0.45594000000E+02  0.51100000000E-03 0.  1.
         11   -1    0    0    0    0 -0.00000000000E+00 -0.00000000000E+00 -0.45593999997E+02  0.45594000000E+02  0.51100000000E-03 0. -1.
    9900012    2    1    2    0    0  0.58324082683E+00  0.10199612257E+01  0.98799308240E-01  0.90008910492E+02  0.90001187303E+02 0.  0.
         23    2    3    3    0    0  0.14183402622E+02 -0.22309596102E+02 -0.33679135496E+01  0.62782990048E+02  0.56846055356E+02 0.  0.
        -12    1    1    2    0    0 -0.58324082683E+00 -0.10199612257E+01 -0.98799308240E-01  0.11790895077E+01  0.00000000000E+00 0.  1.
         11    1    4    4    0    0 -0.15129218280E+02 -0.27957045940E+02  0.39906619837E+01  0.32037712883E+02  0.51100000000E-03 0. -1.
        -11    1    4    4    0    0  0.29312620903E+02  0.56474498374E+01 -0.73585755333E+01  0.30745277166E+02  0.51100000000E-03 0.  1.
        -12    1    3    3    0    0 -0.13600161796E+02  0.23329557328E+02  0.34667128579E+01  0.27225920444E+02  0.00000000000E+00 0.  1.
</event>
<event>
 7    1  0.2641103E-015  0.9000756E+02  0.7816164E-02  0.1186339E+00
        -11   -1    0    0    0    0  0.00000000000E+00  0.00000000000E+00  0.45593999997E+02  0.45594000000E+02  0.51100000000E-03 0.  1.
         11   -1    0    0    0    0 -0.00000000000E+00 -0.00000000000E+00 -0.45593999997E+02  0.45594000000E+02  0.51100000000E-03 0. -1.
    9900012    2    1    2    0    0 -0.84551447926E+00 -0.60295651801E+00 -0.56123633903E+00  0.90007560452E+02  0.89999819450E+02 0.  0.
        -12    1    1    2    0    0  0.84551447926E+00  0.60295651801E+00  0.56123633903E+00  0.11804395476E+01  0.00000000000E+00 0.  1.
         11    1    3    3    0    0  0.33054221445E+02  0.19589375994E+02  0.78069851069E+01  0.39208088756E+02  0.51100000000E-03 0. -1.
        -11    1    3    3    0    0  0.11180585667E+01  0.18367701609E+01 -0.91723696522E+01  0.94210479715E+01  0.51100000000E-03 0.  1.
        -12    1    3    3    0    0 -0.35017794491E+02 -0.22029102673E+02  0.80414820628E+00  0.41378423725E+02  0.00000000000E+00 0.  1.
</event>
<event>
 7    1  0.2641103E-015  0.9000781E+02  0.7816164E-02  0.1186339E+00
        -11   -1    0    0    0    0  0.00000000000E+00  0.00000000000E+00  0.45593999997E+02  0.45594000000E+02  0.51100000000E-03 0.  1.
         11   -1    0    0    0    0 -0.00000000000E+00 -0.00000000000E+00 -0.45593999997E+02  0.45594000000E+02  0.51100000000E-03 0. -1.
    9900012    2    1    2    0    0 -0.35563825696E+00  0.37571803500E+00 -0.10607564407E+01  0.90007810677E+02  0.90000072978E+02 0.  0.
        -12    1    1    2    0    0  0.35563825696E+00 -0.37571803500E+00  0.10607564407E+01  0.11801893230E+01  0.00000000000E+00 0.  1.
         11    1    3    3    0    0  0.92850606048E+01  0.24240003454E+01 -0.68563888362E+00  0.96207187387E+01  0.51100000000E-03 0. -1.
        -11    1    3    3    0    0  0.22365994183E+02  0.28200557883E+02  0.35810960792E+01  0.36170891751E+02  0.51100000000E-03 0.  1.
         12    1    3    3    0    0 -0.32006693044E+02 -0.30248840193E+02 -0.39562136363E+01  0.44216200187E+02  0.00000000000E+00 0. -1.
</event>
<event>
 7    1  0.2641103E-015  0.9000764E+02  0.7816164E-02  0.1186339E+00
        -11   -1    0    0    0    0  0.00000000000E+00  0.00000000000E+00  0.45593999997E+02  0.45594000000E+02  0.51100000000E-03 0.  1.
         11   -1    0    0    0    0 -0.00000000000E+00 -0.00000000000E+00 -0.45593999997E+02  0.45594000000E+02  0.51100000000E-03 0. -1.
    9900012    2    1    2    0    0  0.11610308838E+01 -0.49255778577E-01 -0.20697948207E+00  0.90007635924E+02  0.89999895919E+02 0.  0.
        -12    1    1    2    0    0 -0.11610308838E+01  0.49255778577E-01  0.20697948207E+00  0.11803640756E+01  0.00000000000E+00 0.  1.
         11    1    3    3    0    0 -0.26043211204E+01 -0.33330803915E+01 -0.89822027631E+01  0.99283372290E+01  0.51100000000E-03 0. -1.
        -11    1    3    3    0    0 -0.96712800566E+01 -0.53408825191E+01  0.41886738346E+02  0.43319251305E+02  0.51100000000E-03 0.  1.
         12    1    3    3    0    0  0.13436632061E+02  0.86247071320E+01 -0.33111515065E+02  0.36760047391E+02  0.00000000000E+00 0. -1.
</event>
<event>
 7    1  0.2641103E-015  0.9000764E+02  0.7816164E-02  0.1186339E+00
        -11   -1    0    0    0    0  0.00000000000E+00  0.00000000000E+00  0.45593999997E+02  0.45594000000E+02  0.51100000000E-03 0. -1.
         11   -1    0    0    0    0 -0.00000000000E+00 -0.00000000000E+00 -0.45593999997E+02  0.45594000000E+02  0.51100000000E-03 0.  1.
    9900012    2    1    2    0    0  0.29801017094E+00  0.24782024472E+00  0.11149093075E+01  0.90007640860E+02  0.89999900919E+02 0.  0.
        -12    1    1    2    0    0 -0.29801017094E+00 -0.24782024472E+00 -0.11149093075E+01  0.11803591401E+01  0.00000000000E+00 0.  1.
         11    1    3    3    0    0  0.38157104392E+01  0.34907082360E+02  0.19676135967E+02  0.40251886563E+02  0.51100000000E-03 0. -1.
        -11    1    3    3    0    0 -0.47311662579E+01 -0.49634124715E+01  0.75465314715E+01  0.10196545250E+02  0.51100000000E-03 0.  1.
        -12    1    3    3    0    0  0.12134659897E+01 -0.29695849644E+02 -0.26107758131E+02  0.39559209047E+02  0.00000000000E+00 0.  1.
</event>
<event>
 7    1  0.2641103E-015  0.9000770E+02  0.7816164E-02  0.1186339E+00
        -11   -1    0    0    0    0  0.00000000000E+00  0.00000000000E+00  0.45593999997E+02  0.45594000000E+02  0.51100000000E-03 0. -1.
         11   -1    0    0    0    0 -0.00000000000E+00 -0.00000000000E+00 -0.45593999997E+02  0.45594000000E+02  0.51100000000E-03 0.  1.
    9900012    2    1    2    0    0 -0.82625911405E+00  0.34302368469E+00  0.76989764963E+00  0.90007698444E+02  0.89999959264E+02 0.  0.
        -12    1    1    2    0    0  0.82625911405E+00 -0.34302368469E+00 -0.76989764963E+00  0.11803015558E+01  0.00000000000E+00 0.  1.
         11    1    3    3    0    0 -0.49013764233E+01  0.60449176720E+01  0.31119794234E+01  0.83814638755E+01  0.51100000000E-03 0. -1.
        -11    1    3    3    0    0 -0.24384164008E+02  0.28226845673E+02 -0.16305423258E+01  0.37336321988E+02  0.51100000000E-03 0.  1.
         12    1    3    3    0    0  0.28459281317E+02 -0.33928739661E+02 -0.71153944796E+00  0.44289912581E+02  0.00000000000E+00 0. -1.
</event>
<event>
 7    1  0.2641103E-015  0.9000678E+02  0.7816164E-02  0.1186341E+00
        -11   -1    0    0    0    0  0.00000000000E+00  0.00000000000E+00  0.45593999997E+02  0.45594000000E+02  0.51100000000E-03 0. -1.
         11   -1    0    0    0    0 -0.00000000000E+00 -0.00000000000E+00 -0.45593999997E+02  0.45594000000E+02  0.51100000000E-03 0.  1.
    9900012    2    1    2    0    0  0.24230659958E+00  0.13555017123E+00 -0.11481227977E+01  0.90006783553E+02  0.89999032290E+02 0.  0.
        -12    1    1    2    0    0 -0.24230659958E+00 -0.13555017123E+00  0.11481227977E+01  0.11812164474E+01  0.00000000000E+00 0.  1.
         11    1    3    3    0    0  0.50892055015E+01 -0.62212341952E+01 -0.46216119519E+01  0.92716268714E+01  0.51100000000E-03 0. -1.
        -11    1    3    3    0    0  0.17776765239E+02  0.77323497450E+01 -0.32719345388E+02  0.38031015998E+02  0.51100000000E-03 0.  1.
         12    1    3    3    0    0 -0.22623664141E+02 -0.13755653786E+01  0.36192834542E+02  0.42704140683E+02  0.00000000000E+00 0. -1.
</event>
<event>
 7    1  0.2641103E-015  0.9000770E+02  0.7816164E-02  0.1186339E+00
        -11   -1    0    0    0    0  0.00000000000E+00  0.00000000000E+00  0.45593999997E+02  0.45594000000E+02  0.51100000000E-03 0. -1.
         11   -1    0    0    0    0 -0.00000000000E+00 -0.00000000000E+00 -0.45593999997E+02  0.45594000000E+02  0.51100000000E-03 0.  1.
    9900012    2    1    2    0    0 -0.89807726640E+00  0.76586145262E+00  0.32259292869E-02  0.90007704720E+02  0.89999965622E+02 0.  0.
        -12    1    1    2    0    0  0.89807726640E+00 -0.76586145262E+00 -0.32259292869E-02  0.11802952799E+01  0.00000000000E+00 0.  1.
         11    1    3    3    0    0 -0.63322326335E+01 -0.13933417609E+02 -0.31127752060E+02  0.34686802173E+02  0.51100000000E-03 0. -1.
        -11    1    3    3    0    0 -0.16187481547E+01  0.26167919615E+01 -0.10741240043E+02  0.11173279898E+02  0.51100000000E-03 0.  1.
        -12    1    3    3    0    0  0.70529035218E+01  0.12082487100E+02  0.41872218033E+02  0.44147622649E+02  0.00000000000E+00 0.  1.
</event>
<event>
 7    1  0.2641103E-015  0.9000777E+02  0.7816164E-02  0.1186339E+00
        -11   -1    0    0    0    0  0.00000000000E+00  0.00000000000E+00  0.45593999997E+02  0.45594000000E+02  0.51100000000E-03 0. -1.
         11   -1    0    0    0    0 -0.00000000000E+00 -0.00000000000E+00 -0.45593999997E+02  0.45594000000E+02  0.51100000000E-03 0.  1.
    9900012    2    1    2    0    0  0.62115936199E+00  0.99698615275E+00  0.11451213062E+00  0.90007774017E+02  0.90000035835E+02 0.  0.
        -12    1    1    2    0    0 -0.62115936199E+00 -0.99698615275E+00 -0.11451213062E+00  0.11802259825E+01  0.00000000000E+00 0.  1.
         11    1    3    3    0    0  0.16785732737E+01 -0.13485382383E+02  0.33605715778E+02  0.36249376263E+02  0.51100000000E-03 0. -1.
        -11    1    3    3    0    0  0.82515318577E+01 -0.21028620393E+01  0.56650257399E+01  0.10227527739E+02  0.51100000000E-03 0.  1.
        -12    1    3    3    0    0 -0.93089457694E+01  0.16585230575E+02 -0.39156229387E+02  0.43530870016E+02  0.00000000000E+00 0.  1.
</event>
<event>
 7    1  0.2641103E-015  0.9000775E+02  0.7816164E-02  0.1186339E+00
        -11   -1    0    0    0    0  0.00000000000E+00  0.00000000000E+00  0.45593999997E+02  0.45594000000E+02  0.51100000000E-03 0.  1.
         11   -1    0    0    0    0 -0.00000000000E+00 -0.00000000000E+00 -0.45593999997E+02  0.45594000000E+02  0.51100000000E-03 0. -1.
    9900012    2    1    2    0    0 -0.10000736469E+01 -0.32964357204E+00 -0.53307437083E+00  0.90007754064E+02  0.90000015618E+02 0.  0.
        -12    1    1    2    0    0  0.10000736469E+01  0.32964357204E+00  0.53307437083E+00  0.11802459357E+01  0.00000000000E+00 0.  1.
         11    1    3    3    0    0  0.66110640618E+01 -0.36160391367E+02 -0.13822770403E+02  0.39272752051E+02  0.51100000000E-03 0. -1.
        -11    1    3    3    0    0 -0.74400377072E+01 -0.31640903590E+01  0.80153638277E+01  0.11384712839E+02  0.51100000000E-03 0.  1.
        -12    1    3    3    0    0 -0.17110000160E+00  0.38994838154E+02  0.52743322047E+01  0.39350289173E+02  0.00000000000E+00 0.  1.
</event>
<event>
 7    1  0.2676123E-015  0.9000753E+02  0.7816164E-02  0.1186339E+00
        -11   -1    0    0    0    0  0.00000000000E+00  0.00000000000E+00  0.45593999997E+02  0.45594000000E+02  0.51100000000E-03 0.  1.
         11   -1    0    0    0    0 -0.00000000000E+00 -0.00000000000E+00 -0.45593999997E+02  0.45594000000E+02  0.51100000000E-03 0. -1.
    9900012    2    1    2    0    0 -0.33607210723E+00  0.10656802748E+01 -0.38064645006E+00  0.90007529488E+02  0.89999788077E+02 0.  0.
        -12    1    1    2    0    0  0.33607210723E+00 -0.10656802748E+01  0.38064645006E+00  0.11804705118E+01  0.00000000000E+00 0.  1.
         11    1    3    3    0    0 -0.68582154032E+01 -0.34175033971E+01 -0.53998927543E+01  0.93740754214E+01  0.51100000000E-03 0. -1.
        -11    1    3    3    0    0 -0.20277250320E+02 -0.28353880534E+02 -0.89799252647E+01  0.35996506496E+02  0.51100000000E-03 0.  1.
         12    1    3    3    0    0  0.26799393616E+02  0.32837064206E+02  0.13999171569E+02  0.44636947571E+02  0.00000000000E+00 0. -1.
</event>
<event>
 7    1  0.2641103E-015  0.9000742E+02  0.7816164E-02  0.1186340E+00
        -11   -1    0    0    0    0  0.00000000000E+00  0.00000000000E+00  0.45593999997E+02  0.45594000000E+02  0.51100000000E-03 0.  1.
         11   -1    0    0    0    0 -0.00000000000E+00 -0.00000000000E+00 -0.45593999997E+02  0.45594000000E+02  0.51100000000E-03 0. -1.
    9900012    2    1    2    0    0  0.55910106588E+00  0.10225167556E+01 -0.18877236531E+00  0.90007419836E+02  0.89999676977E+02 0.  0.
        -12    1    1    2    0    0 -0.55910106588E+00 -0.10225167556E+01  0.18877236531E+00  0.11805801638E+01  0.00000000000E+00 0.  1.
         11    1    3    3    0    0 -0.38788830031E+02  0.91193625594E+01  0.12656910360E+02  0.41808294498E+02  0.51100000000E-03 0. -1.
        -11    1    3    3    0    0 -0.15573148758E+01 -0.47068969219E+01 -0.35951597282E+01  0.61241556143E+01  0.51100000000E-03 0.  1.
        -12    1    3    3    0    0  0.40905245973E+02 -0.33899488819E+01 -0.92505229974E+01  0.42074969724E+02  0.00000000000E+00 0.  1.
</event>
<event>
 7    1  0.2641103E-015  0.9000772E+02  0.7816164E-02  0.1186339E+00
        -11   -1    0    0    0    0  0.00000000000E+00  0.00000000000E+00  0.45593999997E+02  0.45594000000E+02  0.51100000000E-03 0.  1.
         11   -1    0    0    0    0 -0.00000000000E+00 -0.00000000000E+00 -0.45593999997E+02  0.45594000000E+02  0.51100000000E-03 0. -1.
    9900012    2    1    2    0    0 -0.10003067262E+00 -0.10582908509E+01  0.51290403602E+00  0.90007721977E+02  0.89999983107E+02 0.  0.
        -12    1    1    2    0    0  0.10003067262E+00  0.10582908509E+01 -0.51290403602E+00  0.11802780226E+01  0.00000000000E+00 0.  1.
         11    1    3    3    0    0 -0.93517542739E+01 -0.32807845406E+01  0.94828938221E+01  0.13716564100E+02  0.51100000000E-03 0. -1.
        -11    1    3    3    0    0 -0.18112509303E+02 -0.82874936655E+01  0.24646639840E+02  0.31689152721E+02  0.51100000000E-03 0.  1.
         12    1    3    3    0    0  0.27364232904E+02  0.10509987355E+02 -0.33616629626E+02  0.44602005157E+02  0.00000000000E+00 0. -1.
</event>
<event>
 7    1  0.2641103E-015  0.9000783E+02  0.7816164E-02  0.1186339E+00
        -11   -1    0    0    0    0  0.00000000000E+00  0.00000000000E+00  0.45593999997E+02  0.45594000000E+02  0.51100000000E-03 0.  1.
         11   -1    0    0    0    0 -0.00000000000E+00 -0.00000000000E+00 -0.45593999997E+02  0.45594000000E+02  0.51100000000E-03 0. -1.
    9900012    2    1    2    0    0 -0.37769651265E+00  0.75371911107E+00 -0.82586220989E+00  0.90007832409E+02  0.90000094996E+02 0.  0.
        -12    1    1    2    0    0  0.37769651265E+00 -0.75371911107E+00  0.82586220989E+00  0.11801675914E+01  0.00000000000E+00 0.  1.
         11    1    3    3    0    0  0.85105382317E+01 -0.71705583829E+00  0.41689274749E+00  0.85508613538E+01  0.51100000000E-03 0. -1.
        -11    1    3    3    0    0 -0.29632547671E+01  0.37936792666E+02  0.15255231563E+02  0.40996380413E+02  0.51100000000E-03 0.  1.
         12    1    3    3    0    0 -0.59249799772E+01 -0.36466017717E+02 -0.16497986521E+02  0.40460590642E+02  0.00000000000E+00 0. -1.
</event>
<event>
 7    1  0.2641103E-015  0.9000778E+02  0.7816164E-02  0.1186339E+00
        -11   -1    0    0    0    0  0.00000000000E+00  0.00000000000E+00  0.45593999997E+02  0.45594000000E+02  0.51100000000E-03 0.  1.
         11   -1    0    0    0    0 -0.00000000000E+00 -0.00000000000E+00 -0.45593999997E+02  0.45594000000E+02  0.51100000000E-03 0. -1.
    9900012    2    1    2    0    0 -0.54184218815E+00  0.10362993852E+01  0.15938917934E+00  0.90007782104E+02  0.90000044027E+02 0.  0.
        -12    1    1    2    0    0  0.54184218815E+00 -0.10362993852E+01 -0.15938917934E+00  0.11802178965E+01  0.00000000000E+00 0.  1.
         11    1    3    3    0    0  0.16820152880E+02  0.31992345688E+02 -0.15787099939E+02  0.39441859112E+02  0.51100000000E-03 0. -1.
        -11    1    3    3    0    0  0.54902791282E+01 -0.15133704313E+02 -0.37122166134E+01  0.16521280931E+02  0.51100000000E-03 0.  1.
        -12    1    3    3    0    0 -0.22852274196E+02 -0.15822341989E+02  0.19658705732E+02  0.34044642060E+02  0.00000000000E+00 0.  1.
</event>
<event>
 7    1  0.2641103E-015  0.9000798E+02  0.7816164E-02  0.1186339E+00
        -11   -1    0    0    0    0  0.00000000000E+00  0.00000000000E+00  0.45593999997E+02  0.45594000000E+02  0.51100000000E-03 0.  1.
         11   -1    0    0    0    0 -0.00000000000E+00 -0.00000000000E+00 -0.45593999997E+02  0.45594000000E+02  0.51100000000E-03 0. -1.
    9900012    2    1    2    0    0 -0.10263388047E+01  0.46928077449E+00 -0.34473736895E+00  0.90007983203E+02  0.90000247781E+02 0.  0.
        -12    1    1    2    0    0  0.10263388047E+01 -0.46928077449E+00  0.34473736895E+00  0.11800167968E+01  0.00000000000E+00 0.  1.
         11    1    3    3    0    0 -0.98682463977E+01  0.10403227809E+02  0.11026556460E+01  0.14381421541E+02  0.51100000000E-03 0. -1.
        -11    1    3    3    0    0  0.23967977735E+02  0.18614667107E+02  0.20451930896E+02  0.36595782077E+02  0.51100000000E-03 0.  1.
         12    1    3    3    0    0 -0.15126070142E+02 -0.28548614141E+02 -0.21899323911E+02  0.39030779585E+02  0.00000000000E+00 0. -1.
</event>
<event>
 7    1  0.2641103E-015  0.9000778E+02  0.7816164E-02  0.1186339E+00
        -11   -1    0    0    0    0  0.00000000000E+00  0.00000000000E+00  0.45593999997E+02  0.45594000000E+02  0.51100000000E-03 0. -1.
         11   -1    0    0    0    0 -0.00000000000E+00 -0.00000000000E+00 -0.45593999997E+02  0.45594000000E+02  0.51100000000E-03 0.  1.
    9900012    2    1    2    0    0  0.11400652303E+01  0.66132705266E-01 -0.29797508964E+00  0.90007783317E+02  0.90000045257E+02 0.  0.
        -12    1    1    2    0    0 -0.11400652303E+01 -0.66132705266E-01  0.29797508964E+00  0.11802166827E+01  0.00000000000E+00 0.  1.
         11    1    3    3    0    0  0.23562795096E+01 -0.75168616904E+01  0.16814334152E+01  0.80549662563E+01  0.51100000000E-03 0. -1.
        -11    1    3    3    0    0 -0.92796544077E+01 -0.36057181428E+02  0.26887767484E+01  0.37329101772E+02  0.51100000000E-03 0.  1.
         12    1    3    3    0    0  0.80634401285E+01  0.43640175824E+02 -0.46681852533E+01  0.44623715289E+02  0.00000000000E+00 0. -1.
</event>
<event>
 7    1  0.2641103E-015  0.9000776E+02  0.7816164E-02  0.1186339E+00
        -11   -1    0    0    0    0  0.00000000000E+00  0.00000000000E+00  0.45593999997E+02  0.45594000000E+02  0.51100000000E-03 0.  1.
         11   -1    0    0    0    0 -0.00000000000E+00 -0.00000000000E+00 -0.45593999997E+02  0.45594000000E+02  0.51100000000E-03 0. -1.
    9900012    2    1    2    0    0 -0.10570494729E+01  0.52125962434E+00 -0.62423236277E-01  0.90007761954E+02  0.90000023612E+02 0.  0.
        -12    1    1    2    0    0  0.10570494729E+01 -0.52125962434E+00  0.62423236277E-01  0.11802380457E+01  0.00000000000E+00 0.  1.
         11    1    3    3    0    0 -0.29282572418E+02  0.21045837687E+02 -0.14772083459E+02  0.38969356953E+02  0.51100000000E-03 0. -1.
        -11    1    3    3    0    0  0.80953888369E+01  0.96263660675E+01  0.28741083544E+01  0.12902044147E+02  0.51100000000E-03 0.  1.
        -12    1    3    3    0    0  0.20130134108E+02 -0.30150944130E+02  0.11835551868E+02  0.38136360854E+02  0.00000000000E+00 0.  1.
</event>
<event>
 7    1  0.2641103E-015  0.9000778E+02  0.7816164E-02  0.1186339E+00
        -11   -1    0    0    0    0  0.00000000000E+00  0.00000000000E+00  0.45593999997E+02  0.45594000000E+02  0.51100000000E-03 0. -1.
         11   -1    0    0    0    0 -0.00000000000E+00 -0.00000000000E+00 -0.45593999997E+02  0.45594000000E+02  0.51100000000E-03 0.  1.
    9900012    2    1    2    0    0  0.16755031196E+00 -0.11631237462E+01  0.10948624535E+00  0.90007780870E+02  0.90000042778E+02 0.  0.
        -12    1    1    2    0    0 -0.16755031196E+00  0.11631237462E+01 -0.10948624535E+00  0.11802191297E+01  0.00000000000E+00 0.  1.
         11    1    3    3    0    0 -0.12985203190E+01 -0.96068690899E+01 -0.16692813541E+01  0.98368993708E+01  0.51100000000E-03 0. -1.
        -11    1    3    3    0    0 -0.68641992479E+01  0.25684315944E+02 -0.31841068839E+02  0.41480778463E+02  0.51100000000E-03 0.  1.
         12    1    3    3    0    0  0.83302698788E+01 -0.17240570600E+02  0.33619836438E+02  0.38690103037E+02  0.00000000000E+00 0. -1.
</event>
<event>
 7    1  0.2641103E-015  0.9000778E+02  0.7816164E-02  0.1186339E+00
        -11   -1    0    0    0    0  0.00000000000E+00  0.00000000000E+00  0.45593999997E+02  0.45594000000E+02  0.51100000000E-03 0.  1.
         11   -1    0    0    0    0 -0.00000000000E+00 -0.00000000000E+00 -0.45593999997E+02  0.45594000000E+02  0.51100000000E-03 0. -1.
    9900012    2    1    2    0    0 -0.46087632727E+00 -0.99233784626E+00 -0.44245680698E+00  0.90007784165E+02  0.90000046116E+02 0.  0.
        -12    1    1    2    0    0  0.46087632727E+00  0.99233784626E+00  0.44245680698E+00  0.11802158346E+01  0.00000000000E+00 0.  1.
         11    1    3    3    0    0  0.53187251661E-01 -0.54974183934E+01 -0.41734840115E+02  0.42095383566E+02  0.51100000000E-03 0. -1.
        -11    1    3    3    0    0  0.30178042323E+01  0.82558420616E+01  0.30194197756E+01  0.92942437332E+01  0.51100000000E-03 0.  1.
        -12    1    3    3    0    0 -0.35318678112E+01 -0.37507615144E+01  0.38272963533E+02  0.38618156866E+02  0.00000000000E+00 0.  1.
</event>
<event>
 7    1  0.2641103E-015  0.9000772E+02  0.7816164E-02  0.1186339E+00
        -11   -1    0    0    0    0  0.00000000000E+00  0.00000000000E+00  0.45593999997E+02  0.45594000000E+02  0.51100000000E-03 0.  1.
         11   -1    0    0    0    0 -0.00000000000E+00 -0.00000000000E+00 -0.45593999997E+02  0.45594000000E+02  0.51100000000E-03 0. -1.
    9900012    2    1    2    0    0  0.26814359571E+00 -0.74712286575E+00 -0.87347467712E+00  0.90007723941E+02  0.89999985097E+02 0.  0.
        -12    1    1    2    0    0 -0.26814359571E+00  0.74712286575E+00  0.87347467712E+00  0.11802760592E+01  0.00000000000E+00 0.  1.
         11    1    3    3    0    0 -0.23844124639E+01  0.59004549956E+01  0.83562880065E+01  0.10503729883E+02  0.51100000000E-03 0. -1.
        -11    1    3    3    0    0 -0.18296691360E+02  0.29995057038E+02  0.37756088541E+01  0.35337339796E+02  0.51100000000E-03 0.  1.
         12    1    3    3    0    0  0.20949247419E+02 -0.36642634899E+02 -0.13005371538E+02  0.44166654261E+02  0.00000000000E+00 0. -1.
</event>
<event>
 7    1  0.2641103E-015  0.9000776E+02  0.7816164E-02  0.1186339E+00
        -11   -1    0    0    0    0  0.00000000000E+00  0.00000000000E+00  0.45593999997E+02  0.45594000000E+02  0.51100000000E-03 0.  1.
         11   -1    0    0    0    0 -0.00000000000E+00 -0.00000000000E+00 -0.45593999997E+02  0.45594000000E+02  0.51100000000E-03 0. -1.
    9900012    2    1    2    0    0  0.93941147242E+00 -0.40878806881E-01 -0.71330110691E+00  0.90007761270E+02  0.90000022918E+02 0.  0.
        -12    1    1    2    0    0 -0.93941147242E+00  0.40878806881E-01  0.71330110691E+00  0.11802387303E+01  0.00000000000E+00 0.  1.
         11    1    3    3    0    0 -0.22886447190E+02  0.31723489275E+02  0.10684203518E+02  0.40550233561E+02  0.51100000000E-03 0. -1.
        -11    1    3    3    0    0 -0.13175493510E+01  0.49452303419E+00 -0.83238641818E+01  0.84419905533E+01  0.51100000000E-03 0.  1.
        -12    1    3    3    0    0  0.25143408013E+02 -0.32258891116E+02 -0.30736404429E+01  0.41015537155E+02  0.00000000000E+00 0.  1.
</event>
<event>
 7    1  0.2641103E-015  0.9000783E+02  0.7816164E-02  0.1186339E+00
        -11   -1    0    0    0    0  0.00000000000E+00  0.00000000000E+00  0.45593999997E+02  0.45594000000E+02  0.51100000000E-03 0. -1.
         11   -1    0    0    0    0 -0.00000000000E+00 -0.00000000000E+00 -0.45593999997E+02  0.45594000000E+02  0.51100000000E-03 0.  1.
    9900012    2    1    2    0    0  0.94257845147E+00 -0.17677342304E+00  0.68782832196E+00  0.90007825953E+02  0.90000088456E+02 0.  0.
        -12    1    1    2    0    0 -0.94257845147E+00  0.17677342304E+00 -0.68782832196E+00  0.11801740468E+01  0.00000000000E+00 0.  1.
         11    1    3    3    0    0 -0.85906332490E+01 -0.10388482045E+02 -0.35969754925E+02  0.38412794853E+02  0.51100000000E-03 0. -1.
        -11    1    3    3    0    0 -0.59510677264E+01  0.18455839035E+01 -0.39225995200E+01  0.73626200692E+01  0.51100000000E-03 0.  1.
        -12    1    3    3    0    0  0.15484279427E+02  0.83661247180E+01  0.40580182767E+02  0.44232411031E+02  0.00000000000E+00 0.  1.
</event>
<event>
 7    1  0.2641103E-015  0.9000778E+02  0.7816164E-02  0.1186339E+00
        -11   -1    0    0    0    0  0.00000000000E+00  0.00000000000E+00  0.45593999997E+02  0.45594000000E+02  0.51100000000E-03 0. -1.
         11   -1    0    0    0    0 -0.00000000000E+00 -0.00000000000E+00 -0.45593999997E+02  0.45594000000E+02  0.51100000000E-03 0.  1.
    9900012    2    1    2    0    0  0.10597768183E+01 -0.48510789472E+00 -0.18564665000E+00  0.90007779151E+02  0.90000041036E+02 0.  0.
        -12    1    1    2    0    0 -0.10597768183E+01  0.48510789472E+00  0.18564665000E+00  0.11802208492E+01  0.00000000000E+00 0.  1.
         11    1    3    3    0    0  0.33062139648E+01  0.70464012000E+00  0.39204425021E+02  0.39349898474E+02  0.51100000000E-03 0. -1.
        -11    1    3    3    0    0  0.30676196492E+01 -0.74325717928E+01  0.21446081613E+01  0.83218242107E+01  0.51100000000E-03 0.  1.
        -12    1    3    3    0    0 -0.53140567957E+01  0.62428237781E+01 -0.41534679832E+02  0.42336056466E+02  0.00000000000E+00 0.  1.
</event>
<event>
 7    1  0.2641103E-015  0.9000774E+02  0.7816164E-02  0.1186339E+00
        -11   -1    0    0    0    0  0.00000000000E+00  0.00000000000E+00  0.45593999997E+02  0.45594000000E+02  0.51100000000E-03 0.  1.
         11   -1    0    0    0    0 -0.00000000000E+00 -0.00000000000E+00 -0.45593999997E+02  0.45594000000E+02  0.51100000000E-03 0. -1.
    9900012    2    1    2    0    0 -0.24358806467E+00  0.95678857488E+00 -0.64671646750E+00  0.90007736592E+02  0.89999997915E+02 0.  0.
        -12    1    1    2    0    0  0.24358806467E+00 -0.95678857488E+00  0.64671646750E+00  0.11802634077E+01  0.00000000000E+00 0.  1.
         11    1    3    3    0    0 -0.13428211670E+01 -0.10051180654E+02 -0.50622880869E+00  0.10153111301E+02  0.51100000000E-03 0. -1.
        -11    1    3    3    0    0 -0.17596926194E+02  0.36484285671E+02  0.16972066394E+02  0.43918173350E+02  0.51100000000E-03 0.  1.
         12    1    3    3    0    0  0.18696159297E+02 -0.25476316443E+02 -0.17112554053E+02  0.35936451942E+02  0.00000000000E+00 0. -1.
</event>
<event>
 7    1  0.2641103E-015  0.9000757E+02  0.7816164E-02  0.1186339E+00
        -11   -1    0    0    0    0  0.00000000000E+00  0.00000000000E+00  0.45593999997E+02  0.45594000000E+02  0.51100000000E-03 0.  1.
         11   -1    0    0    0    0 -0.00000000000E+00 -0.00000000000E+00 -0.45593999997E+02  0.45594000000E+02  0.51100000000E-03 0. -1.
    9900012    2    1    2    0    0  0.84691859475E+00 -0.81377059351E+00 -0.11798528683E+00  0.90007570327E+02  0.89999829455E+02 0.  0.
        -12    1    1    2    0    0 -0.84691859475E+00  0.81377059351E+00  0.11798528683E+00  0.11804296730E+01  0.00000000000E+00 0.  1.
         11    1    3    3    0    0  0.20091656691E+01 -0.87744063018E+01 -0.30891118878E+01  0.95168043561E+01  0.51100000000E-03 0. -1.
        -11    1    3    3    0    0 -0.16263070290E+02 -0.27193173506E+02 -0.18426577986E+02  0.36653716280E+02  0.51100000000E-03 0.  1.
         12    1    3    3    0    0  0.15100823215E+02  0.35153809214E+02  0.21397704587E+02  0.43837049691E+02  0.00000000000E+00 0. -1.
</event>
<event>
 7    1  0.2641103E-015  0.9000783E+02  0.7816164E-02  0.1186339E+00
        -11   -1    0    0    0    0  0.00000000000E+00  0.00000000000E+00  0.45593999997E+02  0.45594000000E+02  0.51100000000E-03 0.  1.
         11   -1    0    0    0    0 -0.00000000000E+00 -0.00000000000E+00 -0.45593999997E+02  0.45594000000E+02  0.51100000000E-03 0. -1.
    9900012    2    1    2    0    0  0.37251955725E+00 -0.11182497901E+01  0.59556207468E-01  0.90007830370E+02  0.90000092931E+02 0.  0.
        -12    1    1    2    0    0 -0.37251955725E+00  0.11182497901E+01 -0.59556207468E-01  0.11801696299E+01  0.00000000000E+00 0.  1.
         11    1    3    3    0    0  0.13735873108E+02  0.98493537516E+01 -0.33638439777E+02  0.37646096880E+02  0.51100000000E-03 0. -1.
        -11    1    3    3    0    0 -0.27208385102E+01  0.83820281378E+01 -0.31871605806E+01  0.93711979346E+01  0.51100000000E-03 0.  1.
        -12    1    3    3    0    0 -0.10642515040E+02 -0.19349631679E+02  0.36885156565E+02  0.42990535556E+02  0.00000000000E+00 0.  1.
</event>
<event>
 7    1  0.2641103E-015  0.9000774E+02  0.7816164E-02  0.1186339E+00
        -11   -1    0    0    0    0  0.00000000000E+00  0.00000000000E+00  0.45593999997E+02  0.45594000000E+02  0.51100000000E-03 0. -1.
         11   -1    0    0    0    0 -0.00000000000E+00 -0.00000000000E+00 -0.45593999997E+02  0.45594000000E+02  0.51100000000E-03 0.  1.
    9900012    2    1    2    0    0  0.42307302528E+00 -0.44814920888E+00  0.10065660225E+01  0.90007744241E+02  0.90000005665E+02 0.  0.
        -12    1    1    2    0    0 -0.42307302528E+00  0.44814920888E+00 -0.10065660225E+01  0.11802557587E+01  0.00000000000E+00 0.  1.
         11    1    3    3    0    0 -0.20001028390E+02  0.26558742817E+02 -0.15213565347E+02  0.36563103362E+02  0.51100000000E-03 0. -1.
        -11    1    3    3    0    0  0.39392424787E+00  0.22068246400E+01 -0.94420650481E+01  0.97045269817E+01  0.51100000000E-03 0.  1.
        -12    1    3    3    0    0  0.20030177167E+02 -0.29213716666E+02  0.25662196417E+02  0.43740113897E+02  0.00000000000E+00 0.  1.
</event>
<event>
 7    1  0.3370253E-015  0.9000776E+02  0.7816164E-02  0.1186339E+00
        -11   -1    0    0    0    0  0.00000000000E+00  0.00000000000E+00  0.45593999997E+02  0.45594000000E+02  0.51100000000E-03 0.  1.
         11   -1    0    0    0    0 -0.00000000000E+00 -0.00000000000E+00 -0.45593999997E+02  0.45594000000E+02  0.51100000000E-03 0. -1.
    9900012    2    1    2    0    0  0.89990597505E+00  0.49016948213E+00 -0.58555192629E+00  0.90007759371E+02  0.90000020994E+02 0.  0.
        -12    1    1    2    0    0 -0.89990597505E+00 -0.49016948213E+00  0.58555192629E+00  0.11802406295E+01  0.00000000000E+00 0.  1.
         11    1    3    3    0    0  0.25664371780E+01  0.47471944711E+01  0.79819077534E+01  0.96350042439E+01  0.51100000000E-03 0. -1.
        -11    1    3    3    0    0 -0.27659197574E+02  0.21982324768E+02  0.12948463600E+02  0.37628666233E+02  0.51100000000E-03 0.  1.
         12    1    3    3    0    0  0.25992666371E+02 -0.26239349757E+02 -0.21515923280E+02  0.42744088893E+02  0.00000000000E+00 0. -1.
</event>
<event>
 7    1  0.2641103E-015  0.9000777E+02  0.7816164E-02  0.1186339E+00
        -11   -1    0    0    0    0  0.00000000000E+00  0.00000000000E+00  0.45593999997E+02  0.45594000000E+02  0.51100000000E-03 0. -1.
         11   -1    0    0    0    0 -0.00000000000E+00 -0.00000000000E+00 -0.45593999997E+02  0.45594000000E+02  0.51100000000E-03 0.  1.
    9900012    2    1    2    0    0  0.95638308099E+00  0.23579051209E+00  0.65012738372E+00  0.90007774861E+02  0.90000036689E+02 0.  0.
        -12    1    1    2    0    0 -0.95638308099E+00 -0.23579051209E+00 -0.65012738372E+00  0.11802251388E+01  0.00000000000E+00 0.  1.
         11    1    3    3    0    0  0.11582363908E+02 -0.24750775365E+02  0.22938664251E+02  0.35678205571E+02  0.51100000000E-03 0. -1.
        -11    1    3    3    0    0  0.80117811498E+01 -0.27523755891E+01  0.61337540943E+01  0.10458831107E+02  0.51100000000E-03 0.  1.
        -12    1    3    3    0    0 -0.18637761977E+02  0.27738941466E+02 -0.28422290962E+02  0.43870738183E+02  0.00000000000E+00 0.  1.
</event>
<event>
 7    1  0.2641103E-015  0.9000814E+02  0.7816164E-02  0.1186338E+00
        -11   -1    0    0    0    0  0.00000000000E+00  0.00000000000E+00  0.45593999997E+02  0.45594000000E+02  0.51100000000E-03 0.  1.
         11   -1    0    0    0    0 -0.00000000000E+00 -0.00000000000E+00 -0.45593999997E+02  0.45594000000E+02  0.51100000000E-03 0. -1.
    9900012    2    1    2    0    0 -0.45554099837E+00  0.98787618195E+00 -0.45677339698E+00  0.90008144548E+02  0.90000411255E+02 0.  0.
        -12    1    1    2    0    0  0.45554099837E+00 -0.98787618195E+00  0.45677339698E+00  0.11798554523E+01  0.00000000000E+00 0.  1.
         11    1    3    3    0    0 -0.46622839632E+01 -0.96917490044E+01 -0.13363741557E+01  0.10837563687E+02  0.51100000000E-03 0. -1.
        -11    1    3    3    0    0 -0.26645657757E+02  0.16268363608E+02  0.24687909069E+02  0.39801301314E+02  0.51100000000E-03 0.  1.
         12    1    3    3    0    0  0.30852400722E+02 -0.55887384214E+01 -0.23808308310E+02  0.39369279547E+02  0.00000000000E+00 0. -1.
</event>
<event>
 7    1  0.3345755E-015  0.9000775E+02  0.7816164E-02  0.1186339E+00
        -11   -1    0    0    0    0  0.00000000000E+00  0.00000000000E+00  0.45593999997E+02  0.45594000000E+02  0.51100000000E-03 0. -1.
         11   -1    0    0    0    0 -0.00000000000E+00 -0.00000000000E+00 -0.45593999997E+02  0.45594000000E+02  0.51100000000E-03 0.  1.
    9900012    2    1    2    0    0 -0.73907190613E+00 -0.47585798220E+00  0.78761178226E+00  0.90007745612E+02  0.90000007054E+02 0.  0.
        -12    1    1    2    0    0  0.73907190613E+00  0.47585798220E+00 -0.78761178226E+00  0.11802543883E+01  0.00000000000E+00 0.  1.
         11    1    3    3    0    0  0.54243845096E+01 -0.77102152116E+01  0.19317273977E+01  0.96230419783E+01  0.51100000000E-03 0. -1.
        -11    1    3    3    0    0 -0.18651930870E+02 -0.25378732039E+02 -0.23166745058E+02  0.39098243463E+02  0.51100000000E-03 0.  1.
         12    1    3    3    0    0  0.12488474454E+02  0.32613089268E+02  0.22022629442E+02  0.41286460170E+02  0.00000000000E+00 0. -1.
</event>
<event>
 7    1  0.2641103E-015  0.9000788E+02  0.7816164E-02  0.1186339E+00
        -11   -1    0    0    0    0  0.00000000000E+00  0.00000000000E+00  0.45593999997E+02  0.45594000000E+02  0.51100000000E-03 0. -1.
         11   -1    0    0    0    0 -0.00000000000E+00 -0.00000000000E+00 -0.45593999997E+02  0.45594000000E+02  0.51100000000E-03 0.  1.
    9900012    2    1    2    0    0  0.56028988141E-01 -0.57718325162E+00  0.10278161193E+01  0.90007878935E+02  0.90000142137E+02 0.  0.
        -12    1    1    2    0    0 -0.56028988141E-01  0.57718325162E+00 -0.10278161193E+01  0.11801210652E+01  0.00000000000E+00 0.  1.
         11    1    3    3    0    0 -0.17768730810E+02 -0.29178683929E+02  0.61718719207E+01  0.34716212260E+02  0.51100000000E-03 0. -1.
        -11    1    3    3    0    0 -0.90910404122E+01 -0.62303526361E+01 -0.58327547341E+00  0.11036508519E+02  0.51100000000E-03 0.  1.
        -12    1    3    3    0    0  0.26915800211E+02  0.34831853313E+02 -0.45607803280E+01  0.44255158156E+02  0.00000000000E+00 0.  1.
</event>
<event>
 7    1  0.2641103E-015  0.9000757E+02  0.7816164E-02  0.1186339E+00
        -11   -1    0    0    0    0  0.00000000000E+00  0.00000000000E+00  0.45593999997E+02  0.45594000000E+02  0.51100000000E-03 0.  1.
         11   -1    0    0    0    0 -0.00000000000E+00 -0.00000000000E+00 -0.45593999997E+02  0.45594000000E+02  0.51100000000E-03 0. -1.
    9900012    2    1    2    0    0 -0.44221792492E+00  0.33294153935E+00 -0.10425968535E+01  0.90007570010E+02  0.89999829134E+02 0.  0.
        -12    1    1    2    0    0  0.44221792492E+00 -0.33294153935E+00  0.10425968535E+01  0.11804299897E+01  0.00000000000E+00 0.  1.
         11    1    3    3    0    0  0.69204461727E+01 -0.15943109702E+00  0.74644483002E+01  0.10180175941E+02  0.51100000000E-03 0. -1.
        -11    1    3    3    0    0 -0.48478006749E+01  0.22757920456E+02  0.28360689206E+02  0.36684503641E+02  0.51100000000E-03 0.  1.
         12    1    3    3    0    0 -0.25148634227E+01 -0.22265547819E+02 -0.36867734360E+02  0.43142890429E+02  0.00000000000E+00 0. -1.
</event>
<event>
 7    1  0.2641103E-015  0.9000721E+02  0.7816164E-02  0.1186340E+00
        -11   -1    0    0    0    0  0.00000000000E+00  0.00000000000E+00  0.45593999997E+02  0.45594000000E+02  0.51100000000E-03 0. -1.
         11   -1    0    0    0    0 -0.00000000000E+00 -0.00000000000E+00 -0.45593999997E+02  0.45594000000E+02  0.51100000000E-03 0.  1.
    9900012    2    1    2    0    0  0.62725770429E+00 -0.63656590030E+00  0.77174639344E+00  0.90007211760E+02  0.89999466153E+02 0.  0.
        -12    1    1    2    0    0 -0.62725770429E+00  0.63656590030E+00 -0.77174639344E+00  0.11807882405E+01  0.00000000000E+00 0.  1.
         11    1    3    3    0    0 -0.27840586549E+02 -0.25952200145E+02 -0.23811642827E+01  0.38135087457E+02  0.51100000000E-03 0. -1.
        -11    1    3    3    0    0 -0.39457409395E+01 -0.49878114439E+01 -0.30754839834E+01  0.70643992353E+01  0.51100000000E-03 0.  1.
        -12    1    3    3    0    0  0.32413585193E+02  0.30303445688E+02  0.62283946596E+01  0.44807725067E+02  0.00000000000E+00 0.  1.
</event>
<event>
 7    1  0.2641103E-015  0.9000778E+02  0.7816164E-02  0.1186339E+00
        -11   -1    0    0    0    0  0.00000000000E+00  0.00000000000E+00  0.45593999997E+02  0.45594000000E+02  0.51100000000E-03 0.  1.
         11   -1    0    0    0    0 -0.00000000000E+00 -0.00000000000E+00 -0.45593999997E+02  0.45594000000E+02  0.51100000000E-03 0. -1.
    9900012    2    1    2    0    0 -0.97410840135E+00 -0.31300633784E+00 -0.58827592798E+00  0.90007775991E+02  0.90000037834E+02 0.  0.
        -12    1    1    2    0    0  0.97410840135E+00  0.31300633784E+00  0.58827592798E+00  0.11802240095E+01  0.00000000000E+00 0.  1.
         11    1    3    3    0    0  0.17323385236E+02 -0.91519703194E+01 -0.85646748466E+01  0.21382513703E+02  0.51100000000E-03 0. -1.
        -11    1    3    3    0    0  0.12110738641E+02 -0.20157368285E+02 -0.61329888664E+01  0.24302325800E+02  0.51100000000E-03 0.  1.
        -12    1    3    3    0    0 -0.30408232279E+02  0.28996332266E+02  0.14109387785E+02  0.44322936487E+02  0.00000000000E+00 0.  1.
</event>
<event>
 7    1  0.2641103E-015  0.9000772E+02  0.7816164E-02  0.1186339E+00
        -11   -1    0    0    0    0  0.00000000000E+00  0.00000000000E+00  0.45593999997E+02  0.45594000000E+02  0.51100000000E-03 0. -1.
         11   -1    0    0    0    0 -0.00000000000E+00 -0.00000000000E+00 -0.45593999997E+02  0.45594000000E+02  0.51100000000E-03 0.  1.
    9900012    2    1    2    0    0 -0.33071150289E+00  0.39115893896E+00  0.10633408637E+01  0.90007716472E+02  0.89999977530E+02 0.  0.
        -12    1    1    2    0    0  0.33071150289E+00 -0.39115893896E+00 -0.10633408637E+01  0.11802835278E+01  0.00000000000E+00 0.  1.
         11    1    3    3    0    0  0.57243322292E+01 -0.53186367631E+01  0.82124748558E+00  0.78568647807E+01  0.51100000000E-03 0. -1.
        -11    1    3    3    0    0 -0.30156270580E+02 -0.27565566969E+02  0.30360448343E+01  0.40969240975E+02  0.51100000000E-03 0.  1.
         12    1    3    3    0    0  0.24101226848E+02  0.33275362671E+02 -0.27939514562E+01  0.41181610716E+02  0.00000000000E+00 0. -1.
</event>
<event>
 7    1  0.2641103E-015  0.9000776E+02  0.7816164E-02  0.1186339E+00
        -11   -1    0    0    0    0  0.00000000000E+00  0.00000000000E+00  0.45593999997E+02  0.45594000000E+02  0.51100000000E-03 0. -1.
         11   -1    0    0    0    0 -0.00000000000E+00 -0.00000000000E+00 -0.45593999997E+02  0.45594000000E+02  0.51100000000E-03 0.  1.
    9900012    2    1    2    0    0  0.21016169936E+00  0.11607809268E+01  0.37299773106E-01  0.90007757833E+02  0.90000019436E+02 0.  0.
        -12    1    1    2    0    0 -0.21016169936E+00 -0.11607809268E+01 -0.37299773106E-01  0.11802421671E+01  0.00000000000E+00 0.  1.
         11    1    3    3    0    0  0.87974167199E+01  0.28537959359E+02  0.28896546195E+02  0.41555024336E+02  0.51100000000E-03 0. -1.
        -11    1    3    3    0    0  0.53416267628E+01 -0.10502923002E+02  0.55087081593E+00  0.11796093717E+02  0.51100000000E-03 0.  1.
        -12    1    3    3    0    0 -0.13928881783E+02 -0.16874255431E+02 -0.29410117237E+02  0.36656639780E+02  0.00000000000E+00 0.  1.
</event>
<event>
 7    1  0.2641103E-015  0.9000746E+02  0.7816164E-02  0.1186340E+00
        -11   -1    0    0    0    0  0.00000000000E+00  0.00000000000E+00  0.45593999997E+02  0.45594000000E+02  0.51100000000E-03 0.  1.
         11   -1    0    0    0    0 -0.00000000000E+00 -0.00000000000E+00 -0.45593999997E+02  0.45594000000E+02  0.51100000000E-03 0. -1.
    9900012    2    1    2    0    0  0.67386012513E+00 -0.34420878115E+00 -0.90614411033E+00  0.90007464400E+02  0.89999722130E+02 0.  0.
        -12    1    1    2    0    0 -0.67386012513E+00  0.34420878115E+00  0.90614411033E+00  0.11805355996E+01  0.00000000000E+00 0.  1.
         11    1    3    3    0    0 -0.13136825657E+02  0.45109647427E+01 -0.37102025174E+02  0.39616729591E+02  0.51100000000E-03 0. -1.
        -11    1    3    3    0    0 -0.13455170361E+01 -0.98549145051E+01 -0.92024108617E+00  0.99888237503E+01  0.51100000000E-03 0.  1.
        -12    1    3    3    0    0  0.15156202818E+02  0.49997409812E+01  0.37116122150E+02  0.40401911059E+02  0.00000000000E+00 0.  1.
</event>
<event>
 7    1  0.2641103E-015  0.9000772E+02  0.7816164E-02  0.1186339E+00
        -11   -1    0    0    0    0  0.00000000000E+00  0.00000000000E+00  0.45593999997E+02  0.45594000000E+02  0.51100000000E-03 0. -1.
         11   -1    0    0    0    0 -0.00000000000E+00 -0.00000000000E+00 -0.45593999997E+02  0.45594000000E+02  0.51100000000E-03 0.  1.
    9900012    2    1    2    0    0  0.62232026098E+00  0.83081600934E+00  0.56170630472E+00  0.90007723879E+02  0.89999985034E+02 0.  0.
        -12    1    1    2    0    0 -0.62232026098E+00 -0.83081600934E+00 -0.56170630472E+00  0.11802761208E+01  0.00000000000E+00 0.  1.
         11    1    3    3    0    0 -0.97065393486E+01  0.11773327457E+02  0.33535087468E+02  0.36843320118E+02  0.51100000000E-03 0. -1.
        -11    1    3    3    0    0  0.10926662774E+01 -0.87445929662E+01  0.75125509999E+01  0.11580166170E+02  0.51100000000E-03 0.  1.
        -12    1    3    3    0    0  0.92361933321E+01 -0.21979184814E+01 -0.40485932163E+02  0.41584237591E+02  0.00000000000E+00 0.  1.
</event>
<event>
 7    1  0.2641103E-015  0.9000761E+02  0.7816164E-02  0.1186339E+00
        -11   -1    0    0    0    0  0.00000000000E+00  0.00000000000E+00  0.45593999997E+02  0.45594000000E+02  0.51100000000E-03 0. -1.
         11   -1    0    0    0    0 -0.00000000000E+00 -0.00000000000E+00 -0.45593999997E+02  0.45594000000E+02  0.51100000000E-03 0.  1.
    9900012    2    1    2    0    0 -0.97023862019E+00 -0.50065895463E+00  0.44865759468E+00  0.90007611926E+02  0.89999871603E+02 0.  0.
        -12    1    1    2    0    0  0.97023862019E+00  0.50065895463E+00 -0.44865759468E+00  0.11803880744E+01  0.00000000000E+00 0.  1.
         11    1    3    3    0    0 -0.10296184916E+02  0.37450466366E+02 -0.86208981673E+00  0.38849608158E+02  0.51100000000E-03 0. -1.
        -11    1    3    3    0    0 -0.12944971699E+01  0.12221045045E+01 -0.90871493727E+01  0.92598891098E+01  0.51100000000E-03 0.  1.
        -12    1    3    3    0    0  0.10620443466E+02 -0.39173229825E+02  0.10397896784E+02  0.41898114658E+02  0.00000000000E+00 0.  1.
</event>
<event>
 7    1  0.2641103E-015  0.9000769E+02  0.7816164E-02  0.1186339E+00
        -11   -1    0    0    0    0  0.00000000000E+00  0.00000000000E+00  0.45593999997E+02  0.45594000000E+02  0.51100000000E-03 0. -1.
         11   -1    0    0    0    0 -0.00000000000E+00 -0.00000000000E+00 -0.45593999997E+02  0.45594000000E+02  0.51100000000E-03 0.  1.
    9900012    2    1    2    0    0  0.60467228167E-02  0.10663958204E+01 -0.50585883667E+00  0.90007690815E+02  0.89999951534E+02 0.  0.
        -12    1    1    2    0    0 -0.60467228167E-02 -0.10663958204E+01  0.50585883667E+00  0.11803091846E+01  0.00000000000E+00 0.  1.
         11    1    3    3    0    0  0.11613173770E+01  0.10047960899E+02  0.43114428315E+00  0.10124033876E+02  0.51100000000E-03 0. -1.
        -11    1    3    3    0    0  0.34282700076E+02 -0.21280023478E+02  0.84277928581E+01  0.41220997276E+02  0.51100000000E-03 0.  1.
         12    1    3    3    0    0 -0.35437970730E+02  0.12298458400E+02 -0.93647959779E+01  0.38662659663E+02  0.00000000000E+00 0. -1.
</event>
<event>
 7    1  0.2641103E-015  0.9000867E+02  0.7816164E-02  0.1186337E+00
        -11   -1    0    0    0    0  0.00000000000E+00  0.00000000000E+00  0.45593999997E+02  0.45594000000E+02  0.51100000000E-03 0.  1.
         11   -1    0    0    0    0 -0.00000000000E+00 -0.00000000000E+00 -0.45593999997E+02  0.45594000000E+02  0.51100000000E-03 0. -1.
    9900012    2    1    2    0    0 -0.12991044939E+00 -0.10153343451E+01  0.58570089685E+00  0.90008667096E+02  0.90000940697E+02 0.  0.
        -12    1    1    2    0    0  0.12991044939E+00  0.10153343451E+01 -0.58570089685E+00  0.11793329037E+01  0.00000000000E+00 0.  1.
         11    1    3    3    0    0 -0.14299144369E+01 -0.24352330901E+02 -0.24788206426E+02  0.34778381988E+02  0.51100000000E-03 0. -1.
        -11    1    3    3    0    0  0.28395022041E+01 -0.48162526493E+01 -0.91087959703E+01  0.10687807382E+02  0.51100000000E-03 0.  1.
        -12    1    3    3    0    0 -0.15394982166E+01  0.28153249205E+02  0.34482703293E+02  0.44542477726E+02  0.00000000000E+00 0.  1.
</event>
<event>
 7    1  0.2641103E-015  0.9000775E+02  0.7816164E-02  0.1186339E+00
        -11   -1    0    0    0    0  0.00000000000E+00  0.00000000000E+00  0.45593999997E+02  0.45594000000E+02  0.51100000000E-03 0. -1.
         11   -1    0    0    0    0 -0.00000000000E+00 -0.00000000000E+00 -0.45593999997E+02  0.45594000000E+02  0.51100000000E-03 0.  1.
    9900012    2    1    2    0    0  0.29699473780E+00  0.21853429780E+00  0.11211671324E+01  0.90007754749E+02  0.90000016312E+02 0.  0.
        -12    1    1    2    0    0 -0.29699473780E+00 -0.21853429780E+00 -0.11211671324E+01  0.11802452509E+01  0.00000000000E+00 0.  1.
         11    1    3    3    0    0 -0.22944169538E+02  0.27101568255E+02 -0.45472027496E+01  0.35799538695E+02  0.51100000000E-03 0. -1.
        -11    1    3    3    0    0 -0.10600535838E+02 -0.53141750452E+01 -0.47068478628E+01  0.12757987048E+02  0.51100000000E-03 0.  1.
        -12    1    3    3    0    0  0.33841700114E+02 -0.21568858912E+02  0.10375217745E+02  0.41450229006E+02  0.00000000000E+00 0.  1.
</event>
<event>
 7    1  0.2641103E-015  0.9000759E+02  0.7816164E-02  0.1186339E+00
        -11   -1    0    0    0    0  0.00000000000E+00  0.00000000000E+00  0.45593999997E+02  0.45594000000E+02  0.51100000000E-03 0. -1.
         11   -1    0    0    0    0 -0.00000000000E+00 -0.00000000000E+00 -0.45593999997E+02  0.45594000000E+02  0.51100000000E-03 0.  1.
    9900012    2    1    2    0    0  0.27119936625E+00  0.11199859288E+01  0.25581333577E+00  0.90007594121E+02  0.89999853563E+02 0.  0.
        -12    1    1    2    0    0 -0.27119936625E+00 -0.11199859288E+01 -0.25581333577E+00  0.11804058793E+01  0.00000000000E+00 0.  1.
         11    1    3    3    0    0  0.85245521321E+01 -0.11872559926E+01  0.36600112873E+02  0.37598481731E+02  0.51100000000E-03 0. -1.
        -11    1    3    3    0    0  0.17535699701E+01 -0.30057302037E+01  0.68878564833E+01  0.77169935139E+01  0.51100000000E-03 0.  1.
        -12    1    3    3    0    0 -0.10006922736E+02  0.53129721251E+01 -0.43232156021E+02  0.44692118876E+02  0.00000000000E+00 0.  1.
</event>
<event>
 7    1  0.2641103E-015  0.9000770E+02  0.7816164E-02  0.1186339E+00
        -11   -1    0    0    0    0  0.00000000000E+00  0.00000000000E+00  0.45593999997E+02  0.45594000000E+02  0.51100000000E-03 0.  1.
         11   -1    0    0    0    0 -0.00000000000E+00 -0.00000000000E+00 -0.45593999997E+02  0.45594000000E+02  0.51100000000E-03 0. -1.
    9900012    2    1    2    0    0 -0.69289382462E+00  0.91857710463E+00 -0.26309865561E+00  0.90007700609E+02  0.89999961457E+02 0.  0.
        -12    1    1    2    0    0  0.69289382462E+00 -0.91857710463E+00  0.26309865561E+00  0.11802993908E+01  0.00000000000E+00 0.  1.
         11    1    3    3    0    0  0.35841218112E+01  0.16137439224E+00 -0.79469001094E+01  0.87192426541E+01  0.51100000000E-03 0. -1.
        -11    1    3    3    0    0  0.80144495910E+01  0.32180765360E+02  0.26682805848E+02  0.42565304999E+02  0.51100000000E-03 0.  1.
         12    1    3    3    0    0 -0.12291465227E+02 -0.31423562648E+02 -0.18999004395E+02  0.38723152957E+02  0.00000000000E+00 0. -1.
</event>
<event>
 7    1  0.2641103E-015  0.9000767E+02  0.7816164E-02  0.1186339E+00
        -11   -1    0    0    0    0  0.00000000000E+00  0.00000000000E+00  0.45593999997E+02  0.45594000000E+02  0.51100000000E-03 0.  1.
         11   -1    0    0    0    0 -0.00000000000E+00 -0.00000000000E+00 -0.45593999997E+02  0.45594000000E+02  0.51100000000E-03 0. -1.
    9900012    2    1    2    0    0  0.10759561926E+01  0.44896354046E+00 -0.18418239396E+00  0.90007672442E+02  0.89999932919E+02 0.  0.
        -12    1    1    2    0    0 -0.10759561926E+01 -0.44896354046E+00  0.18418239396E+00  0.11803275577E+01  0.00000000000E+00 0.  1.
         11    1    3    3    0    0  0.14645153785E+02  0.17792444629E+02  0.26094284253E+02  0.34813263079E+02  0.51100000000E-03 0. -1.
        -11    1    3    3    0    0  0.65393425771E+01  0.39554685138E+01  0.73460432137E+01  0.10600617136E+02  0.51100000000E-03 0.  1.
        -12    1    3    3    0    0 -0.20108540169E+02 -0.21298949603E+02 -0.33624509860E+02  0.44593792228E+02  0.00000000000E+00 0.  1.
</event>
<event>
 7    1  0.2641103E-015  0.9000768E+02  0.7816164E-02  0.1186339E+00
        -11   -1    0    0    0    0  0.00000000000E+00  0.00000000000E+00  0.45593999997E+02  0.45594000000E+02  0.51100000000E-03 0.  1.
         11   -1    0    0    0    0 -0.00000000000E+00 -0.00000000000E+00 -0.45593999997E+02  0.45594000000E+02  0.51100000000E-03 0. -1.
    9900012    2    1    2    0    0 -0.17854429148E+00 -0.49034124520E+00 -0.10586985547E+01  0.90007680030E+02  0.89999940607E+02 0.  0.
        -12    1    1    2    0    0  0.17854429148E+00  0.49034124520E+00  0.10586985547E+01  0.11803199696E+01  0.00000000000E+00 0.  1.
         11    1    3    3    0    0  0.14556261617E+02 -0.16269109538E+02 -0.30071447312E+02  0.37159933008E+02  0.51100000000E-03 0. -1.
        -11    1    3    3    0    0 -0.44898634197E+01  0.26749302547E+01 -0.95300187431E+01  0.10869010208E+02  0.51100000000E-03 0.  1.
        -12    1    3    3    0    0 -0.10244942489E+02  0.13103838038E+02  0.38542767501E+02  0.41978736815E+02  0.00000000000E+00 0.  1.
</event>
<event>
 7    1  0.2641103E-015  0.9000776E+02  0.7816164E-02  0.1186339E+00
        -11   -1    0    0    0    0  0.00000000000E+00  0.00000000000E+00  0.45593999997E+02  0.45594000000E+02  0.51100000000E-03 0. -1.
         11   -1    0    0    0    0 -0.00000000000E+00 -0.00000000000E+00 -0.45593999997E+02  0.45594000000E+02  0.51100000000E-03 0.  1.
    9900012    2    1    2    0    0 -0.24328027665E+00 -0.10890570227E+01  0.38434974398E+00  0.90007764762E+02  0.90000026457E+02 0.  0.
        -12    1    1    2    0    0  0.24328027665E+00  0.10890570227E+01 -0.38434974398E+00  0.11802352382E+01  0.00000000000E+00 0.  1.
         11    1    3    3    0    0  0.50323219481E+01  0.45774367834E+00  0.87776318487E+01  0.10128208854E+02  0.51100000000E-03 0. -1.
        -11    1    3    3    0    0  0.23475997991E+02  0.26244117087E+02 -0.16805883089E+02  0.39016840851E+02  0.51100000000E-03 0.  1.
         12    1    3    3    0    0 -0.28751600216E+02 -0.27790917788E+02  0.84126009843E+01  0.40862715056E+02  0.00000000000E+00 0. -1.
</event>
<event>
 7    1  0.2641103E-015  0.9000776E+02  0.7816164E-02  0.1186339E+00
        -11   -1    0    0    0    0  0.00000000000E+00  0.00000000000E+00  0.45593999997E+02  0.45594000000E+02  0.51100000000E-03 0. -1.
         11   -1    0    0    0    0 -0.00000000000E+00 -0.00000000000E+00 -0.45593999997E+02  0.45594000000E+02  0.51100000000E-03 0.  1.
    9900012    2    1    2    0    0  0.95674960822E+00 -0.29236256733E+00 -0.62619019665E+00  0.90007762801E+02  0.90000024470E+02 0.  0.
        -12    1    1    2    0    0 -0.95674960822E+00  0.29236256733E+00  0.62619019665E+00  0.11802371990E+01  0.00000000000E+00 0.  1.
         11    1    3    3    0    0 -0.18536316968E+01  0.10192592167E+01  0.87642693296E+01  0.90159445962E+01  0.51100000000E-03 0. -1.
        -11    1    3    3    0    0  0.25928350981E+02  0.30005634655E+02  0.39289152601E+01  0.39850393612E+02  0.51100000000E-03 0.  1.
         12    1    3    3    0    0 -0.23117969676E+02 -0.31317256439E+02 -0.13319374786E+02  0.41141424593E+02  0.00000000000E+00 0. -1.
</event>
<event>
 7    1  0.2641103E-015  0.9000737E+02  0.7816164E-02  0.1186340E+00
        -11   -1    0    0    0    0  0.00000000000E+00  0.00000000000E+00  0.45593999997E+02  0.45594000000E+02  0.51100000000E-03 0.  1.
         11   -1    0    0    0    0 -0.00000000000E+00 -0.00000000000E+00 -0.45593999997E+02  0.45594000000E+02  0.51100000000E-03 0. -1.
    9900012    2    1    2    0    0 -0.31362441864E+00  0.80082999070E+00 -0.80882922690E+00  0.90007367259E+02  0.89999623706E+02 0.  0.
        -12    1    1    2    0    0  0.31362441864E+00 -0.80082999070E+00  0.80882922690E+00  0.11806327406E+01  0.00000000000E+00 0.  1.
         11    1    3    3    0    0  0.16577767911E+02 -0.17861236402E+01 -0.32562424651E+02  0.36583112579E+02  0.51100000000E-03 0. -1.
        -11    1    3    3    0    0  0.94347110488E+01 -0.28967797570E+01 -0.22000181285E+01  0.10111636147E+02  0.51100000000E-03 0.  1.
        -12    1    3    3    0    0 -0.26326103379E+02  0.54837333879E+01  0.33953613552E+02  0.43312618534E+02  0.00000000000E+00 0.  1.
</event>
<event>
 7    1  0.2641103E-015  0.9000778E+02  0.7816164E-02  0.1186339E+00
        -11   -1    0    0    0    0  0.00000000000E+00  0.00000000000E+00  0.45593999997E+02  0.45594000000E+02  0.51100000000E-03 0. -1.
         11   -1    0    0    0    0 -0.00000000000E+00 -0.00000000000E+00 -0.45593999997E+02  0.45594000000E+02  0.51100000000E-03 0.  1.
    9900012    2    1    2    0    0 -0.10128019087E+01 -0.35247368916E+00 -0.49285440599E+00  0.90007783548E+02  0.90000045491E+02 0.  0.
        -12    1    1    2    0    0  0.10128019087E+01  0.35247368916E+00  0.49285440599E+00  0.11802164519E+01  0.00000000000E+00 0.  1.
         11    1    3    3    0    0  0.67574497886E+00 -0.86372682547E+01 -0.30189468716E+01  0.91745885278E+01  0.51100000000E-03 0. -1.
        -11    1    3    3    0    0 -0.92187827455E+01 -0.32469042026E+02  0.15865965116E+02  0.37295488933E+02  0.51100000000E-03 0.  1.
         12    1    3    3    0    0  0.75302358579E+01  0.40753836592E+02 -0.13339872650E+02  0.43537706087E+02  0.00000000000E+00 0. -1.
</event>
<event>
 7    1  0.2641103E-015  0.9000775E+02  0.7816164E-02  0.1186339E+00
        -11   -1    0    0    0    0  0.00000000000E+00  0.00000000000E+00  0.45593999997E+02  0.45594000000E+02  0.51100000000E-03 0. -1.
         11   -1    0    0    0    0 -0.00000000000E+00 -0.00000000000E+00 -0.45593999997E+02  0.45594000000E+02  0.51100000000E-03 0.  1.
    9900012    2    1    2    0    0 -0.66832478171E+00  0.61773069127E+00  0.75149983369E+00  0.90007745273E+02  0.90000006711E+02 0.  0.
        -12    1    1    2    0    0  0.66832478171E+00 -0.61773069127E+00 -0.75149983369E+00  0.11802547271E+01  0.00000000000E+00 0.  1.
         11    1    3    3    0    0 -0.99722238229E+01  0.24587555387E+02  0.26209013916E+02  0.37294846006E+02  0.51100000000E-03 0. -1.
        -11    1    3    3    0    0  0.40742810669E+01  0.63497503527E+01  0.52908397682E+01  0.92147751718E+01  0.51100000000E-03 0.  1.
        -12    1    3    3    0    0  0.52296179743E+01 -0.30319575049E+02 -0.30748353850E+02  0.43498124095E+02  0.00000000000E+00 0.  1.
</event>
<event>
 7    1  0.2641103E-015  0.9000773E+02  0.7816164E-02  0.1186339E+00
        -11   -1    0    0    0    0  0.00000000000E+00  0.00000000000E+00  0.45593999997E+02  0.45594000000E+02  0.51100000000E-03 0. -1.
         11   -1    0    0    0    0 -0.00000000000E+00 -0.00000000000E+00 -0.45593999997E+02  0.45594000000E+02  0.51100000000E-03 0.  1.
    9900012    2    1    2    0    0  0.96048729433E+00 -0.68591712029E+00  0.47854244213E-02  0.90007728405E+02  0.89999989620E+02 0.  0.
        -12    1    1    2    0    0 -0.96048729433E+00  0.68591712029E+00 -0.47854244213E-02  0.11802715953E+01  0.00000000000E+00 0.  1.
         11    1    3    3    0    0  0.54447537050E+01  0.52928787585E+00 -0.82112951379E+01  0.98666537725E+01  0.51100000000E-03 0. -1.
        -11    1    3    3    0    0  0.64936537221E+01 -0.89080829099E+00 -0.34970718878E+02  0.35579660723E+02  0.51100000000E-03 0.  1.
         12    1    3    3    0    0 -0.10977920133E+02 -0.32439670515E+00  0.43186799440E+02  0.44561413909E+02  0.00000000000E+00 0. -1.
</event>
<event>
 7    1  0.2641103E-015  0.9000777E+02  0.7816164E-02  0.1186339E+00
        -11   -1    0    0    0    0  0.00000000000E+00  0.00000000000E+00  0.45593999997E+02  0.45594000000E+02  0.51100000000E-03 0. -1.
         11   -1    0    0    0    0 -0.00000000000E+00 -0.00000000000E+00 -0.45593999997E+02  0.45594000000E+02  0.51100000000E-03 0.  1.
    9900012    2    1    2    0    0 -0.44052941539E+00 -0.74313658944E+00 -0.80413584632E+00  0.90007765864E+02  0.90000027573E+02 0.  0.
        -12    1    1    2    0    0  0.44052941539E+00  0.74313658944E+00  0.80413584632E+00  0.11802341360E+01  0.00000000000E+00 0.  1.
         11    1    3    3    0    0  0.10951680570E+02  0.34714241965E+02  0.24615322105E+01  0.36483928566E+02  0.51100000000E-03 0. -1.
        -11    1    3    3    0    0  0.64588834679E+00 -0.16188535274E+02  0.16707374617E+02  0.23272778367E+02  0.51100000000E-03 0.  1.
        -12    1    3    3    0    0 -0.12038098332E+02 -0.19268843280E+02 -0.19973042674E+02  0.30251058931E+02  0.00000000000E+00 0.  1.
</event>
<event>
 7    1  0.2641103E-015  0.9000775E+02  0.7816164E-02  0.1186339E+00
        -11   -1    0    0    0    0  0.00000000000E+00  0.00000000000E+00  0.45593999997E+02  0.45594000000E+02  0.51100000000E-03 0. -1.
         11   -1    0    0    0    0 -0.00000000000E+00 -0.00000000000E+00 -0.45593999997E+02  0.45594000000E+02  0.51100000000E-03 0.  1.
    9900012    2    1    2    0    0 -0.63593278546E+00  0.58279649414E+00  0.80556208067E+00  0.90007748956E+02  0.90000010442E+02 0.  0.
        -12    1    1    2    0    0  0.63593278546E+00 -0.58279649414E+00 -0.80556208067E+00  0.11802510441E+01  0.00000000000E+00 0.  1.
         11    1    3    3    0    0 -0.25496833174E+01  0.87506742683E+01  0.46533312769E+00  0.91264297702E+01  0.51100000000E-03 0. -1.
        -11    1    3    3    0    0 -0.26459767937E+02  0.25253952847E+02 -0.41442149831E+01  0.36811084903E+02  0.51100000000E-03 0.  1.
         12    1    3    3    0    0  0.28373518469E+02 -0.33421830621E+02  0.44844439361E+01  0.44070234283E+02  0.00000000000E+00 0. -1.
</event>
<event>
 7    1  0.2641103E-015  0.9000811E+02  0.7816164E-02  0.1186338E+00
        -11   -1    0    0    0    0  0.00000000000E+00  0.00000000000E+00  0.45593999997E+02  0.45594000000E+02  0.51100000000E-03 0. -1.
         11   -1    0    0    0    0 -0.00000000000E+00 -0.00000000000E+00 -0.45593999997E+02  0.45594000000E+02  0.51100000000E-03 0.  1.
    9900012    2    1    2    0    0  0.46245280662E+00  0.10853086763E+01 -0.19706399806E-01  0.90008107690E+02  0.90000373911E+02 0.  0.
        -12    1    1    2    0    0 -0.46245280662E+00 -0.10853086763E+01  0.19706399806E-01  0.11798923101E+01  0.00000000000E+00 0.  1.
         11    1    3    3    0    0  0.12172490314E+02  0.47943763348E+00  0.33305784197E+02  0.35463708804E+02  0.51100000000E-03 0. -1.
        -11    1    3    3    0    0  0.72717104189E+01  0.53686731523E+01  0.58402482256E+01  0.10761455451E+02  0.51100000000E-03 0.  1.
        -12    1    3    3    0    0 -0.18981747927E+02 -0.47628021095E+01 -0.39165738822E+02  0.43782943435E+02  0.00000000000E+00 0.  1.
</event>
<event>
 8    1  0.2641103E-015  0.9000774E+02  0.7816164E-02  0.1186339E+00
        -11   -1    0    0    0    0  0.00000000000E+00  0.00000000000E+00  0.45593999997E+02  0.45594000000E+02  0.51100000000E-03 0.  1.
         11   -1    0    0    0    0 -0.00000000000E+00 -0.00000000000E+00 -0.45593999997E+02  0.45594000000E+02  0.51100000000E-03 0. -1.
    9900012    2    1    2    0    0  0.19539325386E+00  0.11216151746E+01 -0.31116343725E+00  0.90007736551E+02  0.89999997874E+02 0.  0.
         23    2    3    3    0    0 -0.10454686405E+02  0.22173092733E+02 -0.52779712621E+01  0.65898441993E+02  0.60940964607E+02 0.  0.
        -12    1    1    2    0    0 -0.19539325386E+00 -0.11216151746E+01  0.31116343725E+00  0.11802634486E+01  0.00000000000E+00 0.  1.
         11    1    4    4    0    0  0.23719787262E+02  0.18760713259E+02 -0.84701644618E+01  0.31405992358E+02  0.51100000000E-03 0. -1.
        -11    1    4    4    0    0 -0.34174473667E+02  0.34123794745E+01  0.31921931997E+01  0.34492449635E+02  0.51100000000E-03 0.  1.
         12    1    3    3    0    0  0.10650079659E+02 -0.21051477559E+02  0.49668078249E+01  0.24109294558E+02  0.00000000000E+00 0. -1.
</event>
<event>
 7    1  0.2641103E-015  0.9000777E+02  0.7816164E-02  0.1186339E+00
        -11   -1    0    0    0    0  0.00000000000E+00  0.00000000000E+00  0.45593999997E+02  0.45594000000E+02  0.51100000000E-03 0.  1.
         11   -1    0    0    0    0 -0.00000000000E+00 -0.00000000000E+00 -0.45593999997E+02  0.45594000000E+02  0.51100000000E-03 0. -1.
    9900012    2    1    2    0    0  0.31947013548E+00  0.95192503924E+00  0.62026307643E+00  0.90007767509E+02  0.90000029241E+02 0.  0.
        -12    1    1    2    0    0 -0.31947013548E+00 -0.95192503924E+00 -0.62026307643E+00  0.11802324906E+01  0.00000000000E+00 0.  1.
         11    1    3    3    0    0  0.59842799250E+01  0.15987173536E+02 -0.32094882953E+02  0.36352205379E+02  0.51100000000E-03 0. -1.
        -11    1    3    3    0    0 -0.23258715102E+01  0.62078248937E+01 -0.62753291913E+01  0.91283363716E+01  0.51100000000E-03 0.  1.
        -12    1    3    3    0    0 -0.33389382794E+01 -0.21243073391E+02  0.38990475220E+02  0.44527225759E+02  0.00000000000E+00 0.  1.
</event>
<event>
 7    1  0.2641103E-015  0.9000763E+02  0.7816164E-02  0.1186339E+00
        -11   -1    0    0    0    0  0.00000000000E+00  0.00000000000E+00  0.45593999997E+02  0.45594000000E+02  0.51100000000E-03 0.  1.
         11   -1    0    0    0    0 -0.00000000000E+00 -0.00000000000E+00 -0.45593999997E+02  0.45594000000E+02  0.51100000000E-03 0. -1.
    9900012    2    1    2    0    0  0.99345549318E+00  0.67393325759E-01 -0.63385233135E+00  0.90007633762E+02  0.89999893728E+02 0.  0.
        -12    1    1    2    0    0 -0.99345549318E+00 -0.67393325759E-01  0.63385233135E+00  0.11803662378E+01  0.00000000000E+00 0.  1.
         11    1    3    3    0    0  0.50495733373E+01 -0.67764469982E+01  0.32984238697E+00  0.84573767251E+01  0.51100000000E-03 0. -1.
        -11    1    3    3    0    0 -0.12225463047E+01 -0.55247485651E+01  0.39109175108E+02  0.39516389562E+02  0.51100000000E-03 0.  1.
         12    1    3    3    0    0 -0.28335715395E+01  0.12368588889E+02 -0.40072869826E+02  0.42033867475E+02  0.00000000000E+00 0. -1.
</event>
<event>
 7    1  0.2641103E-015  0.9000775E+02  0.7816164E-02  0.1186339E+00
        -11   -1    0    0    0    0  0.00000000000E+00  0.00000000000E+00  0.45593999997E+02  0.45594000000E+02  0.51100000000E-03 0.  1.
         11   -1    0    0    0    0 -0.00000000000E+00 -0.00000000000E+00 -0.45593999997E+02  0.45594000000E+02  0.51100000000E-03 0. -1.
    9900012    2    1    2    0    0 -0.38612161971E+00 -0.84834607597E+00 -0.72402635999E+00  0.90007747849E+02  0.90000009321E+02 0.  0.
        -12    1    1    2    0    0  0.38612161971E+00  0.84834607597E+00  0.72402635999E+00  0.11802521509E+01  0.00000000000E+00 0.  1.
         11    1    3    3    0    0 -0.16932269546E+02 -0.13565856258E+02 -0.30789244329E+02  0.37665790508E+02  0.51100000000E-03 0. -1.
        -11    1    3    3    0    0  0.17819805501E+01  0.95401368189E+00 -0.88563185649E+01  0.90840506147E+01  0.51100000000E-03 0.  1.
        -12    1    3    3    0    0  0.14764167376E+02  0.11763496500E+02  0.38921536534E+02  0.43257906726E+02  0.00000000000E+00 0.  1.
</event>
<event>
 7    1  0.2641103E-015  0.9000776E+02  0.7816164E-02  0.1186339E+00
        -11   -1    0    0    0    0  0.00000000000E+00  0.00000000000E+00  0.45593999997E+02  0.45594000000E+02  0.51100000000E-03 0.  1.
         11   -1    0    0    0    0 -0.00000000000E+00 -0.00000000000E+00 -0.45593999997E+02  0.45594000000E+02  0.51100000000E-03 0. -1.
    9900012    2    1    2    0    0 -0.72256645962E+00  0.90304267203E-01 -0.92882550230E+00  0.90007756820E+02  0.90000018410E+02 0.  0.
        -12    1    1    2    0    0  0.72256645962E+00 -0.90304267203E-01  0.92882550230E+00  0.11802431796E+01  0.00000000000E+00 0.  1.
         11    1    3    3    0    0 -0.41766112101E+01  0.73173673253E+01 -0.24634767552E+01  0.87781925109E+01  0.51100000000E-03 0. -1.
        -11    1    3    3    0    0  0.20640408681E+02  0.31374039296E+02  0.82361557792E+01  0.38447250546E+02  0.51100000000E-03 0.  1.
         12    1    3    3    0    0 -0.17186363930E+02 -0.38601102354E+02 -0.67015045263E+01  0.42782313764E+02  0.00000000000E+00 0. -1.
</event>
<event>
 7    1  0.2641103E-015  0.9000771E+02  0.7816164E-02  0.1186339E+00
        -11   -1    0    0    0    0  0.00000000000E+00  0.00000000000E+00  0.45593999997E+02  0.45594000000E+02  0.51100000000E-03 0. -1.
         11   -1    0    0    0    0 -0.00000000000E+00 -0.00000000000E+00 -0.45593999997E+02  0.45594000000E+02  0.51100000000E-03 0.  1.
    9900012    2    1    2    0    0  0.62471238012E+00  0.89749822773E+00  0.44420929174E+00  0.90007707442E+02  0.89999968381E+02 0.  0.
        -12    1    1    2    0    0 -0.62471238012E+00 -0.89749822773E+00 -0.44420929174E+00  0.11802925576E+01  0.00000000000E+00 0.  1.
         11    1    3    3    0    0 -0.33414539646E+02  0.28346859758E+01  0.20542715698E+02  0.39326455127E+02  0.51100000000E-03 0. -1.
        -11    1    3    3    0    0 -0.29881825440E+01 -0.81787176538E+01 -0.59880646401E+01  0.10567761152E+02  0.51100000000E-03 0.  1.
        -12    1    3    3    0    0  0.37027434570E+02  0.62415299057E+01 -0.14110441766E+02  0.40113491163E+02  0.00000000000E+00 0.  1.
</event>
<event>
 7    1  0.2641103E-015  0.9000759E+02  0.7816164E-02  0.1186339E+00
        -11   -1    0    0    0    0  0.00000000000E+00  0.00000000000E+00  0.45593999997E+02  0.45594000000E+02  0.51100000000E-03 0.  1.
         11   -1    0    0    0    0 -0.00000000000E+00 -0.00000000000E+00 -0.45593999997E+02  0.45594000000E+02  0.51100000000E-03 0. -1.
    9900012    2    1    2    0    0  0.95023757425E+00  0.59492309186E+00  0.36943542566E+00  0.90007590128E+02  0.89999849517E+02 0.  0.
        -12    1    1    2    0    0 -0.95023757425E+00 -0.59492309186E+00 -0.36943542566E+00  0.11804098722E+01  0.00000000000E+00 0.  1.
         11    1    3    3    0    0  0.13395846161E+01 -0.36725671321E+01  0.98444103760E+01  0.10592197704E+02  0.51100000000E-03 0. -1.
        -11    1    3    3    0    0 -0.27361370880E+01 -0.35945237032E+02  0.54485314498E+01  0.36458647899E+02  0.51100000000E-03 0.  1.
         12    1    3    3    0    0  0.23467900462E+01  0.40212727256E+02 -0.14923506400E+02  0.42956744525E+02  0.00000000000E+00 0. -1.
</event>
<event>
 7    1  0.2641103E-015  0.9000767E+02  0.7816164E-02  0.1186339E+00
        -11   -1    0    0    0    0  0.00000000000E+00  0.00000000000E+00  0.45593999997E+02  0.45594000000E+02  0.51100000000E-03 0. -1.
         11   -1    0    0    0    0 -0.00000000000E+00 -0.00000000000E+00 -0.45593999997E+02  0.45594000000E+02  0.51100000000E-03 0.  1.
    9900012    2    1    2    0    0  0.62983986973E+00  0.99616034714E+00 -0.64340929807E-01  0.90007672311E+02  0.89999932785E+02 0.  0.
        -12    1    1    2    0    0 -0.62983986973E+00 -0.99616034714E+00  0.64340929807E-01  0.11803276892E+01  0.00000000000E+00 0.  1.
         11    1    3    3    0    0  0.26428121778E+02 -0.10262312577E+02  0.23574043728E+02  0.36871346844E+02  0.51100000000E-03 0. -1.
        -11    1    3    3    0    0  0.49163341991E+01 -0.43465609393E+01  0.50689335018E+01  0.82919853511E+01  0.51100000000E-03 0.  1.
        -12    1    3    3    0    0 -0.30714616107E+02  0.15605033863E+02 -0.28707318160E+02  0.44844340116E+02  0.00000000000E+00 0.  1.
</event>
<event>
 7    1  0.2641103E-015  0.9000800E+02  0.7816164E-02  0.1186339E+00
        -11   -1    0    0    0    0  0.00000000000E+00  0.00000000000E+00  0.45593999997E+02  0.45594000000E+02  0.51100000000E-03 0.  1.
         11   -1    0    0    0    0 -0.00000000000E+00 -0.00000000000E+00 -0.45593999997E+02  0.45594000000E+02  0.51100000000E-03 0. -1.
    9900012    2    1    2    0    0  0.74131733492E+00 -0.84636311772E+00 -0.35568002603E+00  0.90008004153E+02  0.90000269007E+02 0.  0.
        -12    1    1    2    0    0 -0.74131733492E+00  0.84636311772E+00  0.35568002603E+00  0.11799958470E+01  0.00000000000E+00 0.  1.
         11    1    3    3    0    0  0.28881335504E+02 -0.30712385982E+02  0.36602643321E+01  0.42317605420E+02  0.51100000000E-03 0. -1.
        -11    1    3    3    0    0 -0.34695609910E+01 -0.40342686430E+01  0.11578354813E+01  0.54455266244E+01  0.51100000000E-03 0.  1.
        -12    1    3    3    0    0 -0.24670457178E+02  0.33900291507E+02 -0.51737798394E+01  0.42244872109E+02  0.00000000000E+00 0.  1.
</event>
<event>
 7    1  0.2641103E-015  0.9000783E+02  0.7816164E-02  0.1186339E+00
        -11   -1    0    0    0    0  0.00000000000E+00  0.00000000000E+00  0.45593999997E+02  0.45594000000E+02  0.51100000000E-03 0.  1.
         11   -1    0    0    0    0 -0.00000000000E+00 -0.00000000000E+00 -0.45593999997E+02  0.45594000000E+02  0.51100000000E-03 0. -1.
    9900012    2    1    2    0    0  0.54911791441E+00 -0.10178609676E+01 -0.23501084305E+00  0.90007829873E+02  0.90000092427E+02 0.  0.
        -12    1    1    2    0    0 -0.54911791441E+00  0.10178609676E+01  0.23501084305E+00  0.11801701274E+01  0.00000000000E+00 0.  1.
         11    1    3    3    0    0  0.10284253211E+01  0.77087520550E+01 -0.38898085889E+02  0.39667916545E+02  0.51100000000E-03 0. -1.
        -11    1    3    3    0    0 -0.73651353889E+01 -0.11472084874E+01 -0.25466291038E+01  0.78769681137E+01  0.51100000000E-03 0.  1.
        -12    1    3    3    0    0  0.68858279823E+01 -0.75794045352E+01  0.41209704150E+02  0.42462945214E+02  0.00000000000E+00 0.  1.
</event>
<event>
 7    1  0.2641103E-015  0.9000768E+02  0.7816164E-02  0.1186339E+00
        -11   -1    0    0    0    0  0.00000000000E+00  0.00000000000E+00  0.45593999997E+02  0.45594000000E+02  0.51100000000E-03 0. -1.
         11   -1    0    0    0    0 -0.00000000000E+00 -0.00000000000E+00 -0.45593999997E+02  0.45594000000E+02  0.51100000000E-03 0.  1.
    9900012    2    1    2    0    0  0.61531563152E+00  0.10047102336E+01 -0.71429086116E-01  0.90007678817E+02  0.89999939378E+02 0.  0.
        -12    1    1    2    0    0 -0.61531563152E+00 -0.10047102336E+01  0.71429086116E-01  0.11803211826E+01  0.00000000000E+00 0.  1.
         11    1    3    3    0    0  0.91966296749E+01  0.25786547131E+01 -0.33856852348E+01  0.10133623354E+02  0.51100000000E-03 0. -1.
        -11    1    3    3    0    0  0.35142460647E+02  0.14263882928E+01 -0.41534559283E+01  0.35415791962E+02  0.51100000000E-03 0.  1.
         12    1    3    3    0    0 -0.43723774690E+02 -0.30003327723E+01  0.74677120770E+01  0.44458263502E+02  0.00000000000E+00 0. -1.
</event>
<event>
 7    1  0.2641103E-015  0.9000774E+02  0.7816164E-02  0.1186339E+00
        -11   -1    0    0    0    0  0.00000000000E+00  0.00000000000E+00  0.45593999997E+02  0.45594000000E+02  0.51100000000E-03 0.  1.
         11   -1    0    0    0    0 -0.00000000000E+00 -0.00000000000E+00 -0.45593999997E+02  0.45594000000E+02  0.51100000000E-03 0. -1.
    9900012    2    1    2    0    0  0.62980411009E-01  0.72835054932E+00 -0.92658388596E+00  0.90007737846E+02  0.89999999185E+02 0.  0.
        -12    1    1    2    0    0 -0.62980411009E-01 -0.72835054932E+00  0.92658388596E+00  0.11802621542E+01  0.00000000000E+00 0.  1.
         11    1    3    3    0    0 -0.91259065667E+01  0.13325941888E+01 -0.62696696059E+01  0.11151983463E+02  0.51100000000E-03 0. -1.
        -11    1    3    3    0    0 -0.27405392582E+02  0.22246119134E+02  0.54296209989E+01  0.35713108848E+02  0.51100000000E-03 0.  1.
         12    1    3    3    0    0  0.36594279560E+02 -0.22850362773E+02 -0.86535278968E-01  0.43142645535E+02  0.00000000000E+00 0. -1.
</event>
<event>
 7    1  0.2641103E-015  0.9000654E+02  0.7816164E-02  0.1186341E+00
        -11   -1    0    0    0    0  0.00000000000E+00  0.00000000000E+00  0.45593999997E+02  0.45594000000E+02  0.51100000000E-03 0.  1.
         11   -1    0    0    0    0 -0.00000000000E+00 -0.00000000000E+00 -0.45593999997E+02  0.45594000000E+02  0.51100000000E-03 0. -1.
    9900012    2    1    2    0    0 -0.25120426570E+00 -0.11531221905E+01  0.55352533938E-01  0.90006535539E+02  0.89998781000E+02 0.  0.
        -12    1    1    2    0    0  0.25120426570E+00  0.11531221905E+01 -0.55352533938E-01  0.11814644609E+01  0.00000000000E+00 0.  1.
         11    1    3    3    0    0 -0.29593902281E+01  0.25891392590E+02  0.26583235418E+02  0.37226208594E+02  0.51100000000E-03 0. -1.
        -11    1    3    3    0    0 -0.72122343364E+01  0.69707807545E+01 -0.40354045916E+01  0.10811688070E+02  0.51100000000E-03 0.  1.
        -12    1    3    3    0    0  0.99204202989E+01 -0.34015295535E+02 -0.22492478292E+02  0.41968638874E+02  0.00000000000E+00 0.  1.
</event>
<event>
 7    1  0.2641103E-015  0.9000771E+02  0.7816164E-02  0.1186339E+00
        -11   -1    0    0    0    0  0.00000000000E+00  0.00000000000E+00  0.45593999997E+02  0.45594000000E+02  0.51100000000E-03 0. -1.
         11   -1    0    0    0    0 -0.00000000000E+00 -0.00000000000E+00 -0.45593999997E+02  0.45594000000E+02  0.51100000000E-03 0.  1.
    9900012    2    1    2    0    0 -0.97723541690E+00 -0.77997101235E-01  0.65728284765E+00  0.90007706244E+02  0.89999967167E+02 0.  0.
        -12    1    1    2    0    0  0.97723541690E+00  0.77997101235E-01 -0.65728284765E+00  0.11802937557E+01  0.00000000000E+00 0.  1.
         11    1    3    3    0    0 -0.42702295047E+01  0.73286218845E+01 -0.79993050763E+01  0.11659006849E+02  0.51100000000E-03 0. -1.
        -11    1    3    3    0    0 -0.35217183341E+02  0.81227893308E+01  0.12045797041E+01  0.36161868336E+02  0.51100000000E-03 0.  1.
         12    1    3    3    0    0  0.38510177429E+02 -0.15529408317E+02  0.74520082199E+01  0.42186831059E+02  0.00000000000E+00 0. -1.
</event>
<event>
 7    1  0.2641103E-015  0.9000772E+02  0.7816164E-02  0.1186339E+00
        -11   -1    0    0    0    0  0.00000000000E+00  0.00000000000E+00  0.45593999997E+02  0.45594000000E+02  0.51100000000E-03 0.  1.
         11   -1    0    0    0    0 -0.00000000000E+00 -0.00000000000E+00 -0.45593999997E+02  0.45594000000E+02  0.51100000000E-03 0. -1.
    9900012    2    1    2    0    0  0.43434382338E-01  0.63951684000E+00 -0.99105534974E+00  0.90007720779E+02  0.89999981893E+02 0.  0.
        -12    1    1    2    0    0 -0.43434382338E-01 -0.63951684000E+00  0.99105534974E+00  0.11802792214E+01  0.00000000000E+00 0.  1.
         11    1    3    3    0    0  0.25244232216E+01 -0.45941830550E+01  0.77238047679E+01  0.93346875094E+01  0.51100000000E-03 0. -1.
        -11    1    3    3    0    0 -0.39134263964E+02 -0.40536102111E+01  0.65709038386E+01  0.39888584197E+02  0.51100000000E-03 0.  1.
         12    1    3    3    0    0  0.36653275125E+02  0.92873101061E+01 -0.15285763956E+02  0.40784449072E+02  0.00000000000E+00 0. -1.
</event>
<event>
 7    1  0.2641103E-015  0.9000781E+02  0.7816164E-02  0.1186339E+00
        -11   -1    0    0    0    0  0.00000000000E+00  0.00000000000E+00  0.45593999997E+02  0.45594000000E+02  0.51100000000E-03 0.  1.
         11   -1    0    0    0    0 -0.00000000000E+00 -0.00000000000E+00 -0.45593999997E+02  0.45594000000E+02  0.51100000000E-03 0. -1.
    9900012    2    1    2    0    0 -0.60748990831E+00  0.82189104913E+00 -0.59016994918E+00  0.90007809569E+02  0.90000071855E+02 0.  0.
        -12    1    1    2    0    0  0.60748990831E+00 -0.82189104913E+00  0.59016994918E+00  0.11801904314E+01  0.00000000000E+00 0.  1.
         11    1    3    3    0    0 -0.89061646396E+01  0.15012698711E+01  0.35704926111E+01  0.97119512746E+01  0.51100000000E-03 0. -1.
        -11    1    3    3    0    0  0.76859103181E+01 -0.36151887269E+02 -0.19331892892E+02  0.41710361465E+02  0.51100000000E-03 0.  1.
         12    1    3    3    0    0  0.61276441323E+00  0.35472508447E+02  0.15171230332E+02  0.38585496829E+02  0.00000000000E+00 0. -1.
</event>
<event>
 7    1  0.2641103E-015  0.9000774E+02  0.7816164E-02  0.1186339E+00
        -11   -1    0    0    0    0  0.00000000000E+00  0.00000000000E+00  0.45593999997E+02  0.45594000000E+02  0.51100000000E-03 0.  1.
         11   -1    0    0    0    0 -0.00000000000E+00 -0.00000000000E+00 -0.45593999997E+02  0.45594000000E+02  0.51100000000E-03 0. -1.
    9900012    2    1    2    0    0 -0.26340924611E+00 -0.13661767327E+00 -0.11423505120E+01  0.90007740066E+02  0.90000001435E+02 0.  0.
        -12    1    1    2    0    0  0.26340924611E+00  0.13661767327E+00  0.11423505120E+01  0.11802599340E+01  0.00000000000E+00 0.  1.
         11    1    3    3    0    0  0.29823573841E+02 -0.13299749969E+02 -0.30784745854E+02  0.44877939831E+02  0.51100000000E-03 0. -1.
        -11    1    3    3    0    0 -0.34062533754E+01 -0.60794935615E+00  0.92330753894E+00  0.35811536618E+01  0.51100000000E-03 0.  1.
        -12    1    3    3    0    0 -0.26680729712E+02  0.13771081652E+02  0.28719087803E+02  0.41548646573E+02  0.00000000000E+00 0.  1.
</event>
<event>
 7    1  0.2641103E-015  0.9000768E+02  0.7816164E-02  0.1186339E+00
        -11   -1    0    0    0    0  0.00000000000E+00  0.00000000000E+00  0.45593999997E+02  0.45594000000E+02  0.51100000000E-03 0.  1.
         11   -1    0    0    0    0 -0.00000000000E+00 -0.00000000000E+00 -0.45593999997E+02  0.45594000000E+02  0.51100000000E-03 0. -1.
    9900012    2    1    2    0    0  0.78708712618E+00  0.84939182952E+00 -0.22844083631E+00  0.90007678925E+02  0.89999939487E+02 0.  0.
        -12    1    1    2    0    0 -0.78708712618E+00 -0.84939182952E+00  0.22844083631E+00  0.11803210749E+01  0.00000000000E+00 0.  1.
         11    1    3    3    0    0  0.57504262596E+00 -0.40333699318E+01  0.95684007726E+01  0.10399665410E+02  0.51100000000E-03 0. -1.
        -11    1    3    3    0    0 -0.37959087711E+02  0.36740815040E+01  0.53770658115E+01  0.38513686551E+02  0.51100000000E-03 0.  1.
         12    1    3    3    0    0  0.38171132211E+02  0.12086802573E+01 -0.15173907420E+02  0.41094326964E+02  0.00000000000E+00 0. -1.
</event>
<event>
 7    1  0.2641103E-015  0.9000771E+02  0.7816164E-02  0.1186339E+00
        -11   -1    0    0    0    0  0.00000000000E+00  0.00000000000E+00  0.45593999997E+02  0.45594000000E+02  0.51100000000E-03 0.  1.
         11   -1    0    0    0    0 -0.00000000000E+00 -0.00000000000E+00 -0.45593999997E+02  0.45594000000E+02  0.51100000000E-03 0. -1.
    9900012    2    1    2    0    0 -0.75778422147E+00 -0.81795450282E+00 -0.38703376950E+00  0.90007711207E+02  0.89999972195E+02 0.  0.
        -12    1    1    2    0    0  0.75778422147E+00  0.81795450282E+00  0.38703376950E+00  0.11802887925E+01  0.00000000000E+00 0.  1.
         11    1    3    3    0    0  0.32004247760E+02  0.19676748334E+02 -0.75562145653E+01  0.38321569364E+02  0.51100000000E-03 0. -1.
        -11    1    3    3    0    0  0.67397912376E+01 -0.59205468414E+01 -0.27028063568E-01  0.89709749529E+01  0.51100000000E-03 0.  1.
        -12    1    3    3    0    0 -0.39501823219E+02 -0.14574155996E+02  0.71962088593E+01  0.42715166891E+02  0.00000000000E+00 0.  1.
</event>
<event>
 7    1  0.2641103E-015  0.9000780E+02  0.7816164E-02  0.1186339E+00
        -11   -1    0    0    0    0  0.00000000000E+00  0.00000000000E+00  0.45593999997E+02  0.45594000000E+02  0.51100000000E-03 0. -1.
         11   -1    0    0    0    0 -0.00000000000E+00 -0.00000000000E+00 -0.45593999997E+02  0.45594000000E+02  0.51100000000E-03 0.  1.
    9900012    2    1    2    0    0 -0.99905509337E+00 -0.11697215299E+00 -0.61731235188E+00  0.90007801668E+02  0.90000063850E+02 0.  0.
        -12    1    1    2    0    0  0.99905509337E+00  0.11697215299E+00  0.61731235188E+00  0.11801983325E+01  0.00000000000E+00 0.  1.
         11    1    3    3    0    0  0.20574749531E+02  0.20167792330E+02  0.19928140574E+02  0.35031285343E+02  0.51100000000E-03 0. -1.
        -11    1    3    3    0    0  0.23733173464E+01  0.67102927469E+01  0.66885280539E+01  0.97671424564E+01  0.51100000000E-03 0.  1.
        -12    1    3    3    0    0 -0.23947121971E+02 -0.26995057230E+02 -0.27233980980E+02  0.45209373868E+02  0.00000000000E+00 0.  1.
</event>
<event>
 7    1  0.2641103E-015  0.9000758E+02  0.7816164E-02  0.1186339E+00
        -11   -1    0    0    0    0  0.00000000000E+00  0.00000000000E+00  0.45593999997E+02  0.45594000000E+02  0.51100000000E-03 0. -1.
         11   -1    0    0    0    0 -0.00000000000E+00 -0.00000000000E+00 -0.45593999997E+02  0.45594000000E+02  0.51100000000E-03 0.  1.
    9900012    2    1    2    0    0 -0.62024174163E+00  0.36389988496E+00  0.93608884996E+00  0.90007582583E+02  0.89999841873E+02 0.  0.
        -12    1    1    2    0    0  0.62024174163E+00 -0.36389988496E+00 -0.93608884996E+00  0.11804174174E+01  0.00000000000E+00 0.  1.
         11    1    3    3    0    0  0.58563260484E+01 -0.92370400087E+01  0.36439308282E+02  0.38045271076E+02  0.51100000000E-03 0. -1.
        -11    1    3    3    0    0  0.59810527826E+01 -0.63247003132E+01  0.23770559524E+01  0.90235925053E+01  0.51100000000E-03 0.  1.
        -12    1    3    3    0    0 -0.12457620573E+02  0.15925640207E+02 -0.37880275384E+02  0.42938719002E+02  0.00000000000E+00 0.  1.
</event>
<event>
 7    1  0.2641103E-015  0.9000787E+02  0.7816164E-02  0.1186339E+00
        -11   -1    0    0    0    0  0.00000000000E+00  0.00000000000E+00  0.45593999997E+02  0.45594000000E+02  0.51100000000E-03 0. -1.
         11   -1    0    0    0    0 -0.00000000000E+00 -0.00000000000E+00 -0.45593999997E+02  0.45594000000E+02  0.51100000000E-03 0.  1.
    9900012    2    1    2    0    0  0.65646724766E-01  0.10053910265E+01  0.61447368782E+00  0.90007873515E+02  0.90000136645E+02 0.  0.
        -12    1    1    2    0    0 -0.65646724766E-01 -0.10053910265E+01 -0.61447368782E+00  0.11801264854E+01  0.00000000000E+00 0.  1.
         11    1    3    3    0    0  0.18890679244E+02  0.31406571168E+02  0.10781196276E+02  0.38202940570E+02  0.51100000000E-03 0. -1.
        -11    1    3    3    0    0  0.32508329129E+01  0.53233398048E+01 -0.74581038805E+01  0.97226115349E+01  0.51100000000E-03 0.  1.
        -12    1    3    3    0    0 -0.22075865432E+02 -0.35724519946E+02 -0.27086187074E+01  0.42082321410E+02  0.00000000000E+00 0.  1.
</event>
<event>
 7    1  0.2641103E-015  0.9000758E+02  0.7816164E-02  0.1186339E+00
        -11   -1    0    0    0    0  0.00000000000E+00  0.00000000000E+00  0.45593999997E+02  0.45594000000E+02  0.51100000000E-03 0. -1.
         11   -1    0    0    0    0 -0.00000000000E+00 -0.00000000000E+00 -0.45593999997E+02  0.45594000000E+02  0.51100000000E-03 0.  1.
    9900012    2    1    2    0    0  0.19529109925E-01  0.94463590789E+00  0.70758192152E+00  0.90007580346E+02  0.89999839606E+02 0.  0.
        -12    1    1    2    0    0 -0.19529109925E-01 -0.94463590789E+00 -0.70758192152E+00  0.11804196543E+01  0.00000000000E+00 0.  1.
         11    1    3    3    0    0 -0.12252179042E+02 -0.38535312847E+02  0.11197751509E+02  0.41958025056E+02  0.51100000000E-03 0. -1.
        -11    1    3    3    0    0  0.10662357689E+02  0.41443892114E+01 -0.13753193176E+01  0.11521863431E+02  0.51100000000E-03 0.  1.
        -12    1    3    3    0    0  0.16093504624E+01  0.35335559543E+02 -0.91148502697E+01  0.36527691859E+02  0.00000000000E+00 0.  1.
</event>
<event>
 7    1  0.2641103E-015  0.9000778E+02  0.7816164E-02  0.1186339E+00
        -11   -1    0    0    0    0  0.00000000000E+00  0.00000000000E+00  0.45593999997E+02  0.45594000000E+02  0.51100000000E-03 0.  1.
         11   -1    0    0    0    0 -0.00000000000E+00 -0.00000000000E+00 -0.45593999997E+02  0.45594000000E+02  0.51100000000E-03 0. -1.
    9900012    2    1    2    0    0 -0.14874586701E+00  0.11540129325E+01 -0.19761283826E+00  0.90007778828E+02  0.90000040708E+02 0.  0.
        -12    1    1    2    0    0  0.14874586701E+00 -0.11540129325E+01  0.19761283826E+00  0.11802211722E+01  0.00000000000E+00 0.  1.
         11    1    3    3    0    0 -0.28544872333E+01 -0.85863148003E+01  0.17598333269E+01  0.92179126062E+01  0.51100000000E-03 0. -1.
        -11    1    3    3    0    0  0.41185645732E+02  0.32887315950E+01 -0.51791364325E+01  0.41640084346E+02  0.51100000000E-03 0.  1.
         12    1    3    3    0    0 -0.38479904366E+02  0.64515961378E+01  0.32216902674E+01  0.39149781876E+02  0.00000000000E+00 0. -1.
</event>
<event>
 7    1  0.2641103E-015  0.9000773E+02  0.7816164E-02  0.1186339E+00
        -11   -1    0    0    0    0  0.00000000000E+00  0.00000000000E+00  0.45593999997E+02  0.45594000000E+02  0.51100000000E-03 0. -1.
         11   -1    0    0    0    0 -0.00000000000E+00 -0.00000000000E+00 -0.45593999997E+02  0.45594000000E+02  0.51100000000E-03 0.  1.
    9900012    2    1    2    0    0  0.42315446497E+00  0.32718198364E-01  0.11013246975E+01  0.90007726188E+02  0.89999987374E+02 0.  0.
        -12    1    1    2    0    0 -0.42315446497E+00 -0.32718198364E-01 -0.11013246975E+01  0.11802738119E+01  0.00000000000E+00 0.  1.
         11    1    3    3    0    0 -0.18633895254E+02 -0.17294844769E+02  0.24666541950E+02  0.35422761043E+02  0.51100000000E-03 0. -1.
        -11    1    3    3    0    0 -0.58235672282E+01 -0.39399438235E+01  0.69131358771E+01  0.98604533623E+01  0.51100000000E-03 0.  1.
        -12    1    3    3    0    0  0.24880616947E+02  0.21267506791E+02 -0.30478353129E+02  0.44724511783E+02  0.00000000000E+00 0.  1.
</event>
<event>
 7    1  0.2641103E-015  0.9000774E+02  0.7816164E-02  0.1186339E+00
        -11   -1    0    0    0    0  0.00000000000E+00  0.00000000000E+00  0.45593999997E+02  0.45594000000E+02  0.51100000000E-03 0. -1.
         11   -1    0    0    0    0 -0.00000000000E+00 -0.00000000000E+00 -0.45593999997E+02  0.45594000000E+02  0.51100000000E-03 0.  1.
    9900012    2    1    2    0    0 -0.10343688559E+01 -0.72574702397E-01  0.56375766454E+00  0.90007742095E+02  0.90000003491E+02 0.  0.
        -12    1    1    2    0    0  0.10343688559E+01  0.72574702397E-01 -0.56375766454E+00  0.11802579048E+01  0.00000000000E+00 0.  1.
         11    1    3    3    0    0  0.33326119768E+01  0.71269490079E+01 -0.40523751488E+00  0.78780659082E+01  0.51100000000E-03 0. -1.
        -11    1    3    3    0    0 -0.37609177303E+02  0.12917525645E+01 -0.19287864682E+02  0.42286411131E+02  0.51100000000E-03 0.  1.
         12    1    3    3    0    0  0.33242196470E+02 -0.84912762748E+01  0.20256859861E+02  0.39843265056E+02  0.00000000000E+00 0. -1.
</event>
<event>
 7    1  0.2641103E-015  0.9000795E+02  0.7816164E-02  0.1186339E+00
        -11   -1    0    0    0    0  0.00000000000E+00  0.00000000000E+00  0.45593999997E+02  0.45594000000E+02  0.51100000000E-03 0.  1.
         11   -1    0    0    0    0 -0.00000000000E+00 -0.00000000000E+00 -0.45593999997E+02  0.45594000000E+02  0.51100000000E-03 0. -1.
    9900012    2    1    2    0    0  0.44427835985E+00 -0.60572227676E+00 -0.91006832037E+00  0.90007954626E+02  0.90000218827E+02 0.  0.
        -12    1    1    2    0    0 -0.44427835985E+00  0.60572227676E+00  0.91006832037E+00  0.11800453743E+01  0.00000000000E+00 0.  1.
         11    1    3    3    0    0 -0.39290977006E+01 -0.65344032354E+01 -0.45120487003E+01  0.88597301381E+01  0.51100000000E-03 0. -1.
        -11    1    3    3    0    0 -0.66316542962E+01 -0.28378292720E+02  0.25722186585E+02  0.38870775904E+02  0.51100000000E-03 0.  1.
         12    1    3    3    0    0  0.11005030357E+02  0.34306973679E+02 -0.22120206205E+02  0.42277448583E+02  0.00000000000E+00 0. -1.
</event>
<event>
 7    1  0.2641103E-015  0.9000776E+02  0.7816164E-02  0.1186339E+00
        -11   -1    0    0    0    0  0.00000000000E+00  0.00000000000E+00  0.45593999997E+02  0.45594000000E+02  0.51100000000E-03 0.  1.
         11   -1    0    0    0    0 -0.00000000000E+00 -0.00000000000E+00 -0.45593999997E+02  0.45594000000E+02  0.51100000000E-03 0. -1.
    9900012    2    1    2    0    0  0.78602733055E-01  0.56876734684E+00 -0.10311649032E+01  0.90007756067E+02  0.90000017647E+02 0.  0.
        -12    1    1    2    0    0 -0.78602733055E-01 -0.56876734684E+00  0.10311649032E+01  0.11802439333E+01  0.00000000000E+00 0.  1.
         11    1    3    3    0    0  0.11983752251E+02 -0.21618403301E+02 -0.48249502373E+01  0.25184237617E+02  0.51100000000E-03 0. -1.
        -11    1    3    3    0    0 -0.87525665399E+01 -0.12757798225E+02  0.20726732013E+02  0.25864382010E+02  0.51100000000E-03 0.  1.
        -12    1    3    3    0    0 -0.31525829776E+01  0.34944968872E+02 -0.16932946678E+02  0.38959136440E+02  0.00000000000E+00 0.  1.
</event>
<event>
 7    1  0.2641103E-015  0.9000777E+02  0.7816164E-02  0.1186339E+00
        -11   -1    0    0    0    0  0.00000000000E+00  0.00000000000E+00  0.45593999997E+02  0.45594000000E+02  0.51100000000E-03 0.  1.
         11   -1    0    0    0    0 -0.00000000000E+00 -0.00000000000E+00 -0.45593999997E+02  0.45594000000E+02  0.51100000000E-03 0. -1.
    9900012    2    1    2    0    0 -0.25782773757E+00 -0.10903542898E+01  0.37094832119E+00  0.90007766855E+02  0.90000028577E+02 0.  0.
        -12    1    1    2    0    0  0.25782773757E+00  0.10903542898E+01 -0.37094832119E+00  0.11802331450E+01  0.00000000000E+00 0.  1.
         11    1    3    3    0    0 -0.95647096854E+01 -0.43999450232E+00 -0.56890238901E+01  0.11137426077E+02  0.51100000000E-03 0. -1.
        -11    1    3    3    0    0 -0.18134252499E+02 -0.25073851212E+02  0.22862776152E+02  0.38474090787E+02  0.51100000000E-03 0.  1.
         12    1    3    3    0    0  0.27441134447E+02  0.24423491424E+02 -0.16802803940E+02  0.40396249991E+02  0.00000000000E+00 0. -1.
</event>
<event>
 7    1  0.2641103E-015  0.9000782E+02  0.7816164E-02  0.1186339E+00
        -11   -1    0    0    0    0  0.00000000000E+00  0.00000000000E+00  0.45593999997E+02  0.45594000000E+02  0.51100000000E-03 0.  1.
         11   -1    0    0    0    0 -0.00000000000E+00 -0.00000000000E+00 -0.45593999997E+02  0.45594000000E+02  0.51100000000E-03 0. -1.
    9900012    2    1    2    0    0  0.11721275072E+01 -0.48644535040E-02  0.13755665416E+00  0.90007818493E+02  0.90000080897E+02 0.  0.
        -12    1    1    2    0    0 -0.11721275072E+01  0.48644535040E-02 -0.13755665416E+00  0.11801815069E+01  0.00000000000E+00 0.  1.
         11    1    3    3    0    0  0.16557527352E+02  0.16505213659E+02 -0.32601882882E+02  0.40118032824E+02  0.51100000000E-03 0. -1.
        -11    1    3    3    0    0 -0.44172385117E+01  0.15840708866E+01 -0.48536153567E+01  0.67512116642E+01  0.51100000000E-03 0.  1.
        -12    1    3    3    0    0 -0.10968161333E+02 -0.18094148999E+02  0.37593054893E+02  0.43138574005E+02  0.00000000000E+00 0.  1.
</event>
<event>
 7    1  0.2641103E-015  0.9000772E+02  0.7816164E-02  0.1186339E+00
        -11   -1    0    0    0    0  0.00000000000E+00  0.00000000000E+00  0.45593999997E+02  0.45594000000E+02  0.51100000000E-03 0.  1.
         11   -1    0    0    0    0 -0.00000000000E+00 -0.00000000000E+00 -0.45593999997E+02  0.45594000000E+02  0.51100000000E-03 0. -1.
    9900012    2    1    2    0    0 -0.71678197168E+00  0.92703093472E+00 -0.14108741100E+00  0.90007716811E+02  0.89999977873E+02 0.  0.
        -12    1    1    2    0    0  0.71678197168E+00 -0.92703093472E+00  0.14108741100E+00  0.11802831891E+01  0.00000000000E+00 0.  1.
         11    1    3    3    0    0  0.67752603842E+01 -0.12587858650E+01 -0.58854644579E+01  0.90624161940E+01  0.51100000000E-03 0. -1.
        -11    1    3    3    0    0  0.18518584292E+02  0.31037796479E+02 -0.12212386268E+02  0.38150034772E+02  0.51100000000E-03 0.  1.
         12    1    3    3    0    0 -0.26010626648E+02 -0.28851979679E+02  0.17956763315E+02  0.42795265845E+02  0.00000000000E+00 0. -1.
</event>
<event>
 7    1  0.2641103E-015  0.9000770E+02  0.7816164E-02  0.1186339E+00
        -11   -1    0    0    0    0  0.00000000000E+00  0.00000000000E+00  0.45593999997E+02  0.45594000000E+02  0.51100000000E-03 0.  1.
         11   -1    0    0    0    0 -0.00000000000E+00 -0.00000000000E+00 -0.45593999997E+02  0.45594000000E+02  0.51100000000E-03 0. -1.
    9900012    2    1    2    0    0 -0.57544068493E+00 -0.61904493343E+00 -0.82386520010E+00  0.90007702377E+02  0.89999963248E+02 0.  0.
        -12    1    1    2    0    0  0.57544068493E+00  0.61904493343E+00  0.82386520010E+00  0.11802976232E+01  0.00000000000E+00 0.  1.
         11    1    3    3    0    0  0.42303932355E+01  0.45075399148E+01  0.34933602920E+02  0.35476340796E+02  0.51100000000E-03 0. -1.
        -11    1    3    3    0    0  0.88285705644E+01  0.13875730626E+01  0.55682551006E+01  0.10529695263E+02  0.51100000000E-03 0.  1.
         12    1    3    3    0    0 -0.13634404485E+02 -0.65141579108E+01 -0.41325723221E+02  0.44001666317E+02  0.00000000000E+00 0. -1.
</event>
<event>
 7    1  0.2641103E-015  0.9000801E+02  0.7816164E-02  0.1186339E+00
        -11   -1    0    0    0    0  0.00000000000E+00  0.00000000000E+00  0.45593999997E+02  0.45594000000E+02  0.51100000000E-03 0.  1.
         11   -1    0    0    0    0 -0.00000000000E+00 -0.00000000000E+00 -0.45593999997E+02  0.45594000000E+02  0.51100000000E-03 0. -1.
    9900012    2    1    2    0    0 -0.59796551078E+00  0.10138877330E+01  0.82789732237E-01  0.90008006260E+02  0.90000271142E+02 0.  0.
        -12    1    1    2    0    0  0.59796551078E+00 -0.10138877330E+01 -0.82789732237E-01  0.11799937402E+01  0.00000000000E+00 0.  1.
         11    1    3    3    0    0 -0.92996465089E+01 -0.19381800697E+01  0.34171487726E+00  0.95056160501E+01  0.51100000000E-03 0. -1.
        -11    1    3    3    0    0 -0.27517172901E+02 -0.22083571425E+02 -0.69692987929E+01  0.35964566691E+02  0.51100000000E-03 0.  1.
         12    1    3    3    0    0  0.36218853899E+02  0.25035639227E+02  0.67103736478E+01  0.44537823519E+02  0.00000000000E+00 0. -1.
</event>
<event>
 7    1  0.2641103E-015  0.9000769E+02  0.7816164E-02  0.1186339E+00
        -11   -1    0    0    0    0  0.00000000000E+00  0.00000000000E+00  0.45593999997E+02  0.45594000000E+02  0.51100000000E-03 0.  1.
         11   -1    0    0    0    0 -0.00000000000E+00 -0.00000000000E+00 -0.45593999997E+02  0.45594000000E+02  0.51100000000E-03 0. -1.
    9900012    2    1    2    0    0 -0.10871810249E+01  0.45839263493E+00  0.32158806430E-01  0.90007694710E+02  0.89999955480E+02 0.  0.
        -12    1    1    2    0    0  0.10871810249E+01 -0.45839263493E+00 -0.32158806430E-01  0.11803052900E+01  0.00000000000E+00 0.  1.
         11    1    3    3    0    0  0.19354711306E+02  0.26452598647E+02 -0.23680664335E+02  0.40436600852E+02  0.51100000000E-03 0. -1.
        -11    1    3    3    0    0  0.37918254842E+01 -0.90291386384E+01 -0.24331219377E+01  0.10090756546E+02  0.51100000000E-03 0.  1.
        -12    1    3    3    0    0 -0.24233717816E+02 -0.16965067373E+02  0.26145945079E+02  0.39480337311E+02  0.00000000000E+00 0.  1.
</event>
<event>
 7    1  0.2641103E-015  0.9000772E+02  0.7816164E-02  0.1186339E+00
        -11   -1    0    0    0    0  0.00000000000E+00  0.00000000000E+00  0.45593999997E+02  0.45594000000E+02  0.51100000000E-03 0. -1.
         11   -1    0    0    0    0 -0.00000000000E+00 -0.00000000000E+00 -0.45593999997E+02  0.45594000000E+02  0.51100000000E-03 0.  1.
    9900012    2    1    2    0    0  0.87916984047E+00  0.13667508347E+00  0.77553306279E+00  0.90007715620E+02  0.89999976666E+02 0.  0.
        -12    1    1    2    0    0 -0.87916984047E+00 -0.13667508347E+00 -0.77553306279E+00  0.11802843803E+01  0.00000000000E+00 0.  1.
         11    1    3    3    0    0  0.15379127425E+02  0.20295506326E+02 -0.23711787875E+02  0.34794741297E+02  0.51100000000E-03 0. -1.
        -11    1    3    3    0    0  0.80342241850E+01  0.57594859690E+01 -0.39282491832E+01  0.10637273090E+02  0.51100000000E-03 0.  1.
        -12    1    3    3    0    0 -0.22534181770E+02 -0.25918317212E+02  0.28415570121E+02  0.44575701233E+02  0.00000000000E+00 0.  1.
</event>
<event>
 7    1  0.2641103E-015  0.9000728E+02  0.7816164E-02  0.1186340E+00
        -11   -1    0    0    0    0  0.00000000000E+00  0.00000000000E+00  0.45593999997E+02  0.45594000000E+02  0.51100000000E-03 0. -1.
         11   -1    0    0    0    0 -0.00000000000E+00 -0.00000000000E+00 -0.45593999997E+02  0.45594000000E+02  0.51100000000E-03 0.  1.
    9900012    2    1    2    0    0  0.53546186839E+00  0.22729501335E+00  0.10274778882E+01  0.90007282741E+02  0.89999538072E+02 0.  0.
        -12    1    1    2    0    0 -0.53546186839E+00 -0.22729501335E+00 -0.10274778882E+01  0.11807172593E+01  0.00000000000E+00 0.  1.
         11    1    3    3    0    0  0.34811097016E+02 -0.18554329363E+02 -0.12139075673E+02  0.41272663738E+02  0.51100000000E-03 0. -1.
        -11    1    3    3    0    0 -0.65438394671E+01 -0.47176470477E+01 -0.34420239156E+01  0.87707216085E+01  0.51100000000E-03 0.  1.
        -12    1    3    3    0    0 -0.27731795681E+02  0.23499271424E+02  0.16608577477E+02  0.39963897394E+02  0.00000000000E+00 0.  1.
</event>
<event>
 7    1  0.2641103E-015  0.9000768E+02  0.7816164E-02  0.1186339E+00
        -11   -1    0    0    0    0  0.00000000000E+00  0.00000000000E+00  0.45593999997E+02  0.45594000000E+02  0.51100000000E-03 0.  1.
         11   -1    0    0    0    0 -0.00000000000E+00 -0.00000000000E+00 -0.45593999997E+02  0.45594000000E+02  0.51100000000E-03 0. -1.
    9900012    2    1    2    0    0 -0.47954428873E+00  0.22268460371E+00 -0.10552733751E+01  0.90007680953E+02  0.89999941541E+02 0.  0.
        -12    1    1    2    0    0  0.47954428873E+00 -0.22268460371E+00  0.10552733751E+01  0.11803190474E+01  0.00000000000E+00 0.  1.
         11    1    3    3    0    0 -0.19874708427E+02 -0.75641634323E+01 -0.30604675765E+02  0.37267503035E+02  0.51100000000E-03 0. -1.
        -11    1    3    3    0    0 -0.23273781411E+01 -0.94600583385E+01 -0.27916289922E+01  0.10134228410E+02  0.51100000000E-03 0.  1.
        -12    1    3    3    0    0  0.21722542280E+02  0.17246906374E+02  0.32341031382E+02  0.42605949508E+02  0.00000000000E+00 0.  1.
</event>
<event>
 7    1  0.2641103E-015  0.9000774E+02  0.7816164E-02  0.1186339E+00
        -11   -1    0    0    0    0  0.00000000000E+00  0.00000000000E+00  0.45593999997E+02  0.45594000000E+02  0.51100000000E-03 0. -1.
         11   -1    0    0    0    0 -0.00000000000E+00 -0.00000000000E+00 -0.45593999997E+02  0.45594000000E+02  0.51100000000E-03 0.  1.
    9900012    2    1    2    0    0  0.27790705046E+00  0.22458410950E+00  0.11248727692E+01  0.90007741936E+02  0.90000003329E+02 0.  0.
        -12    1    1    2    0    0 -0.27790705046E+00 -0.22458410950E+00 -0.11248727692E+01  0.11802580641E+01  0.00000000000E+00 0.  1.
         11    1    3    3    0    0 -0.33171125260E+01  0.29244459744E+01 -0.74469199916E+01  0.86609605350E+01  0.51100000000E-03 0. -1.
        -11    1    3    3    0    0  0.16285031076E+02 -0.18566344992E+02 -0.29330184102E+02  0.38342810320E+02  0.51100000000E-03 0.  1.
         12    1    3    3    0    0 -0.12690011500E+02  0.15866483127E+02  0.37901976862E+02  0.43003971081E+02  0.00000000000E+00 0. -1.
</event>
<event>
 7    1  0.2641103E-015  0.9000773E+02  0.7816164E-02  0.1186339E+00
        -11   -1    0    0    0    0  0.00000000000E+00  0.00000000000E+00  0.45593999997E+02  0.45594000000E+02  0.51100000000E-03 0. -1.
         11   -1    0    0    0    0 -0.00000000000E+00 -0.00000000000E+00 -0.45593999997E+02  0.45594000000E+02  0.51100000000E-03 0.  1.
    9900012    2    1    2    0    0  0.86314180955E+00 -0.75742462219E+00  0.27265899033E+00  0.90007725131E+02  0.89999986303E+02 0.  0.
        -12    1    1    2    0    0 -0.86314180955E+00  0.75742462219E+00 -0.27265899033E+00  0.11802748691E+01  0.00000000000E+00 0.  1.
         11    1    3    3    0    0  0.29836301383E+01 -0.22401379319E+00 -0.99204609692E+01  0.10361842360E+02  0.51100000000E-03 0. -1.
        -11    1    3    3    0    0 -0.17996667115E+02 -0.21620950363E+02 -0.23632415976E+02  0.36740122577E+02  0.51100000000E-03 0.  1.
         12    1    3    3    0    0  0.15876178786E+02  0.21087539534E+02  0.33825535936E+02  0.42905760194E+02  0.00000000000E+00 0. -1.
</event>
<event>
 7    1  0.2641103E-015  0.9000770E+02  0.7816164E-02  0.1186339E+00
        -11   -1    0    0    0    0  0.00000000000E+00  0.00000000000E+00  0.45593999997E+02  0.45594000000E+02  0.51100000000E-03 0.  1.
         11   -1    0    0    0    0 -0.00000000000E+00 -0.00000000000E+00 -0.45593999997E+02  0.45594000000E+02  0.51100000000E-03 0. -1.
    9900012    2    1    2    0    0  0.98514578014E+00  0.44152793712E+00 -0.47711846251E+00  0.90007702938E+02  0.89999963817E+02 0.  0.
        -12    1    1    2    0    0 -0.98514578014E+00 -0.44152793712E+00  0.47711846251E+00  0.11802970620E+01  0.00000000000E+00 0.  1.
         11    1    3    3    0    0  0.38220719148E+01  0.65893891140E+01  0.72107928751E+01  0.10489223840E+02  0.51100000000E-03 0. -1.
        -11    1    3    3    0    0 -0.34167049283E+02 -0.14580341421E+02  0.14857784462E+02  0.40009091117E+02  0.51100000000E-03 0.  1.
         12    1    3    3    0    0  0.31330123148E+02  0.84324802441E+01 -0.22545695799E+02  0.39509387981E+02  0.00000000000E+00 0. -1.
</event>
<event>
 7    1  0.2641103E-015  0.9000773E+02  0.7816164E-02  0.1186339E+00
        -11   -1    0    0    0    0  0.00000000000E+00  0.00000000000E+00  0.45593999997E+02  0.45594000000E+02  0.51100000000E-03 0.  1.
         11   -1    0    0    0    0 -0.00000000000E+00 -0.00000000000E+00 -0.45593999997E+02  0.45594000000E+02  0.51100000000E-03 0. -1.
    9900012    2    1    2    0    0  0.53378591107E+00 -0.56440169032E+00 -0.88857659188E+00  0.90007726715E+02  0.89999987908E+02 0.  0.
        -12    1    1    2    0    0 -0.53378591107E+00  0.56440169032E+00  0.88857659188E+00  0.11802732847E+01  0.00000000000E+00 0.  1.
         11    1    3    3    0    0 -0.21597776954E+02 -0.24807962927E+02  0.12462594377E+02  0.35174070745E+02  0.51100000000E-03 0. -1.
        -11    1    3    3    0    0 -0.93117311471E+01 -0.41516784958E+01  0.64195437753E+00  0.10215521375E+02  0.51100000000E-03 0.  1.
        -12    1    3    3    0    0  0.31443294012E+02  0.28395239732E+02 -0.13993125346E+02  0.44618134595E+02  0.00000000000E+00 0.  1.
</event>
<event>
 7    1  0.2641103E-015  0.9000775E+02  0.7816164E-02  0.1186339E+00
        -11   -1    0    0    0    0  0.00000000000E+00  0.00000000000E+00  0.45593999997E+02  0.45594000000E+02  0.51100000000E-03 0.  1.
         11   -1    0    0    0    0 -0.00000000000E+00 -0.00000000000E+00 -0.45593999997E+02  0.45594000000E+02  0.51100000000E-03 0. -1.
    9900012    2    1    2    0    0  0.72458301515E+00  0.36590344466E-01 -0.93093175981E+00  0.90007748611E+02  0.90000010093E+02 0.  0.
        -12    1    1    2    0    0 -0.72458301515E+00 -0.36590344466E-01  0.93093175981E+00  0.11802513887E+01  0.00000000000E+00 0.  1.
         11    1    3    3    0    0  0.37516980738E+02 -0.13535581270E+01  0.21155896389E+02  0.43092086462E+02  0.51100000000E-03 0. -1.
        -11    1    3    3    0    0 -0.51024777102E+01  0.12464099844E+01 -0.12888145787E+02  0.13917367521E+02  0.51100000000E-03 0.  1.
        -12    1    3    3    0    0 -0.31689920013E+02  0.14373848705E+00 -0.91986823621E+01  0.32998294628E+02  0.00000000000E+00 0.  1.
</event>
<event>
 7    1  0.2641103E-015  0.9000771E+02  0.7816164E-02  0.1186339E+00
        -11   -1    0    0    0    0  0.00000000000E+00  0.00000000000E+00  0.45593999997E+02  0.45594000000E+02  0.51100000000E-03 0.  1.
         11   -1    0    0    0    0 -0.00000000000E+00 -0.00000000000E+00 -0.45593999997E+02  0.45594000000E+02  0.51100000000E-03 0. -1.
    9900012    2    1    2    0    0  0.57520005035E+00 -0.42250795332E+00  0.94005892321E+00  0.90007712388E+02  0.89999973391E+02 0.  0.
        -12    1    1    2    0    0 -0.57520005035E+00  0.42250795332E+00 -0.94005892321E+00  0.11802876123E+01  0.00000000000E+00 0.  1.
         11    1    3    3    0    0 -0.38660211587E-01  0.17675557975E+02  0.10084028522E+02  0.20349802845E+02  0.51100000000E-03 0. -1.
        -11    1    3    3    0    0  0.14480345477E+02  0.99005959529E+01  0.20228560082E+02  0.26774929479E+02  0.51100000000E-03 0.  1.
         12    1    3    3    0    0 -0.13866485215E+02 -0.27998661881E+02 -0.29372529680E+02  0.42882980064E+02  0.00000000000E+00 0. -1.
</event>
<event>
 7    1  0.2641103E-015  0.9000767E+02  0.7816164E-02  0.1186339E+00
        -11   -1    0    0    0    0  0.00000000000E+00  0.00000000000E+00  0.45593999997E+02  0.45594000000E+02  0.51100000000E-03 0.  1.
         11   -1    0    0    0    0 -0.00000000000E+00 -0.00000000000E+00 -0.45593999997E+02  0.45594000000E+02  0.51100000000E-03 0. -1.
    9900012    2    1    2    0    0 -0.96913779582E-01 -0.65865017201E+00 -0.97466069414E+00  0.90007671318E+02  0.89999931779E+02 0.  0.
        -12    1    1    2    0    0  0.96913779582E-01  0.65865017201E+00  0.97466069414E+00  0.11803286824E+01  0.00000000000E+00 0.  1.
         11    1    3    3    0    0 -0.74375180184E+01  0.12584620959E+01  0.50877843895E+01  0.90986785511E+01  0.51100000000E-03 0. -1.
        -11    1    3    3    0    0 -0.96812534361E+01  0.39671761980E+01  0.34754502293E+02  0.36295186802E+02  0.51100000000E-03 0.  1.
         12    1    3    3    0    0  0.17021857675E+02 -0.58842884659E+01 -0.40816947377E+02  0.44613805964E+02  0.00000000000E+00 0. -1.
</event>
<event>
 7    1  0.2641103E-015  0.9000773E+02  0.7816164E-02  0.1186339E+00
        -11   -1    0    0    0    0  0.00000000000E+00  0.00000000000E+00  0.45593999997E+02  0.45594000000E+02  0.51100000000E-03 0. -1.
         11   -1    0    0    0    0 -0.00000000000E+00 -0.00000000000E+00 -0.45593999997E+02  0.45594000000E+02  0.51100000000E-03 0.  1.
    9900012    2    1    2    0    0  0.30125522672E+00 -0.73971244330E-01  0.11387771081E+01  0.90007728947E+02  0.89999990169E+02 0.  0.
        -12    1    1    2    0    0 -0.30125522672E+00  0.73971244330E-01 -0.11387771081E+01  0.11802710530E+01  0.00000000000E+00 0.  1.
         11    1    3    3    0    0 -0.37362701510E+00  0.33976414880E+01 -0.77535394136E+01  0.84735434458E+01  0.51100000000E-03 0. -1.
        -11    1    3    3    0    0 -0.13732560444E+02 -0.32882290776E+02 -0.17287206657E+02  0.39606511804E+02  0.51100000000E-03 0.  1.
         12    1    3    3    0    0  0.14407442686E+02  0.29410678044E+02  0.26179523179E+02  0.41927673697E+02  0.00000000000E+00 0. -1.
</event>
<event>
 7    1  0.2641103E-015  0.9000773E+02  0.7816164E-02  0.1186339E+00
        -11   -1    0    0    0    0  0.00000000000E+00  0.00000000000E+00  0.45593999997E+02  0.45594000000E+02  0.51100000000E-03 0.  1.
         11   -1    0    0    0    0 -0.00000000000E+00 -0.00000000000E+00 -0.45593999997E+02  0.45594000000E+02  0.51100000000E-03 0. -1.
    9900012    2    1    2    0    0 -0.36493830355E+00 -0.42035208327E+00 -0.10407465109E+01  0.90007733446E+02  0.89999994727E+02 0.  0.
        -12    1    1    2    0    0  0.36493830355E+00  0.42035208327E+00  0.10407465109E+01  0.11802665543E+01  0.00000000000E+00 0.  1.
         11    1    3    3    0    0  0.11898778166E+02 -0.19709608874E+02 -0.35798465533E+01  0.23299461483E+02  0.51100000000E-03 0. -1.
        -11    1    3    3    0    0 -0.50633443823E+01 -0.15642746312E+02  0.20900897967E+02  0.26592865671E+02  0.51100000000E-03 0.  1.
         12    1    3    3    0    0 -0.72003720873E+01  0.34932003102E+02 -0.18361797924E+02  0.40115406292E+02  0.00000000000E+00 0. -1.
</event>
<event>
 7    1  0.2641103E-015  0.9000779E+02  0.7816164E-02  0.1186339E+00
        -11   -1    0    0    0    0  0.00000000000E+00  0.00000000000E+00  0.45593999997E+02  0.45594000000E+02  0.51100000000E-03 0.  1.
         11   -1    0    0    0    0 -0.00000000000E+00 -0.00000000000E+00 -0.45593999997E+02  0.45594000000E+02  0.51100000000E-03 0. -1.
    9900012    2    1    2    0    0  0.75991971880E+00  0.61514262083E+00 -0.66107601846E+00  0.90007788186E+02  0.90000050190E+02 0.  0.
        -12    1    1    2    0    0 -0.75991971880E+00 -0.61514262083E+00  0.66107601846E+00  0.11802118137E+01  0.00000000000E+00 0.  1.
         11    1    3    3    0    0  0.81228863756E+01  0.56836304055E+01 -0.62461102937E+01  0.11717458416E+02  0.51100000000E-03 0. -1.
        -11    1    3    3    0    0 -0.14271503158E+02 -0.39384375106E+01  0.40270386858E+02  0.42905607446E+02  0.51100000000E-03 0.  1.
         12    1    3    3    0    0  0.69085365008E+01 -0.11300502741E+01 -0.34685352583E+02  0.35384722324E+02  0.00000000000E+00 0. -1.
</event>
<event>
 7    1  0.2641103E-015  0.9000698E+02  0.7816164E-02  0.1186341E+00
        -11   -1    0    0    0    0  0.00000000000E+00  0.00000000000E+00  0.45593999997E+02  0.45594000000E+02  0.51100000000E-03 0. -1.
         11   -1    0    0    0    0 -0.00000000000E+00 -0.00000000000E+00 -0.45593999997E+02  0.45594000000E+02  0.51100000000E-03 0.  1.
    9900012    2    1    2    0    0  0.31258530956E+00 -0.89018050404E+00  0.71041067502E+00  0.90006977463E+02  0.89999228762E+02 0.  0.
        -12    1    1    2    0    0 -0.31258530956E+00  0.89018050404E+00 -0.71041067502E+00  0.11810225369E+01  0.00000000000E+00 0.  1.
         11    1    3    3    0    0  0.31831085565E+02 -0.18593019807E+02 -0.38378135025E+01  0.37062746883E+02  0.51100000000E-03 0. -1.
        -11    1    3    3    0    0  0.59883775275E+01 -0.36393940153E+01 -0.51716051747E+01  0.87092683134E+01  0.51100000000E-03 0.  1.
        -12    1    3    3    0    0 -0.37506877783E+02  0.21342233319E+02  0.97198293522E+01  0.44234962266E+02  0.00000000000E+00 0.  1.
</event>
<event>
 7    1  0.2641103E-015  0.9000776E+02  0.7816164E-02  0.1186339E+00
        -11   -1    0    0    0    0  0.00000000000E+00  0.00000000000E+00  0.45593999997E+02  0.45594000000E+02  0.51100000000E-03 0.  1.
         11   -1    0    0    0    0 -0.00000000000E+00 -0.00000000000E+00 -0.45593999997E+02  0.45594000000E+02  0.51100000000E-03 0. -1.
    9900012    2    1    2    0    0  0.10327778431E+01  0.53257937267E+00 -0.20663246727E+00  0.90007759415E+02  0.90000021040E+02 0.  0.
        -12    1    1    2    0    0 -0.10327778431E+01 -0.53257937267E+00  0.20663246727E+00  0.11802405848E+01  0.00000000000E+00 0.  1.
         11    1    3    3    0    0 -0.14536331283E+02 -0.27845879253E+02 -0.16444106991E+02  0.35455698745E+02  0.51100000000E-03 0. -1.
        -11    1    3    3    0    0  0.23121682328E+00 -0.33855849736E+01 -0.10019752158E+02  0.10578803354E+02  0.51100000000E-03 0.  1.
        -12    1    3    3    0    0  0.15337892303E+02  0.31764043599E+02  0.26257226681E+02  0.43973257317E+02  0.00000000000E+00 0.  1.
</event>
<event>
 7    1  0.2641103E-015  0.9000776E+02  0.7816164E-02  0.1186339E+00
        -11   -1    0    0    0    0  0.00000000000E+00  0.00000000000E+00  0.45593999997E+02  0.45594000000E+02  0.51100000000E-03 0. -1.
         11   -1    0    0    0    0 -0.00000000000E+00 -0.00000000000E+00 -0.45593999997E+02  0.45594000000E+02  0.51100000000E-03 0.  1.
    9900012    2    1    2    0    0 -0.60264873590E+00  0.11910665190E+00  0.10077635060E+01  0.90007763084E+02  0.90000024757E+02 0.  0.
        -12    1    1    2    0    0  0.60264873590E+00 -0.11910665190E+00 -0.10077635060E+01  0.11802369158E+01  0.00000000000E+00 0.  1.
         11    1    3    3    0    0  0.13630101843E+02 -0.24519906982E+02  0.32410446678E+02  0.42865400602E+02  0.51100000000E-03 0. -1.
        -11    1    3    3    0    0 -0.70757058306E+01 -0.20312079424E+01 -0.47291994288E+01  0.87496712055E+01  0.51100000000E-03 0.  1.
        -12    1    3    3    0    0 -0.71570447481E+01  0.26670221576E+02 -0.26673483744E+02  0.38392691277E+02  0.00000000000E+00 0.  1.
</event>
<event>
 7    1  0.2641103E-015  0.9000695E+02  0.7816164E-02  0.1186341E+00
        -11   -1    0    0    0    0  0.00000000000E+00  0.00000000000E+00  0.45593999997E+02  0.45594000000E+02  0.51100000000E-03 0. -1.
         11   -1    0    0    0    0 -0.00000000000E+00 -0.00000000000E+00 -0.45593999997E+02  0.45594000000E+02  0.51100000000E-03 0.  1.
    9900012    2    1    2    0    0 -0.11437821349E+01 -0.23688394653E+00 -0.17474521961E+00  0.90006946458E+02  0.89999197348E+02 0.  0.
        -12    1    1    2    0    0  0.11437821349E+01  0.23688394653E+00  0.17474521961E+00  0.11810535416E+01  0.00000000000E+00 0.  1.
         11    1    3    3    0    0  0.24701667722E+02  0.21868597498E+02  0.18025950570E+02  0.37594452237E+02  0.51100000000E-03 0. -1.
        -11    1    3    3    0    0  0.51539479277E+01  0.40610147745E+01 -0.84356478845E+01  0.10687150029E+02  0.51100000000E-03 0.  1.
        -12    1    3    3    0    0 -0.30999397785E+02 -0.26166496219E+02 -0.97650479054E+01  0.41725344193E+02  0.00000000000E+00 0.  1.
</event>
<event>
 7    1  0.2641103E-015  0.9000779E+02  0.7816164E-02  0.1186339E+00
        -11   -1    0    0    0    0  0.00000000000E+00  0.00000000000E+00  0.45593999997E+02  0.45594000000E+02  0.51100000000E-03 0.  1.
         11   -1    0    0    0    0 -0.00000000000E+00 -0.00000000000E+00 -0.45593999997E+02  0.45594000000E+02  0.51100000000E-03 0. -1.
    9900012    2    1    2    0    0 -0.31639506851E+00  0.11369512026E+01 -0.11869598119E-01  0.90007786136E+02  0.90000048113E+02 0.  0.
        -12    1    1    2    0    0  0.31639506851E+00 -0.11369512026E+01  0.11869598119E-01  0.11802138636E+01  0.00000000000E+00 0.  1.
         11    1    3    3    0    0  0.23825173667E+02  0.36802945484E+01 -0.96258955600E+01  0.25958453995E+02  0.51100000000E-03 0. -1.
        -11    1    3    3    0    0  0.16686320703E+02 -0.10069266069E+02  0.11246954800E+02  0.22501497957E+02  0.51100000000E-03 0.  1.
        -12    1    3    3    0    0 -0.40827889438E+02  0.75259227229E+01 -0.16329288386E+01  0.41547834184E+02  0.00000000000E+00 0.  1.
</event>
<event>
 7    1  0.2641103E-015  0.9000772E+02  0.7816164E-02  0.1186339E+00
        -11   -1    0    0    0    0  0.00000000000E+00  0.00000000000E+00  0.45593999997E+02  0.45594000000E+02  0.51100000000E-03 0. -1.
         11   -1    0    0    0    0 -0.00000000000E+00 -0.00000000000E+00 -0.45593999997E+02  0.45594000000E+02  0.51100000000E-03 0.  1.
    9900012    2    1    2    0    0  0.72327678655E+00  0.93269587541E+00  0.34019329593E-02  0.90007719322E+02  0.89999980417E+02 0.  0.
        -12    1    1    2    0    0 -0.72327678655E+00 -0.93269587541E+00 -0.34019329593E-02  0.11802806781E+01  0.00000000000E+00 0.  1.
         11    1    3    3    0    0 -0.45903225118E+01 -0.99314601522E+01 -0.19763153213E+00  0.10942761078E+02  0.51100000000E-03 0. -1.
        -11    1    3    3    0    0  0.22051955821E+02 -0.17913703640E+02 -0.24575644474E+02  0.37565300947E+02  0.51100000000E-03 0.  1.
         12    1    3    3    0    0 -0.16738356523E+02  0.28777859668E+02  0.24776677939E+02  0.41499657298E+02  0.00000000000E+00 0. -1.
</event>
<event>
 7    1  0.2641103E-015  0.9000774E+02  0.7816164E-02  0.1186339E+00
        -11   -1    0    0    0    0  0.00000000000E+00  0.00000000000E+00  0.45593999997E+02  0.45594000000E+02  0.51100000000E-03 0.  1.
         11   -1    0    0    0    0 -0.00000000000E+00 -0.00000000000E+00 -0.45593999997E+02  0.45594000000E+02  0.51100000000E-03 0. -1.
    9900012    2    1    2    0    0  0.10897546772E+01 -0.11597070536E+00 -0.43818896156E+00  0.90007735611E+02  0.89999996921E+02 0.  0.
        -12    1    1    2    0    0 -0.10897546772E+01  0.11597070536E+00  0.43818896156E+00  0.11802643886E+01  0.00000000000E+00 0.  1.
         11    1    3    3    0    0  0.37335996832E+01  0.60069263717E+01  0.53121785441E+01  0.88454605406E+01  0.51100000000E-03 0. -1.
        -11    1    3    3    0    0 -0.19993300130E+02 -0.36088491335E+02  0.10999856930E+02  0.42697870084E+02  0.51100000000E-03 0.  1.
         12    1    3    3    0    0  0.17349455124E+02  0.29965594258E+02 -0.16750224436E+02  0.38464404987E+02  0.00000000000E+00 0. -1.
</event>
<event>
 7    1  0.2641103E-015  0.9000770E+02  0.7816164E-02  0.1186339E+00
        -11   -1    0    0    0    0  0.00000000000E+00  0.00000000000E+00  0.45593999997E+02  0.45594000000E+02  0.51100000000E-03 0.  1.
         11   -1    0    0    0    0 -0.00000000000E+00 -0.00000000000E+00 -0.45593999997E+02  0.45594000000E+02  0.51100000000E-03 0. -1.
    9900012    2    1    2    0    0 -0.76245451911E+00  0.71471832330E+00  0.54859538212E+00  0.90007696620E+02  0.89999957415E+02 0.  0.
        -12    1    1    2    0    0  0.76245451911E+00 -0.71471832330E+00 -0.54859538212E+00  0.11803033799E+01  0.00000000000E+00 0.  1.
         11    1    3    3    0    0 -0.28140526684E+02 -0.25630315567E+02 -0.16528020625E+02  0.41496720162E+02  0.51100000000E-03 0. -1.
        -11    1    3    3    0    0 -0.22936245746E+01  0.78432251855E+01 -0.23586186454E+01  0.85052911282E+01  0.51100000000E-03 0.  1.
        -12    1    3    3    0    0  0.29671696740E+02  0.18501808705E+02  0.19435234652E+02  0.40005685330E+02  0.00000000000E+00 0.  1.
</event>
<event>
 7    1  0.2641103E-015  0.9000776E+02  0.7816164E-02  0.1186339E+00
        -11   -1    0    0    0    0  0.00000000000E+00  0.00000000000E+00  0.45593999997E+02  0.45594000000E+02  0.51100000000E-03 0. -1.
         11   -1    0    0    0    0 -0.00000000000E+00 -0.00000000000E+00 -0.45593999997E+02  0.45594000000E+02  0.51100000000E-03 0.  1.
    9900012    2    1    2    0    0  0.45213612099E+00  0.91841556461E+00  0.58741738343E+00  0.90007757057E+02  0.90000018651E+02 0.  0.
        -12    1    1    2    0    0 -0.45213612099E+00 -0.91841556461E+00 -0.58741738343E+00  0.11802429426E+01  0.00000000000E+00 0.  1.
         11    1    3    3    0    0  0.30422253314E+02 -0.19779945612E+02  0.14850670018E+01  0.36317560069E+02  0.51100000000E-03 0. -1.
        -11    1    3    3    0    0  0.48586205388E+01 -0.74105728746E+01 -0.11294537021E+01  0.89329978057E+01  0.51100000000E-03 0.  1.
        -12    1    3    3    0    0 -0.34828737732E+02  0.28108934051E+02  0.23180408372E+00  0.44757199182E+02  0.00000000000E+00 0.  1.
</event>
<event>
 7    1  0.2641103E-015  0.9000774E+02  0.7816164E-02  0.1186339E+00
        -11   -1    0    0    0    0  0.00000000000E+00  0.00000000000E+00  0.45593999997E+02  0.45594000000E+02  0.51100000000E-03 0.  1.
         11   -1    0    0    0    0 -0.00000000000E+00 -0.00000000000E+00 -0.45593999997E+02  0.45594000000E+02  0.51100000000E-03 0. -1.
    9900012    2    1    2    0    0  0.15125190358E+00 -0.49033160251E-01 -0.11695050802E+01  0.90007735825E+02  0.89999997138E+02 0.  0.
        -12    1    1    2    0    0 -0.15125190358E+00  0.49033160251E-01  0.11695050802E+01  0.11802641745E+01  0.00000000000E+00 0.  1.
         11    1    3    3    0    0 -0.28553675287E+02 -0.16004932364E+02 -0.28128841367E+02  0.43159030912E+02  0.51100000000E-03 0. -1.
        -11    1    3    3    0    0  0.94381143817E+01  0.12757278492E+01 -0.13186781274E+01  0.96148009283E+01  0.51100000000E-03 0.  1.
        -12    1    3    3    0    0  0.19266812808E+02  0.14680171355E+02  0.28278014414E+02  0.37233903985E+02  0.00000000000E+00 0.  1.
</event>
<event>
 8    1  0.2641103E-015  0.9000781E+02  0.7816164E-02  0.1186339E+00
        -11   -1    0    0    0    0  0.00000000000E+00  0.00000000000E+00  0.45593999997E+02  0.45594000000E+02  0.51100000000E-03 0.  1.
         11   -1    0    0    0    0 -0.00000000000E+00 -0.00000000000E+00 -0.45593999997E+02  0.45594000000E+02  0.51100000000E-03 0. -1.
    9900012    2    1    2    0    0 -0.94007028476E+00 -0.37359630737E+00 -0.60789839126E+00  0.90007810695E+02  0.90000072996E+02 0.  0.
         23    2    3    3    0    0  0.21338628582E+02 -0.16608523099E+02  0.25736383811E+01  0.62258298134E+02  0.56020460216E+02 0.  0.
        -12    1    1    2    0    0  0.94007028476E+00  0.37359630737E+00  0.60789839126E+00  0.11801893048E+01  0.00000000000E+00 0.  1.
         11    1    4    4    0    0  0.20630258747E+02 -0.36650069632E+02  0.33371174375E+01  0.42189708852E+02  0.51100000000E-03 0. -1.
        -11    1    4    4    0    0  0.70836983497E+00  0.20041546533E+02 -0.76347905635E+00  0.20068589282E+02  0.51100000000E-03 0.  1.
        -12    1    3    3    0    0 -0.22278698867E+02  0.16234926791E+02 -0.31815367724E+01  0.27749512561E+02  0.00000000000E+00 0.  1.
</event>
<event>
 7    1  0.2641103E-015  0.9000774E+02  0.7816164E-02  0.1186339E+00
        -11   -1    0    0    0    0  0.00000000000E+00  0.00000000000E+00  0.45593999997E+02  0.45594000000E+02  0.51100000000E-03 0.  1.
         11   -1    0    0    0    0 -0.00000000000E+00 -0.00000000000E+00 -0.45593999997E+02  0.45594000000E+02  0.51100000000E-03 0. -1.
    9900012    2    1    2    0    0  0.11026724714E+01 -0.12710109969E+00 -0.40122747755E+00  0.90007735302E+02  0.89999996608E+02 0.  0.
        -12    1    1    2    0    0 -0.11026724714E+01  0.12710109969E+00  0.40122747755E+00  0.11802646981E+01  0.00000000000E+00 0.  1.
         11    1    3    3    0    0 -0.13271743556E+01 -0.68556146422E+01  0.24239212005E+01  0.73916329820E+01  0.51100000000E-03 0. -1.
        -11    1    3    3    0    0  0.27335293426E+02  0.10358773633E+02  0.29578485895E+02  0.41586167002E+02  0.51100000000E-03 0.  1.
         12    1    3    3    0    0 -0.24905446599E+02 -0.36302600908E+01 -0.32403634573E+02  0.41029935317E+02  0.00000000000E+00 0. -1.
</event>
<event>
 7    1  0.2641103E-015  0.9000764E+02  0.7816164E-02  0.1186339E+00
        -11   -1    0    0    0    0  0.00000000000E+00  0.00000000000E+00  0.45593999997E+02  0.45594000000E+02  0.51100000000E-03 0.  1.
         11   -1    0    0    0    0 -0.00000000000E+00 -0.00000000000E+00 -0.45593999997E+02  0.45594000000E+02  0.51100000000E-03 0. -1.
    9900012    2    1    2    0    0 -0.86840074555E+00  0.50163665062E+00 -0.62248489966E+00  0.90007641311E+02  0.89999901376E+02 0.  0.
        -12    1    1    2    0    0  0.86840074555E+00 -0.50163665062E+00  0.62248489966E+00  0.11803586889E+01  0.00000000000E+00 0.  1.
         11    1    3    3    0    0  0.34392679804E+02  0.14508942525E+02 -0.40450199585E+01  0.37546345016E+02  0.51100000000E-03 0. -1.
        -11    1    3    3    0    0  0.42138336175E+01  0.43724414112E+00  0.91068523305E+01  0.10044019904E+02  0.51100000000E-03 0.  1.
        -12    1    3    3    0    0 -0.39474914167E+02 -0.14444550015E+02 -0.56843172717E+01  0.42417276392E+02  0.00000000000E+00 0.  1.
</event>
<event>
 7    1  0.2641103E-015  0.9000775E+02  0.7816164E-02  0.1186339E+00
        -11   -1    0    0    0    0  0.00000000000E+00  0.00000000000E+00  0.45593999997E+02  0.45594000000E+02  0.51100000000E-03 0. -1.
         11   -1    0    0    0    0 -0.00000000000E+00 -0.00000000000E+00 -0.45593999997E+02  0.45594000000E+02  0.51100000000E-03 0.  1.
    9900012    2    1    2    0    0 -0.86891424102E+00  0.46584785624E+00  0.64882234681E+00  0.90007747222E+02  0.90000008685E+02 0.  0.
        -12    1    1    2    0    0  0.86891424102E+00 -0.46584785624E+00 -0.64882234681E+00  0.11802527785E+01  0.00000000000E+00 0.  1.
         11    1    3    3    0    0  0.10449650532E+01 -0.90936746840E+01 -0.48139225240E+01  0.10342181663E+02  0.51100000000E-03 0. -1.
        -11    1    3    3    0    0  0.34045165746E+02  0.17920585379E+02  0.15387272712E+02  0.41436564200E+02  0.51100000000E-03 0.  1.
         12    1    3    3    0    0 -0.35959045040E+02 -0.83610628384E+01 -0.99245278411E+01  0.38229001358E+02  0.00000000000E+00 0. -1.
</event>
<event>
 7    1  0.2641103E-015  0.9000775E+02  0.7816164E-02  0.1186339E+00
        -11   -1    0    0    0    0  0.00000000000E+00  0.00000000000E+00  0.45593999997E+02  0.45594000000E+02  0.51100000000E-03 0.  1.
         11   -1    0    0    0    0 -0.00000000000E+00 -0.00000000000E+00 -0.45593999997E+02  0.45594000000E+02  0.51100000000E-03 0. -1.
    9900012    2    1    2    0    0 -0.52054657347E+00 -0.96673777267E+00 -0.43294316564E+00  0.90007749840E+02  0.90000011338E+02 0.  0.
        -12    1    1    2    0    0  0.52054657347E+00  0.96673777267E+00  0.43294316564E+00  0.11802501603E+01  0.00000000000E+00 0.  1.
         11    1    3    3    0    0 -0.45487603708E+01 -0.19708384841E+01 -0.48698716260E+01  0.69491780202E+01  0.51100000000E-03 0. -1.
        -11    1    3    3    0    0  0.22684261243E+02 -0.17702952728E+01 -0.33613287159E+02  0.40590180184E+02  0.51100000000E-03 0.  1.
         12    1    3    3    0    0 -0.18656047446E+02  0.27743959842E+01  0.38050215620E+02  0.42468391635E+02  0.00000000000E+00 0. -1.
</event>
<event>
 7    1  0.2641103E-015  0.9000766E+02  0.7816164E-02  0.1186339E+00
        -11   -1    0    0    0    0  0.00000000000E+00  0.00000000000E+00  0.45593999997E+02  0.45594000000E+02  0.51100000000E-03 0.  1.
         11   -1    0    0    0    0 -0.00000000000E+00 -0.00000000000E+00 -0.45593999997E+02  0.45594000000E+02  0.51100000000E-03 0. -1.
    9900012    2    1    2    0    0  0.10476020901E+01  0.33495831708E-01 -0.54277526347E+00  0.90007662296E+02  0.89999922638E+02 0.  0.
        -12    1    1    2    0    0 -0.10476020901E+01 -0.33495831708E-01  0.54277526347E+00  0.11803377044E+01  0.00000000000E+00 0.  1.
         11    1    3    3    0    0 -0.88121661934E+01  0.50233551677E+01 -0.22899026436E+01  0.10398654939E+02  0.51100000000E-03 0. -1.
        -11    1    3    3    0    0 -0.21852927220E+02 -0.31262601189E+02  0.40818227785E+01  0.38360942879E+02  0.51100000000E-03 0.  1.
         12    1    3    3    0    0  0.31712695503E+02  0.26272741853E+02 -0.23346953984E+01  0.41248064477E+02  0.00000000000E+00 0. -1.
</event>
<event>
 7    1  0.2641103E-015  0.9000769E+02  0.7816164E-02  0.1186339E+00
        -11   -1    0    0    0    0  0.00000000000E+00  0.00000000000E+00  0.45593999997E+02  0.45594000000E+02  0.51100000000E-03 0.  1.
         11   -1    0    0    0    0 -0.00000000000E+00 -0.00000000000E+00 -0.45593999997E+02  0.45594000000E+02  0.51100000000E-03 0. -1.
    9900012    2    1    2    0    0  0.68181078526E+00  0.20872193063E+00 -0.94058333947E+00  0.90007691646E+02  0.89999952376E+02 0.  0.
        -12    1    1    2    0    0 -0.68181078526E+00 -0.20872193063E+00  0.94058333947E+00  0.11803083537E+01  0.00000000000E+00 0.  1.
         11    1    3    3    0    0  0.47150634515E+01 -0.99274463743E+01  0.29726768113E+01  0.11385201911E+02  0.51100000000E-03 0. -1.
        -11    1    3    3    0    0 -0.22835373458E+02  0.10308984877E+02  0.30461312039E+02  0.39441361305E+02  0.51100000000E-03 0.  1.
         12    1    3    3    0    0  0.18802120792E+02 -0.17281657220E+00 -0.34374572190E+02  0.39181128431E+02  0.00000000000E+00 0. -1.
</event>
<event>
 7    1  0.2641103E-015  0.9000773E+02  0.7816164E-02  0.1186339E+00
        -11   -1    0    0    0    0  0.00000000000E+00  0.00000000000E+00  0.45593999997E+02  0.45594000000E+02  0.51100000000E-03 0. -1.
         11   -1    0    0    0    0 -0.00000000000E+00 -0.00000000000E+00 -0.45593999997E+02  0.45594000000E+02  0.51100000000E-03 0.  1.
    9900012    2    1    2    0    0 -0.30482965813E+00 -0.11113635977E+01  0.25494193253E+00  0.90007726491E+02  0.89999987681E+02 0.  0.
        -12    1    1    2    0    0  0.30482965813E+00  0.11113635977E+01 -0.25494193253E+00  0.11802735089E+01  0.00000000000E+00 0.  1.
         11    1    3    3    0    0  0.10628125422E+02  0.99540172574E+01 -0.74966869497E+00  0.14580861187E+02  0.51100000000E-03 0. -1.
        -11    1    3    3    0    0  0.20576328942E+02 -0.25392040757E+02 -0.16530616469E+02  0.36625159763E+02  0.51100000000E-03 0.  1.
         12    1    3    3    0    0 -0.31509284022E+02  0.14326659902E+02  0.17535227097E+02  0.38801705541E+02  0.00000000000E+00 0. -1.
</event>
<event>
 7    1  0.2641103E-015  0.9000776E+02  0.7816164E-02  0.1186339E+00
        -11   -1    0    0    0    0  0.00000000000E+00  0.00000000000E+00  0.45593999997E+02  0.45594000000E+02  0.51100000000E-03 0. -1.
         11   -1    0    0    0    0 -0.00000000000E+00 -0.00000000000E+00 -0.45593999997E+02  0.45594000000E+02  0.51100000000E-03 0.  1.
    9900012    2    1    2    0    0 -0.38258455033E+00 -0.74430335481E+00  0.83223729609E+00  0.90007755390E+02  0.90000016961E+02 0.  0.
        -12    1    1    2    0    0  0.38258455033E+00  0.74430335481E+00 -0.83223729609E+00  0.11802446099E+01  0.00000000000E+00 0.  1.
         11    1    3    3    0    0  0.41865350442E+01 -0.83511936230E+01 -0.25662678037E+00  0.93453393823E+01  0.51100000000E-03 0. -1.
        -11    1    3    3    0    0  0.12719968658E+02 -0.15651021434E+02  0.32295051849E+02  0.38075220929E+02  0.51100000000E-03 0.  1.
         12    1    3    3    0    0 -0.17289088252E+02  0.23257911703E+02 -0.31206187773E+02  0.42587195079E+02  0.00000000000E+00 0. -1.
</event>
<event>
 7    1  0.2641103E-015  0.9000774E+02  0.7816164E-02  0.1186339E+00
        -11   -1    0    0    0    0  0.00000000000E+00  0.00000000000E+00  0.45593999997E+02  0.45594000000E+02  0.51100000000E-03 0. -1.
         11   -1    0    0    0    0 -0.00000000000E+00 -0.00000000000E+00 -0.45593999997E+02  0.45594000000E+02  0.51100000000E-03 0.  1.
    9900012    2    1    2    0    0  0.82314054555E+00  0.52007777573E+00  0.66706688290E+00  0.90007737539E+02  0.89999998875E+02 0.  0.
        -12    1    1    2    0    0 -0.82314054555E+00 -0.52007777573E+00 -0.66706688290E+00  0.11802624610E+01  0.00000000000E+00 0.  1.
         11    1    3    3    0    0  0.36915700540E+01 -0.33147098729E+02  0.22496045964E+02  0.40229714489E+02  0.51100000000E-03 0. -1.
        -11    1    3    3    0    0 -0.11082520735E+01 -0.44079658883E+01 -0.80567622823E+01  0.92503948384E+01  0.51100000000E-03 0.  1.
        -12    1    3    3    0    0 -0.17601774350E+01  0.38075142393E+02 -0.13772216799E+02  0.40527628211E+02  0.00000000000E+00 0.  1.
</event>
<event>
 7    1  0.2641103E-015  0.9000771E+02  0.7816164E-02  0.1186339E+00
        -11   -1    0    0    0    0  0.00000000000E+00  0.00000000000E+00  0.45593999997E+02  0.45594000000E+02  0.51100000000E-03 0.  1.
         11   -1    0    0    0    0 -0.00000000000E+00 -0.00000000000E+00 -0.45593999997E+02  0.45594000000E+02  0.51100000000E-03 0. -1.
    9900012    2    1    2    0    0  0.10978913778E+01 -0.10168495840E+00 -0.42115686853E+00  0.90007712571E+02  0.89999973577E+02 0.  0.
        -12    1    1    2    0    0 -0.10978913778E+01  0.10168495840E+00  0.42115686853E+00  0.11802874294E+01  0.00000000000E+00 0.  1.
         11    1    3    3    0    0 -0.22295249821E+02 -0.49298223624E+01 -0.36748192160E+02  0.43264430429E+02  0.51100000000E-03 0. -1.
        -11    1    3    3    0    0 -0.22503238308E+00 -0.40693911106E+01  0.64883353730E+01  0.76621850511E+01  0.51100000000E-03 0.  1.
        -12    1    3    3    0    0  0.23618173581E+02  0.88975285145E+01  0.29838699918E+02  0.39081097090E+02  0.00000000000E+00 0.  1.
</event>
<event>
 7    1  0.2641103E-015  0.9000734E+02  0.7816164E-02  0.1186340E+00
        -11   -1    0    0    0    0  0.00000000000E+00  0.00000000000E+00  0.45593999997E+02  0.45594000000E+02  0.51100000000E-03 0. -1.
         11   -1    0    0    0    0 -0.00000000000E+00 -0.00000000000E+00 -0.45593999997E+02  0.45594000000E+02  0.51100000000E-03 0.  1.
    9900012    2    1    2    0    0  0.13118452406E-01  0.11685816015E+01 -0.16794720853E+00  0.90007338610E+02  0.89999594679E+02 0.  0.
        -12    1    1    2    0    0 -0.13118452406E-01 -0.11685816015E+01  0.16794720853E+00  0.11806613900E+01  0.00000000000E+00 0.  1.
         11    1    3    3    0    0 -0.16867466470E+02  0.32714431461E+02  0.40660926758E+01  0.37030778561E+02  0.51100000000E-03 0. -1.
        -11    1    3    3    0    0 -0.39062652823E+01  0.72542781493E+01 -0.35031485399E+01  0.89529609558E+01  0.51100000000E-03 0.  1.
        -12    1    3    3    0    0  0.20786850205E+02 -0.38800128009E+02 -0.73089134444E+00  0.44023599093E+02  0.00000000000E+00 0.  1.
</event>
<event>
 7    1  0.2641103E-015  0.9000778E+02  0.7816164E-02  0.1186339E+00
        -11   -1    0    0    0    0  0.00000000000E+00  0.00000000000E+00  0.45593999997E+02  0.45594000000E+02  0.51100000000E-03 0.  1.
         11   -1    0    0    0    0 -0.00000000000E+00 -0.00000000000E+00 -0.45593999997E+02  0.45594000000E+02  0.51100000000E-03 0. -1.
    9900012    2    1    2    0    0  0.32941962552E+00  0.87519834044E+00  0.72002347170E+00  0.90007778315E+02  0.90000040189E+02 0.  0.
        -12    1    1    2    0    0 -0.32941962552E+00 -0.87519834044E+00 -0.72002347170E+00  0.11802216845E+01  0.00000000000E+00 0.  1.
         11    1    3    3    0    0 -0.10057717176E+02  0.75865647649E+00  0.45430901722E+01  0.11062228664E+02  0.51100000000E-03 0. -1.
        -11    1    3    3    0    0 -0.33434458317E+02  0.68442227486E+01  0.22232670141E+01  0.34200136029E+02  0.51100000000E-03 0.  1.
         12    1    3    3    0    0  0.43821595118E+02 -0.67276808847E+01 -0.60463337146E+01  0.44745413622E+02  0.00000000000E+00 0. -1.
</event>
<event>
 7    1  0.2641103E-015  0.9000775E+02  0.7816164E-02  0.1186339E+00
        -11   -1    0    0    0    0  0.00000000000E+00  0.00000000000E+00  0.45593999997E+02  0.45594000000E+02  0.51100000000E-03 0. -1.
         11   -1    0    0    0    0 -0.00000000000E+00 -0.00000000000E+00 -0.45593999997E+02  0.45594000000E+02  0.51100000000E-03 0.  1.
    9900012    2    1    2    0    0 -0.98106330761E+00  0.65026829556E+00  0.87486499367E-01  0.90007750892E+02  0.90000012404E+02 0.  0.
        -12    1    1    2    0    0  0.98106330761E+00 -0.65026829556E+00 -0.87486499367E-01  0.11802491082E+01  0.00000000000E+00 0.  1.
         11    1    3    3    0    0 -0.47513905868E+01 -0.79951220490E+01  0.18581500838E+01  0.94842190549E+01  0.51100000000E-03 0. -1.
        -11    1    3    3    0    0 -0.13142529020E+02  0.27448852132E+02 -0.29922921256E+02  0.42679582580E+02  0.51100000000E-03 0.  1.
         12    1    3    3    0    0  0.16912856299E+02 -0.18803461787E+02  0.28152257672E+02  0.37843949257E+02  0.00000000000E+00 0. -1.
</event>
<event>
 7    1  0.2641103E-015  0.9000775E+02  0.7816164E-02  0.1186339E+00
        -11   -1    0    0    0    0  0.00000000000E+00  0.00000000000E+00  0.45593999997E+02  0.45594000000E+02  0.51100000000E-03 0.  1.
         11   -1    0    0    0    0 -0.00000000000E+00 -0.00000000000E+00 -0.45593999997E+02  0.45594000000E+02  0.51100000000E-03 0. -1.
    9900012    2    1    2    0    0 -0.97263138097E+00 -0.66856618681E+00  0.24578831987E-02  0.90007746387E+02  0.90000007839E+02 0.  0.
        -12    1    1    2    0    0  0.97263138097E+00  0.66856618681E+00 -0.24578831987E-02  0.11802536128E+01  0.00000000000E+00 0.  1.
         11    1    3    3    0    0 -0.19300328883E+02 -0.79034836831E+01 -0.38162954298E+02  0.43489985403E+02  0.51100000000E-03 0. -1.
        -11    1    3    3    0    0  0.69747476792E+00 -0.36957588252E+01  0.14810885749E+02  0.15280950274E+02  0.51100000000E-03 0.  1.
        -12    1    3    3    0    0  0.17630222734E+02  0.10930676321E+02  0.23354526432E+02  0.31236810710E+02  0.00000000000E+00 0.  1.
</event>
<event>
 7    1  0.2641103E-015  0.9000778E+02  0.7816164E-02  0.1186339E+00
        -11   -1    0    0    0    0  0.00000000000E+00  0.00000000000E+00  0.45593999997E+02  0.45594000000E+02  0.51100000000E-03 0.  1.
         11   -1    0    0    0    0 -0.00000000000E+00 -0.00000000000E+00 -0.45593999997E+02  0.45594000000E+02  0.51100000000E-03 0. -1.
    9900012    2    1    2    0    0  0.21567693845E+00 -0.10063910176E+01 -0.57755802535E+00  0.90007782776E+02  0.90000044709E+02 0.  0.
        -12    1    1    2    0    0 -0.21567693845E+00  0.10063910176E+01  0.57755802535E+00  0.11802172235E+01  0.00000000000E+00 0.  1.
         11    1    3    3    0    0 -0.28841869389E+02 -0.73239825850E+01 -0.31148269373E+02  0.43077939087E+02  0.51100000000E-03 0. -1.
        -11    1    3    3    0    0  0.58155986636E+01  0.84937095765E+01  0.28332181370E+01  0.10676676237E+02  0.51100000000E-03 0.  1.
        -12    1    3    3    0    0  0.23241947664E+02 -0.21761180091E+01  0.27737493210E+02  0.36253167453E+02  0.00000000000E+00 0.  1.
</event>
<event>
 7    1  0.2641103E-015  0.9000780E+02  0.7816164E-02  0.1186339E+00
        -11   -1    0    0    0    0  0.00000000000E+00  0.00000000000E+00  0.45593999997E+02  0.45594000000E+02  0.51100000000E-03 0.  1.
         11   -1    0    0    0    0 -0.00000000000E+00 -0.00000000000E+00 -0.45593999997E+02  0.45594000000E+02  0.51100000000E-03 0. -1.
    9900012    2    1    2    0    0 -0.11366844459E+01 -0.23278187412E+00  0.21594678592E+00  0.90007800040E+02  0.90000062201E+02 0.  0.
        -12    1    1    2    0    0  0.11366844459E+01  0.23278187412E+00 -0.21594678592E+00  0.11801999597E+01  0.00000000000E+00 0.  1.
         11    1    3    3    0    0  0.29395974597E+01  0.36708769045E+01  0.36549407796E+01  0.59561029907E+01  0.51100000000E-03 0. -1.
        -11    1    3    3    0    0 -0.93600910824E+01 -0.29466660564E+02  0.29016730094E+02  0.42401250164E+02  0.51100000000E-03 0.  1.
         12    1    3    3    0    0  0.52838091767E+01  0.25563001786E+02 -0.32455724088E+02  0.41650446885E+02  0.00000000000E+00 0. -1.
</event>
<event>
 7    1  0.2641103E-015  0.9000784E+02  0.7816164E-02  0.1186339E+00
        -11   -1    0    0    0    0  0.00000000000E+00  0.00000000000E+00  0.45593999997E+02  0.45594000000E+02  0.51100000000E-03 0.  1.
         11   -1    0    0    0    0 -0.00000000000E+00 -0.00000000000E+00 -0.45593999997E+02  0.45594000000E+02  0.51100000000E-03 0. -1.
    9900012    2    1    2    0    0  0.77375574507E+00 -0.72139340103E+00 -0.52312824768E+00  0.90007843419E+02  0.90000106152E+02 0.  0.
        -12    1    1    2    0    0 -0.77375574507E+00  0.72139340103E+00  0.52312824768E+00  0.11801565810E+01  0.00000000000E+00 0.  1.
         11    1    3    3    0    0  0.19606195871E+02  0.14180513616E+01  0.60646791292E+01  0.20571682464E+02  0.51100000000E-03 0. -1.
        -11    1    3    3    0    0  0.23330783211E+02  0.19615519057E+01 -0.12699260495E+02  0.26635396534E+02  0.51100000000E-03 0.  1.
         12    1    3    3    0    0 -0.42163223337E+02 -0.41009966683E+01  0.61114531181E+01  0.42800764421E+02  0.00000000000E+00 0. -1.
</event>
<event>
 7    1  0.2641103E-015  0.9000778E+02  0.7816164E-02  0.1186339E+00
        -11   -1    0    0    0    0  0.00000000000E+00  0.00000000000E+00  0.45593999997E+02  0.45594000000E+02  0.51100000000E-03 0. -1.
         11   -1    0    0    0    0 -0.00000000000E+00 -0.00000000000E+00 -0.45593999997E+02  0.45594000000E+02  0.51100000000E-03 0.  1.
    9900012    2    1    2    0    0  0.37044708572E-01 -0.11796002693E+01  0.10072274388E-01  0.90007775209E+02  0.90000037042E+02 0.  0.
        -12    1    1    2    0    0 -0.37044708572E-01  0.11796002693E+01 -0.10072274388E-01  0.11802247907E+01  0.00000000000E+00 0.  1.
         11    1    3    3    0    0 -0.11950077674E+02 -0.16788769398E+02  0.63689865855E+01  0.21569217063E+02  0.51100000000E-03 0. -1.
        -11    1    3    3    0    0 -0.16749645913E+02 -0.14645183089E+02 -0.13616519266E+02  0.26085275983E+02  0.51100000000E-03 0.  1.
         12    1    3    3    0    0  0.28736768296E+02  0.30254352219E+02  0.72576049553E+01  0.42353282163E+02  0.00000000000E+00 0. -1.
</event>
<event>
 7    1  0.2641103E-015  0.9000774E+02  0.7816164E-02  0.1186339E+00
        -11   -1    0    0    0    0  0.00000000000E+00  0.00000000000E+00  0.45593999997E+02  0.45594000000E+02  0.51100000000E-03 0. -1.
         11   -1    0    0    0    0 -0.00000000000E+00 -0.00000000000E+00 -0.45593999997E+02  0.45594000000E+02  0.51100000000E-03 0.  1.
    9900012    2    1    2    0    0 -0.91572569783E-02 -0.11679461251E+01  0.16978397048E+00  0.90007742145E+02  0.90000003542E+02 0.  0.
        -12    1    1    2    0    0  0.91572569783E-02  0.11679461251E+01 -0.16978397048E+00  0.11802578545E+01  0.00000000000E+00 0.  1.
         11    1    3    3    0    0 -0.10390339615E+01 -0.27197217259E+02  0.24354193672E+02  0.36522526855E+02  0.51100000000E-03 0. -1.
        -11    1    3    3    0    0 -0.72787842062E+00 -0.79265368479E+01  0.43733234915E+01  0.90821667029E+01  0.51100000000E-03 0.  1.
        -12    1    3    3    0    0  0.17577551252E+01  0.33955807982E+02 -0.28557733193E+02  0.44403048588E+02  0.00000000000E+00 0.  1.
</event>
<event>
 7    1  0.2641103E-015  0.9000764E+02  0.7816164E-02  0.1186339E+00
        -11   -1    0    0    0    0  0.00000000000E+00  0.00000000000E+00  0.45593999997E+02  0.45594000000E+02  0.51100000000E-03 0.  1.
         11   -1    0    0    0    0 -0.00000000000E+00 -0.00000000000E+00 -0.45593999997E+02  0.45594000000E+02  0.51100000000E-03 0. -1.
    9900012    2    1    2    0    0 -0.85548374501E+00 -0.52795850103E+00 -0.61859325644E+00  0.90007639786E+02  0.89999899832E+02 0.  0.
        -12    1    1    2    0    0  0.85548374501E+00  0.52795850103E+00  0.61859325644E+00  0.11803602135E+01  0.00000000000E+00 0.  1.
         11    1    3    3    0    0 -0.74258772193E+01 -0.39497863802E+01 -0.34780952278E+01  0.91017367354E+01  0.51100000000E-03 0. -1.
        -11    1    3    3    0    0  0.71279525154E+01  0.31054519813E+02  0.28838199531E+02  0.42974790986E+02  0.51100000000E-03 0.  1.
         12    1    3    3    0    0 -0.55755904110E+00 -0.27632691934E+02 -0.25978697560E+02  0.37931112065E+02  0.00000000000E+00 0. -1.
</event>
<event>
 7    1  0.2781644E-015  0.9000768E+02  0.7816164E-02  0.1186339E+00
        -11   -1    0    0    0    0  0.00000000000E+00  0.00000000000E+00  0.45593999997E+02  0.45594000000E+02  0.51100000000E-03 0.  1.
         11   -1    0    0    0    0 -0.00000000000E+00 -0.00000000000E+00 -0.45593999997E+02  0.45594000000E+02  0.51100000000E-03 0. -1.
    9900012    2    1    2    0    0  0.26016586802E+00 -0.77646118377E+00 -0.85005074978E+00  0.90007676093E+02  0.89999936617E+02 0.  0.
        -12    1    1    2    0    0 -0.26016586802E+00  0.77646118377E+00  0.85005074978E+00  0.11803239072E+01  0.00000000000E+00 0.  1.
         11    1    3    3    0    0  0.64585416506E+01  0.20717050379E+01 -0.65510558477E+01  0.94297961270E+01  0.51100000000E-03 0. -1.
        -11    1    3    3    0    0 -0.13147158405E+01  0.22067706829E+02  0.35256486788E+02  0.41614084434E+02  0.51100000000E-03 0.  1.
         12    1    3    3    0    0 -0.48836599421E+01 -0.24915873050E+02 -0.29555481690E+02  0.38963795531E+02  0.00000000000E+00 0. -1.
</event>
<event>
 7    1  0.2641103E-015  0.9000773E+02  0.7816164E-02  0.1186339E+00
        -11   -1    0    0    0    0  0.00000000000E+00  0.00000000000E+00  0.45593999997E+02  0.45594000000E+02  0.51100000000E-03 0.  1.
         11   -1    0    0    0    0 -0.00000000000E+00 -0.00000000000E+00 -0.45593999997E+02  0.45594000000E+02  0.51100000000E-03 0. -1.
    9900012    2    1    2    0    0  0.66595258860E+00 -0.85340581934E+00  0.47036707377E+00  0.90007729045E+02  0.89999990269E+02 0.  0.
        -12    1    1    2    0    0 -0.66595258860E+00  0.85340581934E+00 -0.47036707377E+00  0.11802709548E+01  0.00000000000E+00 0.  1.
         11    1    3    3    0    0  0.14214840934E+02 -0.14784430123E+01  0.71821866968E+01  0.15994727335E+02  0.51100000000E-03 0. -1.
        -11    1    3    3    0    0  0.15206796813E+02 -0.27988628067E+02  0.38753909205E+01  0.32087826748E+02  0.51100000000E-03 0.  1.
         12    1    3    3    0    0 -0.28755685158E+02  0.28613665260E+02 -0.10587210544E+02  0.41925174962E+02  0.00000000000E+00 0. -1.
</event>
<event>
 7    1  0.2641103E-015  0.9000792E+02  0.7816164E-02  0.1186339E+00
        -11   -1    0    0    0    0  0.00000000000E+00  0.00000000000E+00  0.45593999997E+02  0.45594000000E+02  0.51100000000E-03 0. -1.
         11   -1    0    0    0    0 -0.00000000000E+00 -0.00000000000E+00 -0.45593999997E+02  0.45594000000E+02  0.51100000000E-03 0.  1.
    9900012    2    1    2    0    0  0.37383414619E+00  0.92729338035E+00 -0.62686852944E+00  0.90007919861E+02  0.90000183603E+02 0.  0.
        -12    1    1    2    0    0 -0.37383414619E+00 -0.92729338035E+00  0.62686852944E+00  0.11800801394E+01  0.00000000000E+00 0.  1.
         11    1    3    3    0    0  0.44263429149E+00  0.68427438469E+01 -0.50609828836E+01  0.85224771329E+01  0.51100000000E-03 0. -1.
        -11    1    3    3    0    0  0.32102631515E+01 -0.31347882377E+02 -0.26592948554E+02  0.41233244258E+02  0.51100000000E-03 0.  1.
         12    1    3    3    0    0 -0.32790632968E+01  0.25432431910E+02  0.31027062908E+02  0.40252198470E+02  0.00000000000E+00 0. -1.
</event>
<event>
 7    1  0.2641103E-015  0.9000772E+02  0.7816164E-02  0.1186339E+00
        -11   -1    0    0    0    0  0.00000000000E+00  0.00000000000E+00  0.45593999997E+02  0.45594000000E+02  0.51100000000E-03 0.  1.
         11   -1    0    0    0    0 -0.00000000000E+00 -0.00000000000E+00 -0.45593999997E+02  0.45594000000E+02  0.51100000000E-03 0. -1.
    9900012    2    1    2    0    0 -0.41610180972E+00 -0.10606417358E+01 -0.30815202308E+00  0.90007720678E+02  0.89999981791E+02 0.  0.
        -12    1    1    2    0    0  0.41610180972E+00  0.10606417358E+01  0.30815202308E+00  0.11802793217E+01  0.00000000000E+00 0.  1.
         11    1    3    3    0    0  0.41843453065E+01  0.81679524354E+01  0.90128505418E+01  0.12862957194E+02  0.51100000000E-03 0. -1.
        -11    1    3    3    0    0  0.16811762638E+02 -0.35340807212E+01  0.28520031667E+02  0.33294403375E+02  0.51100000000E-03 0.  1.
         12    1    3    3    0    0 -0.21412209755E+02 -0.56945134500E+01 -0.37841034231E+02  0.43850360109E+02  0.00000000000E+00 0. -1.
</event>
<event>
 7    1  0.2641103E-015  0.9000778E+02  0.7816164E-02  0.1186339E+00
        -11   -1    0    0    0    0  0.00000000000E+00  0.00000000000E+00  0.45593999997E+02  0.45594000000E+02  0.51100000000E-03 0. -1.
         11   -1    0    0    0    0 -0.00000000000E+00 -0.00000000000E+00 -0.45593999997E+02  0.45594000000E+02  0.51100000000E-03 0.  1.
    9900012    2    1    2    0    0 -0.50754031849E+00 -0.10610871194E+01  0.97097090064E-01  0.90007775066E+02  0.90000036897E+02 0.  0.
        -12    1    1    2    0    0  0.50754031849E+00  0.10610871194E+01 -0.97097090064E-01  0.11802249340E+01  0.00000000000E+00 0.  1.
         11    1    3    3    0    0  0.25133533859E+01  0.41469390571E+02  0.12363362679E+02  0.43346049838E+02  0.51100000000E-03 0. -1.
        -11    1    3    3    0    0 -0.60995496513E+01 -0.69129188888E+01 -0.16252398661E+01  0.93613224705E+01  0.51100000000E-03 0.  1.
        -12    1    3    3    0    0  0.30786559470E+01 -0.35617558802E+02 -0.10641025723E+02  0.37300402757E+02  0.00000000000E+00 0.  1.
</event>
<event>
 7    1  0.2641103E-015  0.9000774E+02  0.7816164E-02  0.1186339E+00
        -11   -1    0    0    0    0  0.00000000000E+00  0.00000000000E+00  0.45593999997E+02  0.45594000000E+02  0.51100000000E-03 0.  1.
         11   -1    0    0    0    0 -0.00000000000E+00 -0.00000000000E+00 -0.45593999997E+02  0.45594000000E+02  0.51100000000E-03 0. -1.
    9900012    2    1    2    0    0  0.17127805379E-01 -0.38372617248E+00 -0.11160101732E+01  0.90007738231E+02  0.89999999575E+02 0.  0.
        -12    1    1    2    0    0 -0.17127805379E-01  0.38372617248E+00  0.11160101732E+01  0.11802617692E+01  0.00000000000E+00 0.  1.
         11    1    3    3    0    0  0.48401358451E+01 -0.74787168559E+01 -0.37375811486E+01  0.96606228533E+01  0.51100000000E-03 0. -1.
        -11    1    3    3    0    0 -0.39766153471E+02  0.15887781856E+02  0.89905507021E+01  0.43756126159E+02  0.51100000000E-03 0.  1.
         12    1    3    3    0    0  0.34943145432E+02 -0.87927911725E+01 -0.63689797267E+01  0.36590989219E+02  0.00000000000E+00 0. -1.
</event>
<event>
 7    1  0.2641103E-015  0.9000761E+02  0.7816164E-02  0.1186339E+00
        -11   -1    0    0    0    0  0.00000000000E+00  0.00000000000E+00  0.45593999997E+02  0.45594000000E+02  0.51100000000E-03 0. -1.
         11   -1    0    0    0    0 -0.00000000000E+00 -0.00000000000E+00 -0.45593999997E+02  0.45594000000E+02  0.51100000000E-03 0.  1.
    9900012    2    1    2    0    0 -0.11544151269E+01  0.24508933679E+00 -0.23869965615E-01  0.90007613265E+02  0.89999872960E+02 0.  0.
        -12    1    1    2    0    0  0.11544151269E+01 -0.24508933679E+00  0.23869965615E-01  0.11803867347E+01  0.00000000000E+00 0.  1.
         11    1    3    3    0    0 -0.28859977844E+02  0.24460908275E+02  0.54726939227E+01  0.38225446156E+02  0.51100000000E-03 0. -1.
        -11    1    3    3    0    0 -0.53317939161E-01  0.84859180661E+01  0.33580709763E+00  0.84927271766E+01  0.51100000000E-03 0.  1.
        -12    1    3    3    0    0  0.27758880657E+02 -0.32701737004E+02 -0.58323709859E+01  0.43289439933E+02  0.00000000000E+00 0.  1.
</event>
<event>
 7    1  0.2641103E-015  0.9000773E+02  0.7816164E-02  0.1186339E+00
        -11   -1    0    0    0    0  0.00000000000E+00  0.00000000000E+00  0.45593999997E+02  0.45594000000E+02  0.51100000000E-03 0.  1.
         11   -1    0    0    0    0 -0.00000000000E+00 -0.00000000000E+00 -0.45593999997E+02  0.45594000000E+02  0.51100000000E-03 0. -1.
    9900012    2    1    2    0    0 -0.62078533473E+00  0.82495178211E+00 -0.57194173211E+00  0.90007730023E+02  0.89999991259E+02 0.  0.
        -12    1    1    2    0    0  0.62078533473E+00 -0.82495178211E+00  0.57194173211E+00  0.11802699774E+01  0.00000000000E+00 0.  1.
         11    1    3    3    0    0  0.39351761275E+02  0.10156676032E+01 -0.73773260849E+01  0.40050188971E+02  0.51100000000E-03 0. -1.
        -11    1    3    3    0    0  0.25461058978E+00 -0.63848362928E+01  0.66966690589E+01  0.92561513483E+01  0.51100000000E-03 0.  1.
        -12    1    3    3    0    0 -0.40227157200E+02  0.61941204717E+01  0.10871529394E+00  0.40701389704E+02  0.00000000000E+00 0.  1.
</event>
<event>
 7    1  0.2641103E-015  0.9000762E+02  0.7816164E-02  0.1186339E+00
        -11   -1    0    0    0    0  0.00000000000E+00  0.00000000000E+00  0.45593999997E+02  0.45594000000E+02  0.51100000000E-03 0. -1.
         11   -1    0    0    0    0 -0.00000000000E+00 -0.00000000000E+00 -0.45593999997E+02  0.45594000000E+02  0.51100000000E-03 0.  1.
    9900012    2    1    2    0    0 -0.78148095665E+00 -0.23498595236E+00  0.85286121070E+00  0.90007617381E+02  0.89999877130E+02 0.  0.
        -12    1    1    2    0    0  0.78148095665E+00  0.23498595236E+00 -0.85286121070E+00  0.11803826194E+01  0.00000000000E+00 0.  1.
         11    1    3    3    0    0 -0.64737142801E+01 -0.47247008508E+01  0.36807692041E+02  0.37670120365E+02  0.51100000000E-03 0. -1.
        -11    1    3    3    0    0 -0.66348059383E+01 -0.52064733957E+01  0.40591249224E+01  0.93597281187E+01  0.51100000000E-03 0.  1.
        -12    1    3    3    0    0  0.12327039262E+02  0.96961882942E+01 -0.40013955752E+02  0.42977768897E+02  0.00000000000E+00 0.  1.
</event>
<event>
 7    1  0.2641103E-015  0.9000768E+02  0.7816164E-02  0.1186339E+00
        -11   -1    0    0    0    0  0.00000000000E+00  0.00000000000E+00  0.45593999997E+02  0.45594000000E+02  0.51100000000E-03 0. -1.
         11   -1    0    0    0    0 -0.00000000000E+00 -0.00000000000E+00 -0.45593999997E+02  0.45594000000E+02  0.51100000000E-03 0.  1.
    9900012    2    1    2    0    0  0.29500220117E+00 -0.33090869288E-01  0.11423775355E+01  0.90007683204E+02  0.89999943823E+02 0.  0.
        -12    1    1    2    0    0 -0.29500220117E+00  0.33090869288E-01 -0.11423775355E+01  0.11803167956E+01  0.00000000000E+00 0.  1.
         11    1    3    3    0    0  0.81801474568E+01  0.37835109459E+01  0.49559069294E+01  0.10285464562E+02  0.51100000000E-03 0. -1.
        -11    1    3    3    0    0 -0.10578708610E+01  0.37363861271E+02  0.26924572822E+01  0.37475679397E+02  0.51100000000E-03 0.  1.
         12    1    3    3    0    0 -0.68272743946E+01 -0.41180463086E+02 -0.65059866761E+01  0.42246539246E+02  0.00000000000E+00 0. -1.
</event>
<event>
 7    1  0.2641103E-015  0.9000777E+02  0.7816164E-02  0.1186339E+00
        -11   -1    0    0    0    0  0.00000000000E+00  0.00000000000E+00  0.45593999997E+02  0.45594000000E+02  0.51100000000E-03 0.  1.
         11   -1    0    0    0    0 -0.00000000000E+00 -0.00000000000E+00 -0.45593999997E+02  0.45594000000E+02  0.51100000000E-03 0. -1.
    9900012    2    1    2    0    0 -0.73098263140E+00 -0.90804726135E+00  0.18451502757E+00  0.90007774923E+02  0.90000036752E+02 0.  0.
        -12    1    1    2    0    0  0.73098263140E+00  0.90804726135E+00 -0.18451502757E+00  0.11802250767E+01  0.00000000000E+00 0.  1.
         11    1    3    3    0    0  0.43032050609E+01 -0.77213454539E+01  0.50950183775E+01  0.10202742864E+02  0.51100000000E-03 0. -1.
        -11    1    3    3    0    0  0.18137269452E+02 -0.13612755240E+02  0.27089608692E+02  0.35328664675E+02  0.51100000000E-03 0.  1.
         12    1    3    3    0    0 -0.23171457144E+02  0.20426053432E+02 -0.32000112042E+02  0.44476367384E+02  0.00000000000E+00 0. -1.
</event>
<event>
 7    1  0.2641103E-015  0.9000763E+02  0.7816164E-02  0.1186339E+00
        -11   -1    0    0    0    0  0.00000000000E+00  0.00000000000E+00  0.45593999997E+02  0.45594000000E+02  0.51100000000E-03 0. -1.
         11   -1    0    0    0    0 -0.00000000000E+00 -0.00000000000E+00 -0.45593999997E+02  0.45594000000E+02  0.51100000000E-03 0.  1.
    9900012    2    1    2    0    0 -0.30151960993E+00  0.92375117423E+00  0.67010179637E+00  0.90007632801E+02  0.89999892754E+02 0.  0.
        -12    1    1    2    0    0  0.30151960993E+00 -0.92375117423E+00 -0.67010179637E+00  0.11803671990E+01  0.00000000000E+00 0.  1.
         11    1    3    3    0    0 -0.63711432459E+01  0.35302246925E+02  0.22288453915E+02  0.42232869692E+02  0.51100000000E-03 0. -1.
        -11    1    3    3    0    0 -0.74742381311E+01 -0.23871580336E+01 -0.34606998341E+01  0.85755001440E+01  0.51100000000E-03 0.  1.
        -12    1    3    3    0    0  0.13543861767E+02 -0.31991337717E+02 -0.18157652285E+02  0.39199262965E+02  0.00000000000E+00 0.  1.
</event>
<event>
 7    1  0.2641103E-015  0.9000773E+02  0.7816164E-02  0.1186339E+00
        -11   -1    0    0    0    0  0.00000000000E+00  0.00000000000E+00  0.45593999997E+02  0.45594000000E+02  0.51100000000E-03 0.  1.
         11   -1    0    0    0    0 -0.00000000000E+00 -0.00000000000E+00 -0.45593999997E+02  0.45594000000E+02  0.51100000000E-03 0. -1.
    9900012    2    1    2    0    0  0.29854463437E+00  0.18911417380E+00 -0.11261236379E+01  0.90007725660E+02  0.89999986839E+02 0.  0.
        -12    1    1    2    0    0 -0.29854463437E+00 -0.18911417380E+00  0.11261236379E+01  0.11802743398E+01  0.00000000000E+00 0.  1.
         11    1    3    3    0    0  0.29225302081E+01 -0.33159705405E+02 -0.10941830262E+02  0.35040418021E+02  0.51100000000E-03 0. -1.
        -11    1    3    3    0    0  0.66952178292E+00 -0.71161302777E+01 -0.79158694875E+01  0.10665296974E+02  0.51100000000E-03 0.  1.
        -12    1    3    3    0    0 -0.32935073566E+01  0.40464949856E+02  0.17731576111E+02  0.44302010665E+02  0.00000000000E+00 0.  1.
</event>
<event>
 7    1  0.2641103E-015  0.9000795E+02  0.7816164E-02  0.1186339E+00
        -11   -1    0    0    0    0  0.00000000000E+00  0.00000000000E+00  0.45593999997E+02  0.45594000000E+02  0.51100000000E-03 0.  1.
         11   -1    0    0    0    0 -0.00000000000E+00 -0.00000000000E+00 -0.45593999997E+02  0.45594000000E+02  0.51100000000E-03 0. -1.
    9900012    2    1    2    0    0 -0.77857612702E+00  0.60495171035E+00 -0.64836866614E+00  0.90007945220E+02  0.90000209296E+02 0.  0.
        -12    1    1    2    0    0  0.77857612702E+00 -0.60495171035E+00  0.64836866613E+00  0.11800547804E+01  0.00000000000E+00 0.  1.
         11    1    3    3    0    0  0.32656560401E+01  0.11149082894E+02 -0.40208254158E+02  0.41852960009E+02  0.51100000000E-03 0. -1.
        -11    1    3    3    0    0  0.35188830587E+01 -0.82649376213E+01  0.12859544782E+01  0.90744372303E+01  0.51100000000E-03 0.  1.
        -12    1    3    3    0    0 -0.75631152258E+01 -0.22791935628E+01  0.38273931014E+02  0.39080547981E+02  0.00000000000E+00 0.  1.
</event>
<event>
 8    1  0.2641103E-015  0.9000773E+02  0.7816164E-02  0.1186339E+00
        -11   -1    0    0    0    0  0.00000000000E+00  0.00000000000E+00  0.45593999997E+02  0.45594000000E+02  0.51100000000E-03 0. -1.
         11   -1    0    0    0    0 -0.00000000000E+00 -0.00000000000E+00 -0.45593999997E+02  0.45594000000E+02  0.51100000000E-03 0.  1.
    9900012    2    1    2    0    0 -0.17090402102E+00 -0.10552606365E+01  0.50025456773E+00  0.90007729765E+02  0.89999990998E+02 0.  0.
         23    2    3    3    0    0 -0.23359509767E+02 -0.48397826334E+01  0.12087523056E+02  0.63810423907E+02  0.57935928344E+02 0.  0.
        -12    1    1    2    0    0  0.17090402102E+00  0.10552606365E+01 -0.50025456773E+00  0.11802702351E+01  0.00000000000E+00 0.  1.
         11    1    4    4    0    0  0.98606420144E+01 -0.20624312686E+02  0.14299926569E+02  0.26964466151E+02  0.51100000000E-03 0. -1.
        -11    1    4    4    0    0 -0.33220151782E+02  0.15784530052E+02 -0.22124035135E+01  0.36845957756E+02  0.51100000000E-03 0.  1.
         12    1    3    3    0    0  0.23188605746E+02  0.37845219969E+01 -0.11587268488E+02  0.26197305858E+02  0.00000000000E+00 0. -1.
</event>
<event>
 7    1  0.2641103E-015  0.9000779E+02  0.7816164E-02  0.1186339E+00
        -11   -1    0    0    0    0  0.00000000000E+00  0.00000000000E+00  0.45593999997E+02  0.45594000000E+02  0.51100000000E-03 0. -1.
         11   -1    0    0    0    0 -0.00000000000E+00 -0.00000000000E+00 -0.45593999997E+02  0.45594000000E+02  0.51100000000E-03 0.  1.
    9900012    2    1    2    0    0  0.59372281851E+00 -0.74624837433E+00  0.69534680301E+00  0.90007787901E+02  0.90000049902E+02 0.  0.
        -12    1    1    2    0    0 -0.59372281851E+00  0.74624837433E+00 -0.69534680301E+00  0.11802120987E+01  0.00000000000E+00 0.  1.
         11    1    3    3    0    0  0.97467516531E+01  0.45210554536E+01  0.34717517902E+02  0.36342057726E+02  0.51100000000E-03 0. -1.
        -11    1    3    3    0    0  0.18726369100E+01 -0.38263764972E+01  0.86105739115E+01  0.96067637341E+01  0.51100000000E-03 0.  1.
        -12    1    3    3    0    0 -0.11025665745E+02 -0.14409273307E+01 -0.42632745011E+02  0.44058966441E+02  0.00000000000E+00 0.  1.
</event>
<event>
 7    1  0.2641103E-015  0.9000788E+02  0.7816164E-02  0.1186339E+00
        -11   -1    0    0    0    0  0.00000000000E+00  0.00000000000E+00  0.45593999997E+02  0.45594000000E+02  0.51100000000E-03 0. -1.
         11   -1    0    0    0    0 -0.00000000000E+00 -0.00000000000E+00 -0.45593999997E+02  0.45594000000E+02  0.51100000000E-03 0.  1.
    9900012    2    1    2    0    0 -0.11657927190E+01 -0.15249378105E+00 -0.10173245812E+00  0.90007882841E+02  0.90000146094E+02 0.  0.
        -12    1    1    2    0    0  0.11657927190E+01  0.15249378105E+00  0.10173245812E+00  0.11801171594E+01  0.00000000000E+00 0.  1.
         11    1    3    3    0    0  0.12677191864E+02 -0.26805713705E+01 -0.82708116145E+01  0.15372149539E+02  0.51100000000E-03 0. -1.
        -11    1    3    3    0    0 -0.30779510287E+01 -0.29749946615E+02 -0.15011111843E+02  0.33464407737E+02  0.51100000000E-03 0.  1.
         12    1    3    3    0    0 -0.10765033554E+02  0.32278024204E+02  0.23180191000E+02  0.41171325565E+02  0.00000000000E+00 0. -1.
</event>
<event>
 7    1  0.2641103E-015  0.9000783E+02  0.7816164E-02  0.1186339E+00
        -11   -1    0    0    0    0  0.00000000000E+00  0.00000000000E+00  0.45593999997E+02  0.45594000000E+02  0.51100000000E-03 0. -1.
         11   -1    0    0    0    0 -0.00000000000E+00 -0.00000000000E+00 -0.45593999997E+02  0.45594000000E+02  0.51100000000E-03 0.  1.
    9900012    2    1    2    0    0 -0.45903402545E+00 -0.96721677269E+00  0.49656483040E+00  0.90007831727E+02  0.90000094306E+02 0.  0.
        -12    1    1    2    0    0  0.45903402545E+00  0.96721677269E+00 -0.49656483040E+00  0.11801682730E+01  0.00000000000E+00 0.  1.
         11    1    3    3    0    0  0.16407745826E+02 -0.76791506133E+01 -0.59863105446E+01  0.19079292215E+02  0.51100000000E-03 0. -1.
        -11    1    3    3    0    0  0.24592225916E+01 -0.21064807369E+02 -0.19073905664E+02  0.28523459867E+02  0.51100000000E-03 0.  1.
         12    1    3    3    0    0 -0.19326002443E+02  0.27776741209E+02  0.25556781039E+02  0.42405079645E+02  0.00000000000E+00 0. -1.
</event>
<event>
 7    1  0.2641103E-015  0.9000757E+02  0.7816164E-02  0.1186339E+00
        -11   -1    0    0    0    0  0.00000000000E+00  0.00000000000E+00  0.45593999997E+02  0.45594000000E+02  0.51100000000E-03 0.  1.
         11   -1    0    0    0    0 -0.00000000000E+00 -0.00000000000E+00 -0.45593999997E+02  0.45594000000E+02  0.51100000000E-03 0. -1.
    9900012    2    1    2    0    0 -0.88690104110E+00  0.54881953140E+00  0.55283247205E+00  0.90007567843E+02  0.89999826939E+02 0.  0.
        -12    1    1    2    0    0  0.88690104110E+00 -0.54881953140E+00 -0.55283247205E+00  0.11804321568E+01  0.00000000000E+00 0.  1.
         11    1    3    3    0    0 -0.82180430566E+01  0.10654555207E+02  0.10466785585E+01  0.13496344490E+02  0.51100000000E-03 0. -1.
        -11    1    3    3    0    0 -0.25184894086E+02 -0.24267069867E+02 -0.15178266511E+02  0.38125442222E+02  0.51100000000E-03 0.  1.
         12    1    3    3    0    0  0.32516036101E+02  0.14161334192E+02  0.14684420424E+02  0.38385781131E+02  0.00000000000E+00 0. -1.
</event>
<event>
 7    1  0.2641103E-015  0.9000782E+02  0.7816164E-02  0.1186339E+00
        -11   -1    0    0    0    0  0.00000000000E+00  0.00000000000E+00  0.45593999997E+02  0.45594000000E+02  0.51100000000E-03 0.  1.
         11   -1    0    0    0    0 -0.00000000000E+00 -0.00000000000E+00 -0.45593999997E+02  0.45594000000E+02  0.51100000000E-03 0. -1.
    9900012    2    1    2    0    0  0.47390689044E+00 -0.88794407267E+00 -0.61627820654E+00  0.90007817283E+02  0.90000079671E+02 0.  0.
        -12    1    1    2    0    0 -0.47390689044E+00  0.88794407267E+00  0.61627820654E+00  0.11801827167E+01  0.00000000000E+00 0.  1.
         11    1    3    3    0    0  0.16475438346E+02 -0.14652278190E+02 -0.15132981890E+02  0.26742035562E+02  0.51100000000E-03 0. -1.
        -11    1    3    3    0    0  0.14606538196E+02  0.23559564939E+01  0.24922524848E+02  0.28983335456E+02  0.51100000000E-03 0.  1.
        -12    1    3    3    0    0 -0.30608069652E+02  0.11408377623E+02 -0.10405821164E+02  0.34282446265E+02  0.00000000000E+00 0.  1.
</event>
<event>
 7    1  0.2641103E-015  0.9000780E+02  0.7816164E-02  0.1186339E+00
        -11   -1    0    0    0    0  0.00000000000E+00  0.00000000000E+00  0.45593999997E+02  0.45594000000E+02  0.51100000000E-03 0.  1.
         11   -1    0    0    0    0 -0.00000000000E+00 -0.00000000000E+00 -0.45593999997E+02  0.45594000000E+02  0.51100000000E-03 0. -1.
    9900012    2    1    2    0    0  0.75708689048E+00 -0.77581020661E+00  0.46670921429E+00  0.90007796828E+02  0.90000058946E+02 0.  0.
        -12    1    1    2    0    0 -0.75708689048E+00  0.77581020661E+00 -0.46670921429E+00  0.11802031720E+01  0.00000000000E+00 0.  1.
         11    1    3    3    0    0 -0.36199548733E+01  0.69897142376E+01  0.63506298726E+01  0.10113885428E+02  0.51100000000E-03 0. -1.
        -11    1    3    3    0    0 -0.23616600548E+02  0.26200676783E+02  0.12937461632E+01  0.35297210438E+02  0.51100000000E-03 0.  1.
         12    1    3    3    0    0  0.27993642312E+02 -0.33966201227E+02 -0.71776668215E+01  0.44596700962E+02  0.00000000000E+00 0. -1.
</event>
<event>
 7    1  0.2641103E-015  0.9000786E+02  0.7816164E-02  0.1186339E+00
        -11   -1    0    0    0    0  0.00000000000E+00  0.00000000000E+00  0.45593999997E+02  0.45594000000E+02  0.51100000000E-03 0. -1.
         11   -1    0    0    0    0 -0.00000000000E+00 -0.00000000000E+00 -0.45593999997E+02  0.45594000000E+02  0.51100000000E-03 0.  1.
    9900012    2    1    2    0    0 -0.77717384606E+00  0.59602546788E+00  0.65839488590E+00  0.90007860444E+02  0.90000123402E+02 0.  0.
        -12    1    1    2    0    0  0.77717384606E+00 -0.59602546788E+00 -0.65839488590E+00  0.11801395558E+01  0.00000000000E+00 0.  1.
         11    1    3    3    0    0  0.38904163064E+02 -0.18392354095E+01  0.77488121567E+01  0.39710965497E+02  0.51100000000E-03 0. -1.
        -11    1    3    3    0    0 -0.47793025357E+01  0.15793107600E+01  0.10172413297E+02  0.11349623242E+02  0.51100000000E-03 0.  1.
        -12    1    3    3    0    0 -0.34902034374E+02  0.85595011732E+00 -0.17262830567E+02  0.38947271705E+02  0.00000000000E+00 0.  1.
</event>
<event>
 7    1  0.2641103E-015  0.9000758E+02  0.7816164E-02  0.1186339E+00
        -11   -1    0    0    0    0  0.00000000000E+00  0.00000000000E+00  0.45593999997E+02  0.45594000000E+02  0.51100000000E-03 0.  1.
         11   -1    0    0    0    0 -0.00000000000E+00 -0.00000000000E+00 -0.45593999997E+02  0.45594000000E+02  0.51100000000E-03 0. -1.
    9900012    2    1    2    0    0  0.73710359698E+00 -0.21381742883E+00 -0.89686163488E+00  0.90007576179E+02  0.89999835384E+02 0.  0.
        -12    1    1    2    0    0 -0.73710359698E+00  0.21381742883E+00  0.89686163488E+00  0.11804238212E+01  0.00000000000E+00 0.  1.
         11    1    3    3    0    0  0.16277969380E+02 -0.20664016403E+01  0.88366158966E+01  0.18636740156E+02  0.51100000000E-03 0. -1.
        -11    1    3    3    0    0  0.25665534861E+02  0.95983612174E+01  0.29660639258E+01  0.27561671815E+02  0.51100000000E-03 0.  1.
         12    1    3    3    0    0 -0.41206400643E+02 -0.77457770059E+01 -0.12699541457E+02  0.43809164208E+02  0.00000000000E+00 0. -1.
</event>
<event>
 7    1  0.2641103E-015  0.9000770E+02  0.7816164E-02  0.1186339E+00
        -11   -1    0    0    0    0  0.00000000000E+00  0.00000000000E+00  0.45593999997E+02  0.45594000000E+02  0.51100000000E-03 0. -1.
         11   -1    0    0    0    0 -0.00000000000E+00 -0.00000000000E+00 -0.45593999997E+02  0.45594000000E+02  0.51100000000E-03 0.  1.
    9900012    2    1    2    0    0  0.16710616732E+00 -0.11569102363E+01 -0.16350080609E+00  0.90007704156E+02  0.89999965051E+02 0.  0.
        -12    1    1    2    0    0 -0.16710616732E+00  0.11569102363E+01  0.16350080609E+00  0.11802958441E+01  0.00000000000E+00 0.  1.
         11    1    3    3    0    0 -0.12274459507E+02 -0.63518339496E+00 -0.81079009743E+01  0.14724261360E+02  0.51100000000E-03 0. -1.
        -11    1    3    3    0    0 -0.59663983877E+01 -0.21683162548E+00 -0.31337554450E+02  0.31901210711E+02  0.51100000000E-03 0.  1.
         12    1    3    3    0    0  0.18407964062E+02 -0.30489521582E+00  0.39281954618E+02  0.43382232084E+02  0.00000000000E+00 0. -1.
</event>
<event>
 7    1  0.2641103E-015  0.9000761E+02  0.7816164E-02  0.1186339E+00
        -11   -1    0    0    0    0  0.00000000000E+00  0.00000000000E+00  0.45593999997E+02  0.45594000000E+02  0.51100000000E-03 0.  1.
         11   -1    0    0    0    0 -0.00000000000E+00 -0.00000000000E+00 -0.45593999997E+02  0.45594000000E+02  0.51100000000E-03 0. -1.
    9900012    2    1    2    0    0 -0.81620239372E+00 -0.76988569014E+00  0.36663226147E+00  0.90007606193E+02  0.89999865795E+02 0.  0.
        -12    1    1    2    0    0  0.81620239372E+00  0.76988569014E+00 -0.36663226147E+00  0.11803938066E+01  0.00000000000E+00 0.  1.
         11    1    3    3    0    0 -0.33282763906E+02  0.24130707581E+02  0.16538490713E+02  0.44312019779E+02  0.51100000000E-03 0. -1.
        -11    1    3    3    0    0  0.42357335183E+01 -0.64758664527E+01 -0.77424612950E+01  0.10946414569E+02  0.51100000000E-03 0.  1.
        -12    1    3    3    0    0  0.28230827994E+02 -0.18424726818E+02 -0.84293971563E+01  0.34749171846E+02  0.00000000000E+00 0.  1.
</event>
<event>
 7    1  0.2641103E-015  0.9000778E+02  0.7816164E-02  0.1186339E+00
        -11   -1    0    0    0    0  0.00000000000E+00  0.00000000000E+00  0.45593999997E+02  0.45594000000E+02  0.51100000000E-03 0.  1.
         11   -1    0    0    0    0 -0.00000000000E+00 -0.00000000000E+00 -0.45593999997E+02  0.45594000000E+02  0.51100000000E-03 0. -1.
    9900012    2    1    2    0    0  0.50602151756E+00  0.34209672856E+00 -0.10098660974E+01  0.90007780748E+02  0.90000042654E+02 0.  0.
        -12    1    1    2    0    0 -0.50602151756E+00 -0.34209672856E+00  0.10098660974E+01  0.11802192519E+01  0.00000000000E+00 0.  1.
         11    1    3    3    0    0 -0.55337190728E+00 -0.12404881243E+02 -0.20843620009E+02  0.24261982493E+02  0.51100000000E-03 0. -1.
        -11    1    3    3    0    0 -0.21884374950E+02 -0.10123290323E+02  0.22838227419E+02  0.33211315930E+02  0.51100000000E-03 0.  1.
         12    1    3    3    0    0  0.22943768375E+02  0.22870268294E+02 -0.30044735069E+01  0.32534482325E+02  0.00000000000E+00 0. -1.
</event>
<event>
 7    1  0.2641103E-015  0.9000775E+02  0.7816164E-02  0.1186339E+00
        -11   -1    0    0    0    0  0.00000000000E+00  0.00000000000E+00  0.45593999997E+02  0.45594000000E+02  0.51100000000E-03 0. -1.
         11   -1    0    0    0    0 -0.00000000000E+00 -0.00000000000E+00 -0.45593999997E+02  0.45594000000E+02  0.51100000000E-03 0.  1.
    9900012    2    1    2    0    0 -0.63751159620E+00  0.62288861019E+00  0.77368386415E+00  0.90007746647E+02  0.90000008103E+02 0.  0.
        -12    1    1    2    0    0  0.63751159620E+00 -0.62288861019E+00 -0.77368386415E+00  0.11802533532E+01  0.00000000000E+00 0.  1.
         11    1    3    3    0    0 -0.83839984260E+00  0.14143330758E+01  0.11626448480E+02  0.11742127442E+02  0.51100000000E-03 0. -1.
        -11    1    3    3    0    0 -0.36041054169E+02  0.60539869316E+01 -0.17934095180E+02  0.40709214111E+02  0.51100000000E-03 0.  1.
         12    1    3    3    0    0  0.36241942415E+02 -0.68454313971E+01  0.70813305637E+01  0.37556405094E+02  0.00000000000E+00 0. -1.
</event>
<event>
 7    1  0.2641103E-015  0.9000764E+02  0.7816164E-02  0.1186339E+00
        -11   -1    0    0    0    0  0.00000000000E+00  0.00000000000E+00  0.45593999997E+02  0.45594000000E+02  0.51100000000E-03 0. -1.
         11   -1    0    0    0    0 -0.00000000000E+00 -0.00000000000E+00 -0.45593999997E+02  0.45594000000E+02  0.51100000000E-03 0.  1.
    9900012    2    1    2    0    0 -0.45108491662E+00  0.31895557768E+00  0.10430944366E+01  0.90007637231E+02  0.89999897242E+02 0.  0.
        -12    1    1    2    0    0  0.45108491662E+00 -0.31895557768E+00 -0.10430944366E+01  0.11803627689E+01  0.00000000000E+00 0.  1.
         11    1    3    3    0    0  0.24425350089E+02  0.15286228679E+02  0.29381932011E+02  0.41152939666E+02  0.51100000000E-03 0. -1.
        -11    1    3    3    0    0 -0.58867159111E+01 -0.34989520203E+01  0.52307837505E+01  0.86172610708E+01  0.51100000000E-03 0.  1.
        -12    1    3    3    0    0 -0.18989719095E+02 -0.11468321081E+02 -0.33569621325E+02  0.40237436494E+02  0.00000000000E+00 0.  1.
</event>
<event>
 7    1  0.2641103E-015  0.9000782E+02  0.7816164E-02  0.1186339E+00
        -11   -1    0    0    0    0  0.00000000000E+00  0.00000000000E+00  0.45593999997E+02  0.45594000000E+02  0.51100000000E-03 0.  1.
         11   -1    0    0    0    0 -0.00000000000E+00 -0.00000000000E+00 -0.45593999997E+02  0.45594000000E+02  0.51100000000E-03 0. -1.
    9900012    2    1    2    0    0 -0.11139416599E+01  0.27894460058E+00 -0.27231109173E+00  0.90007818047E+02  0.90000080445E+02 0.  0.
        -12    1    1    2    0    0  0.11139416599E+01 -0.27894460058E+00  0.27231109173E+00  0.11801819532E+01  0.00000000000E+00 0.  1.
         11    1    3    3    0    0 -0.68692093368E+01  0.11614829425E+01  0.60995944725E+01  0.92595967800E+01  0.51100000000E-03 0. -1.
        -11    1    3    3    0    0  0.43756416935E+01  0.31635610598E+02  0.20998856252E+02  0.38221853203E+02  0.51100000000E-03 0.  1.
         12    1    3    3    0    0  0.13796259834E+01 -0.32518148940E+02 -0.27370761816E+02  0.42526368064E+02  0.00000000000E+00 0. -1.
</event>
<event>
 7    1  0.2641103E-015  0.9000775E+02  0.7816164E-02  0.1186339E+00
        -11   -1    0    0    0    0  0.00000000000E+00  0.00000000000E+00  0.45593999997E+02  0.45594000000E+02  0.51100000000E-03 0. -1.
         11   -1    0    0    0    0 -0.00000000000E+00 -0.00000000000E+00 -0.45593999997E+02  0.45594000000E+02  0.51100000000E-03 0.  1.
    9900012    2    1    2    0    0 -0.96419313250E+00  0.64980356478E+00 -0.20268511800E+00  0.90007748194E+02  0.90000009670E+02 0.  0.
        -12    1    1    2    0    0  0.96419313250E+00 -0.64980356478E+00  0.20268511800E+00  0.11802518065E+01  0.00000000000E+00 0.  1.
         11    1    3    3    0    0 -0.64233526257E+01 -0.66059007401E+01  0.35922065919E+01  0.98894555968E+01  0.51100000000E-03 0. -1.
        -11    1    3    3    0    0  0.32615298999E+02 -0.12930119183E+02 -0.22280214415E+02  0.41561444459E+02  0.51100000000E-03 0.  1.
         12    1    3    3    0    0 -0.27156139506E+02  0.20185823488E+02  0.18485322706E+02  0.38556848137E+02  0.00000000000E+00 0. -1.
</event>
<event>
 7    1  0.2641103E-015  0.9000802E+02  0.7816164E-02  0.1186338E+00
        -11   -1    0    0    0    0  0.00000000000E+00  0.00000000000E+00  0.45593999997E+02  0.45594000000E+02  0.51100000000E-03 0.  1.
         11   -1    0    0    0    0 -0.00000000000E+00 -0.00000000000E+00 -0.45593999997E+02  0.45594000000E+02  0.51100000000E-03 0. -1.
    9900012    2    1    2    0    0  0.50961350442E+00 -0.92787566030E+00 -0.52124207701E+00  0.90008020141E+02  0.90000285206E+02 0.  0.
        -12    1    1    2    0    0 -0.50961350442E+00  0.92787566030E+00  0.52124207701E+00  0.11799798590E+01  0.00000000000E+00 0.  1.
         11    1    3    3    0    0 -0.25034397547E+01  0.36040423264E+01  0.83864956614E+01  0.94651804756E+01  0.51100000000E-03 0. -1.
        -11    1    3    3    0    0 -0.12647704691E+02 -0.38075541089E+02  0.61280476839E+01  0.40586503075E+02  0.51100000000E-03 0.  1.
         12    1    3    3    0    0  0.15660757950E+02  0.33543623103E+02 -0.15035785422E+02  0.39956336590E+02  0.00000000000E+00 0. -1.
</event>
<event>
 7    1  0.2641103E-015  0.9000777E+02  0.7816164E-02  0.1186339E+00
        -11   -1    0    0    0    0  0.00000000000E+00  0.00000000000E+00  0.45593999997E+02  0.45594000000E+02  0.51100000000E-03 0.  1.
         11   -1    0    0    0    0 -0.00000000000E+00 -0.00000000000E+00 -0.45593999997E+02  0.45594000000E+02  0.51100000000E-03 0. -1.
    9900012    2    1    2    0    0  0.82372462320E+00  0.64698143198E+00 -0.54391670120E+00  0.90007765868E+02  0.90000027578E+02 0.  0.
        -12    1    1    2    0    0 -0.82372462320E+00 -0.64698143198E+00  0.54391670120E+00  0.11802341319E+01  0.00000000000E+00 0.  1.
         11    1    3    3    0    0  0.72063737513E+01 -0.33456853518E+02 -0.15558979022E+02  0.37594875960E+02  0.51100000000E-03 0. -1.
        -11    1    3    3    0    0  0.26265280972E+00 -0.74061773509E+01  0.57134540590E+01  0.93575641594E+01  0.51100000000E-03 0.  1.
        -12    1    3    3    0    0 -0.66453019378E+01  0.41510012301E+02  0.93016082619E+01  0.43055325749E+02  0.00000000000E+00 0.  1.
</event>
<event>
 7    1  0.2641103E-015  0.9000778E+02  0.7816164E-02  0.1186339E+00
        -11   -1    0    0    0    0  0.00000000000E+00  0.00000000000E+00  0.45593999997E+02  0.45594000000E+02  0.51100000000E-03 0. -1.
         11   -1    0    0    0    0 -0.00000000000E+00 -0.00000000000E+00 -0.45593999997E+02  0.45594000000E+02  0.51100000000E-03 0.  1.
    9900012    2    1    2    0    0 -0.10342875035E+01 -0.56390256466E+00 -0.72010158298E-01  0.90007778747E+02  0.90000040627E+02 0.  0.
        -12    1    1    2    0    0  0.10342875035E+01  0.56390256466E+00  0.72010158298E-01  0.11802212526E+01  0.00000000000E+00 0.  1.
         11    1    3    3    0    0 -0.99179623971E+01 -0.72248969982E+01  0.66317139709E+01  0.13947929782E+02  0.51100000000E-03 0. -1.
        -11    1    3    3    0    0 -0.27415086741E+02 -0.17158808720E+02 -0.33091234601E+01  0.32510951940E+02  0.51100000000E-03 0.  1.
         12    1    3    3    0    0  0.36298761635E+02  0.23819803153E+02 -0.33946006692E+01  0.43548897026E+02  0.00000000000E+00 0. -1.
</event>
<event>
 7    1  0.2641103E-015  0.9000770E+02  0.7816164E-02  0.1186339E+00
        -11   -1    0    0    0    0  0.00000000000E+00  0.00000000000E+00  0.45593999997E+02  0.45594000000E+02  0.51100000000E-03 0.  1.
         11   -1    0    0    0    0 -0.00000000000E+00 -0.00000000000E+00 -0.45593999997E+02  0.45594000000E+02  0.51100000000E-03 0. -1.
    9900012    2    1    2    0    0  0.51178983423E+00 -0.10205764879E+01  0.29931873519E+00  0.90007704737E+02  0.89999965640E+02 0.  0.
        -12    1    1    2    0    0 -0.51178983423E+00  0.10205764879E+01 -0.29931873519E+00  0.11802952628E+01  0.00000000000E+00 0.  1.
         11    1    3    3    0    0 -0.68225115494E+01 -0.18875020109E+00  0.36453144082E+01  0.77376099589E+01  0.51100000000E-03 0. -1.
        -11    1    3    3    0    0 -0.12505435331E+02  0.11203746299E+02  0.34218750356E+02  0.38116042818E+02  0.51100000000E-03 0.  1.
         12    1    3    3    0    0  0.19839736714E+02 -0.12035572585E+02 -0.37564746029E+02  0.44154051961E+02  0.00000000000E+00 0. -1.
</event>
<event>
 7    1  0.2641103E-015  0.9000787E+02  0.7816164E-02  0.1186339E+00
        -11   -1    0    0    0    0  0.00000000000E+00  0.00000000000E+00  0.45593999997E+02  0.45594000000E+02  0.51100000000E-03 0.  1.
         11   -1    0    0    0    0 -0.00000000000E+00 -0.00000000000E+00 -0.45593999997E+02  0.45594000000E+02  0.51100000000E-03 0. -1.
    9900012    2    1    2    0    0  0.11267572195E+01  0.86575812943E-01 -0.34005898577E+00  0.90007865551E+02  0.90000128577E+02 0.  0.
        -12    1    1    2    0    0 -0.11267572195E+01 -0.86575812943E-01  0.34005898577E+00  0.11801344486E+01  0.00000000000E+00 0.  1.
         11    1    3    3    0    0 -0.19713514005E+02  0.24380551046E+02 -0.11637891258E+02  0.33443600537E+02  0.51100000000E-03 0. -1.
        -11    1    3    3    0    0  0.13957361028E+01  0.96745785425E+01 -0.82712720895E+01  0.12804666785E+02  0.51100000000E-03 0.  1.
        -12    1    3    3    0    0  0.19444535121E+02 -0.33968553775E+02  0.19569104361E+02  0.43759598229E+02  0.00000000000E+00 0.  1.
</event>
<event>
 7    1  0.2641103E-015  0.9000770E+02  0.7816164E-02  0.1186339E+00
        -11   -1    0    0    0    0  0.00000000000E+00  0.00000000000E+00  0.45593999997E+02  0.45594000000E+02  0.51100000000E-03 0.  1.
         11   -1    0    0    0    0 -0.00000000000E+00 -0.00000000000E+00 -0.45593999997E+02  0.45594000000E+02  0.51100000000E-03 0. -1.
    9900012    2    1    2    0    0 -0.30503226274E+00  0.10492926609E+00 -0.11353633519E+01  0.90007701405E+02  0.89999962264E+02 0.  0.
        -12    1    1    2    0    0  0.30503226274E+00 -0.10492926609E+00  0.11353633519E+01  0.11802985948E+01  0.00000000000E+00 0.  1.
         11    1    3    3    0    0 -0.16190691439E+01 -0.44614339063E+01  0.85299900278E+01  0.97614808061E+01  0.51100000000E-03 0. -1.
        -11    1    3    3    0    0 -0.15613298674E+02 -0.14351254463E+02  0.27815626786E+02  0.34977745695E+02  0.51100000000E-03 0.  1.
         12    1    3    3    0    0  0.16927335555E+02  0.18917617635E+02 -0.37480980165E+02  0.45268474904E+02  0.00000000000E+00 0. -1.
</event>
<event>
 7    1  0.2641103E-015  0.9000748E+02  0.7816164E-02  0.1186340E+00
        -11   -1    0    0    0    0  0.00000000000E+00  0.00000000000E+00  0.45593999997E+02  0.45594000000E+02  0.51100000000E-03 0.  1.
         11   -1    0    0    0    0 -0.00000000000E+00 -0.00000000000E+00 -0.45593999997E+02  0.45594000000E+02  0.51100000000E-03 0. -1.
    9900012    2    1    2    0    0 -0.39804393810E+00 -0.40387624130E+00 -0.10354093865E+01  0.90007479948E+02  0.89999737883E+02 0.  0.
        -12    1    1    2    0    0  0.39804393810E+00  0.40387624130E+00  0.10354093865E+01  0.11805200518E+01  0.00000000000E+00 0.  1.
         11    1    3    3    0    0 -0.15245621178E+01 -0.42487562069E+01 -0.82421489008E+01  0.93972994909E+01  0.51100000000E-03 0. -1.
        -11    1    3    3    0    0  0.17406815676E+02  0.22534743115E+02 -0.26414577906E+02  0.38839951152E+02  0.51100000000E-03 0.  1.
         12    1    3    3    0    0 -0.16280297496E+02 -0.18689863150E+02  0.33621317421E+02  0.41770229305E+02  0.00000000000E+00 0. -1.
</event>
<event>
 7    1  0.2641103E-015  0.9000816E+02  0.7816164E-02  0.1186338E+00
        -11   -1    0    0    0    0  0.00000000000E+00  0.00000000000E+00  0.45593999997E+02  0.45594000000E+02  0.51100000000E-03 0. -1.
         11   -1    0    0    0    0 -0.00000000000E+00 -0.00000000000E+00 -0.45593999997E+02  0.45594000000E+02  0.51100000000E-03 0.  1.
    9900012    2    1    2    0    0 -0.74259920802E+00 -0.79181328702E+00 -0.46217239602E+00  0.90008158829E+02  0.90000425724E+02 0.  0.
        -12    1    1    2    0    0  0.74259920802E+00  0.79181328702E+00  0.46217239602E+00  0.11798411710E+01  0.00000000000E+00 0.  1.
         11    1    3    3    0    0 -0.72852219920E+01 -0.38925040792E+01 -0.26592176076E+01  0.86774124037E+01  0.51100000000E-03 0. -1.
        -11    1    3    3    0    0 -0.27244965597E+02  0.26273602506E+02  0.11019534320E+02  0.39421066398E+02  0.51100000000E-03 0.  1.
         12    1    3    3    0    0  0.33787588381E+02 -0.23172911714E+02 -0.88224891087E+01  0.41909680027E+02  0.00000000000E+00 0. -1.
</event>
<event>
 7    1  0.2641103E-015  0.9000775E+02  0.7816164E-02  0.1186339E+00
        -11   -1    0    0    0    0  0.00000000000E+00  0.00000000000E+00  0.45593999997E+02  0.45594000000E+02  0.51100000000E-03 0. -1.
         11   -1    0    0    0    0 -0.00000000000E+00 -0.00000000000E+00 -0.45593999997E+02  0.45594000000E+02  0.51100000000E-03 0.  1.
    9900012    2    1    2    0    0  0.10070074843E+01  0.52849870868E+00  0.31560945414E+00  0.90007752447E+02  0.90000013979E+02 0.  0.
        -12    1    1    2    0    0 -0.10070074843E+01 -0.52849870868E+00 -0.31560945414E+00  0.11802475529E+01  0.00000000000E+00 0.  1.
         11    1    3    3    0    0 -0.93862643742E+01  0.15061262727E+01 -0.16450451152E-01  0.95063476757E+01  0.51100000000E-03 0. -1.
        -11    1    3    3    0    0 -0.19843854121E+02  0.30514655418E+02 -0.40482182903E+01  0.36623910404E+02  0.51100000000E-03 0.  1.
         12    1    3    3    0    0  0.30237125980E+02 -0.31492282982E+02  0.43802781956E+01  0.43877494368E+02  0.00000000000E+00 0. -1.
</event>
<event>
 7    1  0.2641103E-015  0.9000770E+02  0.7816164E-02  0.1186339E+00
        -11   -1    0    0    0    0  0.00000000000E+00  0.00000000000E+00  0.45593999997E+02  0.45594000000E+02  0.51100000000E-03 0. -1.
         11   -1    0    0    0    0 -0.00000000000E+00 -0.00000000000E+00 -0.45593999997E+02  0.45594000000E+02  0.51100000000E-03 0.  1.
    9900012    2    1    2    0    0 -0.55288135740E+00 -0.55417708765E+00  0.88335597631E+00  0.90007700114E+02  0.89999960956E+02 0.  0.
        -12    1    1    2    0    0  0.55288135740E+00  0.55417708765E+00 -0.88335597631E+00  0.11802998859E+01  0.00000000000E+00 0.  1.
         11    1    3    3    0    0 -0.24372129734E+02 -0.18929933585E+02  0.50005825710E+01  0.31262580182E+02  0.51100000000E-03 0. -1.
        -11    1    3    3    0    0 -0.23431401965E+01  0.45323241162E+01  0.19952539653E+02  0.20594564980E+02  0.51100000000E-03 0.  1.
        -12    1    3    3    0    0  0.26162388573E+02  0.13843432382E+02 -0.24069766248E+02  0.38150554952E+02  0.00000000000E+00 0.  1.
</event>
<event>
 7    1  0.2641103E-015  0.9000772E+02  0.7816164E-02  0.1186339E+00
        -11   -1    0    0    0    0  0.00000000000E+00  0.00000000000E+00  0.45593999997E+02  0.45594000000E+02  0.51100000000E-03 0.  1.
         11   -1    0    0    0    0 -0.00000000000E+00 -0.00000000000E+00 -0.45593999997E+02  0.45594000000E+02  0.51100000000E-03 0. -1.
    9900012    2    1    2    0    0 -0.17704346092E+00 -0.26244838658E+00 -0.11370250902E+01  0.90007724779E+02  0.89999985946E+02 0.  0.
        -12    1    1    2    0    0  0.17704346092E+00  0.26244838658E+00  0.11370250902E+01  0.11802752215E+01  0.00000000000E+00 0.  1.
         11    1    3    3    0    0 -0.98710267281E+01  0.52870513386E+01  0.42021787334E+01  0.11960283730E+02  0.51100000000E-03 0. -1.
        -11    1    3    3    0    0 -0.13169452858E+02 -0.22575943819E+02  0.25175150455E+02  0.36289060729E+02  0.51100000000E-03 0.  1.
         12    1    3    3    0    0  0.22863436125E+02  0.17026444094E+02 -0.30514354278E+02  0.41758380320E+02  0.00000000000E+00 0. -1.
</event>
<event>
 7    1  0.2641103E-015  0.9000745E+02  0.7816164E-02  0.1186340E+00
        -11   -1    0    0    0    0  0.00000000000E+00  0.00000000000E+00  0.45593999997E+02  0.45594000000E+02  0.51100000000E-03 0. -1.
         11   -1    0    0    0    0 -0.00000000000E+00 -0.00000000000E+00 -0.45593999997E+02  0.45594000000E+02  0.51100000000E-03 0.  1.
    9900012    2    1    2    0    0  0.35076146437E+00 -0.10542922879E+01  0.39891634640E+00  0.90007449245E+02  0.89999706775E+02 0.  0.
        -12    1    1    2    0    0 -0.35076146437E+00  0.10542922879E+01 -0.39891634640E+00  0.11805507548E+01  0.00000000000E+00 0.  1.
         11    1    3    3    0    0  0.68879331454E+00 -0.85509113046E+01 -0.43047559811E+01  0.95980958886E+01  0.51100000000E-03 0. -1.
        -11    1    3    3    0    0  0.11075621000E+02 -0.34741529097E+02  0.66597420241E+00  0.36470354351E+02  0.51100000000E-03 0.  1.
         12    1    3    3    0    0 -0.11413652851E+02  0.42238148114E+02  0.40376981251E+01  0.43938999006E+02  0.00000000000E+00 0. -1.
</event>
<event>
 7    1  0.2641103E-015  0.9000786E+02  0.7816164E-02  0.1186339E+00
        -11   -1    0    0    0    0  0.00000000000E+00  0.00000000000E+00  0.45593999997E+02  0.45594000000E+02  0.51100000000E-03 0. -1.
         11   -1    0    0    0    0 -0.00000000000E+00 -0.00000000000E+00 -0.45593999997E+02  0.45594000000E+02  0.51100000000E-03 0.  1.
    9900012    2    1    2    0    0  0.11300713973E+01  0.34000569864E+00 -0.81508774606E-02  0.90007859468E+02  0.90000122413E+02 0.  0.
        -12    1    1    2    0    0 -0.11300713973E+01 -0.34000569864E+00  0.81508774606E-02  0.11801405318E+01  0.00000000000E+00 0.  1.
         11    1    3    3    0    0  0.38217155705E+02  0.20281014387E+02  0.12910734929E+02  0.45150388829E+02  0.51100000000E-03 0. -1.
        -11    1    3    3    0    0 -0.12214213361E+02 -0.72119122069E+01 -0.27031012457E+00  0.14187027649E+02  0.51100000000E-03 0.  1.
        -12    1    3    3    0    0 -0.24872870947E+02 -0.12729096481E+02 -0.12648575682E+02  0.30670442990E+02  0.00000000000E+00 0.  1.
</event>
<event>
 7    1  0.2641103E-015  0.9000777E+02  0.7816164E-02  0.1186339E+00
        -11   -1    0    0    0    0  0.00000000000E+00  0.00000000000E+00  0.45593999997E+02  0.45594000000E+02  0.51100000000E-03 0. -1.
         11   -1    0    0    0    0 -0.00000000000E+00 -0.00000000000E+00 -0.45593999997E+02  0.45594000000E+02  0.51100000000E-03 0.  1.
    9900012    2    1    2    0    0  0.69595734730E+00 -0.23975428660E-01  0.95290213475E+00  0.90007765308E+02  0.90000027010E+02 0.  0.
        -12    1    1    2    0    0 -0.69595734730E+00  0.23975428660E-01 -0.95290213475E+00  0.11802346923E+01  0.00000000000E+00 0.  1.
         11    1    3    3    0    0  0.21496679443E+01 -0.84384286198E+01 -0.24224899948E+01  0.90386175867E+01  0.51100000000E-03 0. -1.
        -11    1    3    3    0    0 -0.35352181033E+02 -0.15939973804E+02 -0.22850201118E+01  0.38846889011E+02  0.51100000000E-03 0.  1.
         12    1    3    3    0    0  0.33898470436E+02  0.24354426995E+02  0.56604122414E+01  0.42122258710E+02  0.00000000000E+00 0. -1.
</event>
<event>
 7    1  0.2735035E-015  0.9000770E+02  0.7816164E-02  0.1186339E+00
        -11   -1    0    0    0    0  0.00000000000E+00  0.00000000000E+00  0.45593999997E+02  0.45594000000E+02  0.51100000000E-03 0. -1.
         11   -1    0    0    0    0 -0.00000000000E+00 -0.00000000000E+00 -0.45593999997E+02  0.45594000000E+02  0.51100000000E-03 0.  1.
    9900012    2    1    2    0    0  0.46841519429E-01  0.12446345789E+00  0.11727870186E+01  0.90007697212E+02  0.89999958015E+02 0.  0.
        -12    1    1    2    0    0 -0.46841519429E-01 -0.12446345789E+00 -0.11727870186E+01  0.11803027879E+01  0.00000000000E+00 0.  1.
         11    1    3    3    0    0  0.27326165364E+01 -0.95369109887E+01 -0.78567368418E-01  0.99209897406E+01  0.51100000000E-03 0. -1.
        -11    1    3    3    0    0 -0.18245539115E+02 -0.28973113848E+02 -0.12153731414E+02  0.36332550299E+02  0.51100000000E-03 0.  1.
         12    1    3    3    0    0  0.15559764098E+02  0.38634488295E+02  0.13405085801E+02  0.43754157173E+02  0.00000000000E+00 0. -1.
</event>
<event>
 7    1  0.2641103E-015  0.9000775E+02  0.7816164E-02  0.1186339E+00
        -11   -1    0    0    0    0  0.00000000000E+00  0.00000000000E+00  0.45593999997E+02  0.45594000000E+02  0.51100000000E-03 0. -1.
         11   -1    0    0    0    0 -0.00000000000E+00 -0.00000000000E+00 -0.45593999997E+02  0.45594000000E+02  0.51100000000E-03 0.  1.
    9900012    2    1    2    0    0 -0.38241879535E-01 -0.11542183495E+01  0.24355109343E+00  0.90007745970E+02  0.90000007417E+02 0.  0.
        -12    1    1    2    0    0  0.38241879535E-01  0.11542183495E+01 -0.24355109343E+00  0.11802540298E+01  0.00000000000E+00 0.  1.
         11    1    3    3    0    0  0.26856958186E+02 -0.28036024141E+02 -0.19684756195E+02  0.43529351929E+02  0.51100000000E-03 0. -1.
        -11    1    3    3    0    0  0.53077791274E+00  0.74120063605E+01  0.94090841661E-01  0.74315823906E+01  0.51100000000E-03 0.  1.
        -12    1    3    3    0    0 -0.27425977978E+02  0.19469799431E+02  0.19834216447E+02  0.39046811650E+02  0.00000000000E+00 0.  1.
</event>
<event>
 7    1  0.2641103E-015  0.9000769E+02  0.7816164E-02  0.1186339E+00
        -11   -1    0    0    0    0  0.00000000000E+00  0.00000000000E+00  0.45593999997E+02  0.45594000000E+02  0.51100000000E-03 0. -1.
         11   -1    0    0    0    0 -0.00000000000E+00 -0.00000000000E+00 -0.45593999997E+02  0.45594000000E+02  0.51100000000E-03 0.  1.
    9900012    2    1    2    0    0  0.26302802515E+00 -0.10238267688E+00  0.11460686752E+01  0.90007686752E+02  0.89999947417E+02 0.  0.
        -12    1    1    2    0    0 -0.26302802515E+00  0.10238267688E+00 -0.11460686752E+01  0.11803132477E+01  0.00000000000E+00 0.  1.
         11    1    3    3    0    0 -0.24394231905E+02 -0.30635523574E+02 -0.15666619380E+02  0.42178866959E+02  0.51100000000E-03 0. -1.
        -11    1    3    3    0    0 -0.34036357064E+01  0.36321653881E+01  0.53364187748E+01  0.72975836432E+01  0.51100000000E-03 0.  1.
        -12    1    3    3    0    0  0.28060895637E+02  0.26900975509E+02  0.11476269280E+02  0.40531236150E+02  0.00000000000E+00 0.  1.
</event>
<event>
 7    1  0.2641103E-015  0.9000798E+02  0.7816164E-02  0.1186339E+00
        -11   -1    0    0    0    0  0.00000000000E+00  0.00000000000E+00  0.45593999997E+02  0.45594000000E+02  0.51100000000E-03 0. -1.
         11   -1    0    0    0    0 -0.00000000000E+00 -0.00000000000E+00 -0.45593999997E+02  0.45594000000E+02  0.51100000000E-03 0.  1.
    9900012    2    1    2    0    0 -0.19906984327E+00 -0.11597701046E+01 -0.88009904765E-01  0.90007982525E+02  0.90000247094E+02 0.  0.
        -12    1    1    2    0    0  0.19906984327E+00  0.11597701046E+01  0.88009904765E-01  0.11800174751E+01  0.00000000000E+00 0.  1.
         11    1    3    3    0    0  0.44797595508E+01 -0.30225616368E+02  0.15461602143E+02  0.34244959798E+02  0.51100000000E-03 0. -1.
        -11    1    3    3    0    0  0.18975834291E+01 -0.68412543841E+01  0.92286428014E+01  0.11643514617E+02  0.51100000000E-03 0.  1.
        -12    1    3    3    0    0 -0.65764128232E+01  0.35907100648E+02 -0.24778254849E+02  0.44119508110E+02  0.00000000000E+00 0.  1.
</event>
<event>
 7    1  0.2641103E-015  0.9000772E+02  0.7816164E-02  0.1186339E+00
        -11   -1    0    0    0    0  0.00000000000E+00  0.00000000000E+00  0.45593999997E+02  0.45594000000E+02  0.51100000000E-03 0.  1.
         11   -1    0    0    0    0 -0.00000000000E+00 -0.00000000000E+00 -0.45593999997E+02  0.45594000000E+02  0.51100000000E-03 0. -1.
    9900012    2    1    2    0    0  0.48998207866E+00 -0.89768733612E+00 -0.58918051207E+00  0.90007720937E+02  0.89999982053E+02 0.  0.
        -12    1    1    2    0    0 -0.48998207866E+00  0.89768733612E+00  0.58918051207E+00  0.11802790630E+01  0.00000000000E+00 0.  1.
         11    1    3    3    0    0  0.32948942275E+01  0.10087035748E+02 -0.36862887665E+02  0.38359837140E+02  0.51100000000E-03 0. -1.
        -11    1    3    3    0    0  0.67331073437E+01  0.68925671271E+01 -0.51381477751E+00  0.96491565430E+01  0.51100000000E-03 0.  1.
        -12    1    3    3    0    0 -0.95380194925E+01 -0.17877290211E+02  0.36787521931E+02  0.41998727254E+02  0.00000000000E+00 0.  1.
</event>
<event>
 7    1  0.2641103E-015  0.9000773E+02  0.7816164E-02  0.1186339E+00
        -11   -1    0    0    0    0  0.00000000000E+00  0.00000000000E+00  0.45593999997E+02  0.45594000000E+02  0.51100000000E-03 0. -1.
         11   -1    0    0    0    0 -0.00000000000E+00 -0.00000000000E+00 -0.45593999997E+02  0.45594000000E+02  0.51100000000E-03 0.  1.
    9900012    2    1    2    0    0  0.71607331561E+00 -0.87911396218E+00  0.32778555789E+00  0.90007726420E+02  0.89999987609E+02 0.  0.
        -12    1    1    2    0    0 -0.71607331561E+00  0.87911396218E+00 -0.32778555789E+00  0.11802735801E+01  0.00000000000E+00 0.  1.
         11    1    3    3    0    0  0.35789716125E+02 -0.10391450698E+02  0.17801564018E+02  0.41301110271E+02  0.51100000000E-03 0. -1.
        -11    1    3    3    0    0  0.15567549566E+01  0.49701985316E+01 -0.96645757521E+01  0.10978633074E+02  0.51100000000E-03 0.  1.
        -12    1    3    3    0    0 -0.36630397766E+02  0.45421382046E+01 -0.78092027080E+01  0.37727983075E+02  0.00000000000E+00 0.  1.
</event>
<event>
 7    1  0.2641103E-015  0.9000750E+02  0.7816164E-02  0.1186340E+00
        -11   -1    0    0    0    0  0.00000000000E+00  0.00000000000E+00  0.45593999997E+02  0.45594000000E+02  0.51100000000E-03 0.  1.
         11   -1    0    0    0    0 -0.00000000000E+00 -0.00000000000E+00 -0.45593999997E+02  0.45594000000E+02  0.51100000000E-03 0. -1.
    9900012    2    1    2    0    0  0.11284205342E+01  0.27784251903E+00 -0.20746854371E+00  0.90007503255E+02  0.89999761498E+02 0.  0.
        -12    1    1    2    0    0 -0.11284205342E+01 -0.27784251903E+00  0.20746854371E+00  0.11804967446E+01  0.00000000000E+00 0.  1.
         11    1    3    3    0    0 -0.35603757534E+02  0.14245043367E+02 -0.11347108010E+02  0.39991319952E+02  0.51100000000E-03 0. -1.
        -11    1    3    3    0    0  0.43632261691E-01  0.46245967692E+01  0.73866126054E+01  0.87149782040E+01  0.51100000000E-03 0.  1.
        -12    1    3    3    0    0  0.36688545807E+02 -0.18591797617E+02  0.37530268610E+01  0.41301205099E+02  0.00000000000E+00 0.  1.
</event>
<event>
 7    1  0.2641103E-015  0.9000778E+02  0.7816164E-02  0.1186339E+00
        -11   -1    0    0    0    0  0.00000000000E+00  0.00000000000E+00  0.45593999997E+02  0.45594000000E+02  0.51100000000E-03 0.  1.
         11   -1    0    0    0    0 -0.00000000000E+00 -0.00000000000E+00 -0.45593999997E+02  0.45594000000E+02  0.51100000000E-03 0. -1.
    9900012    2    1    2    0    0 -0.36427579882E-02  0.96801344076E+00 -0.67517451653E+00  0.90007778021E+02  0.90000039891E+02 0.  0.
        -12    1    1    2    0    0  0.36427579882E-02 -0.96801344076E+00  0.67517451653E+00  0.11802219787E+01  0.00000000000E+00 0.  1.
         11    1    3    3    0    0 -0.30490042574E+02  0.10537957152E+02 -0.28108867100E+02  0.42787844617E+02  0.51100000000E-03 0. -1.
        -11    1    3    3    0    0  0.94189977584E+01 -0.11748813640E+01 -0.23561231332E+01  0.97800399524E+01  0.51100000000E-03 0.  1.
        -12    1    3    3    0    0  0.21067402058E+02 -0.83950623469E+01  0.29789815716E+02  0.37439893452E+02  0.00000000000E+00 0.  1.
</event>
<event>
 7    1  0.2641103E-015  0.9000776E+02  0.7816164E-02  0.1186339E+00
        -11   -1    0    0    0    0  0.00000000000E+00  0.00000000000E+00  0.45593999997E+02  0.45594000000E+02  0.51100000000E-03 0. -1.
         11   -1    0    0    0    0 -0.00000000000E+00 -0.00000000000E+00 -0.45593999997E+02  0.45594000000E+02  0.51100000000E-03 0.  1.
    9900012    2    1    2    0    0 -0.59542700367E+00  0.98545706557E+00 -0.25942635592E+00  0.90007762321E+02  0.90000023984E+02 0.  0.
        -12    1    1    2    0    0  0.59542700367E+00 -0.98545706557E+00  0.25942635592E+00  0.11802376790E+01  0.00000000000E+00 0.  1.
         11    1    3    3    0    0  0.20522928034E+02  0.42372648727E+01  0.28180187331E+02  0.35117914900E+02  0.51100000000E-03 0. -1.
        -11    1    3    3    0    0  0.79194052726E+01  0.23248168490E+01  0.54681775382E+01  0.99006423581E+01  0.51100000000E-03 0.  1.
        -12    1    3    3    0    0 -0.29037760310E+02 -0.55766246561E+01 -0.33907791225E+02  0.44989205062E+02  0.00000000000E+00 0.  1.
</event>
<event>
 7    1  0.2641103E-015  0.9000777E+02  0.7816164E-02  0.1186339E+00
        -11   -1    0    0    0    0  0.00000000000E+00  0.00000000000E+00  0.45593999997E+02  0.45594000000E+02  0.51100000000E-03 0.  1.
         11   -1    0    0    0    0 -0.00000000000E+00 -0.00000000000E+00 -0.45593999997E+02  0.45594000000E+02  0.51100000000E-03 0. -1.
    9900012    2    1    2    0    0  0.52183972089E+00 -0.10478836076E+01 -0.15025686713E+00  0.90007765330E+02  0.90000027033E+02 0.  0.
        -12    1    1    2    0    0 -0.52183972089E+00  0.10478836076E+01  0.15025686713E+00  0.11802346697E+01  0.00000000000E+00 0.  1.
         11    1    3    3    0    0 -0.12856779231E+02 -0.22834601911E+01  0.80916580959E+01  0.15361832366E+02  0.51100000000E-03 0. -1.
        -11    1    3    3    0    0 -0.26917399665E+01  0.34930991754E+02 -0.12216707621E+02  0.37103471459E+02  0.51100000000E-03 0.  1.
         12    1    3    3    0    0  0.16070358918E+02 -0.33695415170E+02  0.39747926576E+01  0.37542461506E+02  0.00000000000E+00 0. -1.
</event>
<event>
 7    1  0.2641103E-015  0.9000779E+02  0.7816164E-02  0.1186339E+00
        -11   -1    0    0    0    0  0.00000000000E+00  0.00000000000E+00  0.45593999997E+02  0.45594000000E+02  0.51100000000E-03 0. -1.
         11   -1    0    0    0    0 -0.00000000000E+00 -0.00000000000E+00 -0.45593999997E+02  0.45594000000E+02  0.51100000000E-03 0.  1.
    9900012    2    1    2    0    0 -0.11250873114E+01 -0.28640220213E+00  0.21226683185E+00  0.90007786084E+02  0.90000048060E+02 0.  0.
        -12    1    1    2    0    0  0.11250873114E+01  0.28640220213E+00 -0.21226683185E+00  0.11802139160E+01  0.00000000000E+00 0.  1.
         11    1    3    3    0    0  0.26716867118E+01  0.15654716815E+02  0.36201432828E+02  0.39531655764E+02  0.51100000000E-03 0. -1.
        -11    1    3    3    0    0 -0.59162579609E+01 -0.13117414331E+01  0.43856068696E+01  0.74803958267E+01  0.51100000000E-03 0.  1.
        -12    1    3    3    0    0  0.21194839377E+01 -0.14629377584E+02 -0.40374772865E+02  0.42995734493E+02  0.00000000000E+00 0.  1.
</event>
<event>
 7    1  0.2641103E-015  0.9000767E+02  0.7816164E-02  0.1186339E+00
        -11   -1    0    0    0    0  0.00000000000E+00  0.00000000000E+00  0.45593999997E+02  0.45594000000E+02  0.51100000000E-03 0.  1.
         11   -1    0    0    0    0 -0.00000000000E+00 -0.00000000000E+00 -0.45593999997E+02  0.45594000000E+02  0.51100000000E-03 0. -1.
    9900012    2    1    2    0    0  0.17090616941E+00  0.57488231762E+00 -0.10166022945E+01  0.90007670036E+02  0.89999930481E+02 0.  0.
        -12    1    1    2    0    0 -0.17090616941E+00 -0.57488231762E+00  0.10166022945E+01  0.11803299637E+01  0.00000000000E+00 0.  1.
         11    1    3    3    0    0 -0.10163637401E+02  0.13089600407E+02 -0.14509931558E+01  0.16635580707E+02  0.51100000000E-03 0. -1.
        -11    1    3    3    0    0  0.32742081885E+02  0.27470511688E+01 -0.20841236433E+02  0.38909476385E+02  0.51100000000E-03 0.  1.
         12    1    3    3    0    0 -0.22407538314E+02 -0.15261769258E+02  0.21275627294E+02  0.34462612944E+02  0.00000000000E+00 0. -1.
</event>
<event>
 7    1  0.2641103E-015  0.9000775E+02  0.7816164E-02  0.1186339E+00
        -11   -1    0    0    0    0  0.00000000000E+00  0.00000000000E+00  0.45593999997E+02  0.45594000000E+02  0.51100000000E-03 0. -1.
         11   -1    0    0    0    0 -0.00000000000E+00 -0.00000000000E+00 -0.45593999997E+02  0.45594000000E+02  0.51100000000E-03 0.  1.
    9900012    2    1    2    0    0 -0.80493258846E+00 -0.79999719857E+00  0.32414786358E+00  0.90007752642E+02  0.90000014176E+02 0.  0.
        -12    1    1    2    0    0  0.80493258846E+00  0.79999719857E+00 -0.32414786358E+00  0.11802473585E+01  0.00000000000E+00 0.  1.
         11    1    3    3    0    0 -0.24582952493E+02  0.98279488817E+01 -0.23695969752E+02  0.35530397059E+02  0.51100000000E-03 0. -1.
        -11    1    3    3    0    0 -0.44127376192E+01  0.55476606642E+01 -0.67007466229E+01  0.97544245195E+01  0.51100000000E-03 0.  1.
        -12    1    3    3    0    0  0.28190757523E+02 -0.16175606744E+02  0.30720864238E+02  0.44722931063E+02  0.00000000000E+00 0.  1.
</event>
<event>
 7    1  0.2641103E-015  0.9000767E+02  0.7816164E-02  0.1186339E+00
        -11   -1    0    0    0    0  0.00000000000E+00  0.00000000000E+00  0.45593999997E+02  0.45594000000E+02  0.51100000000E-03 0.  1.
         11   -1    0    0    0    0 -0.00000000000E+00 -0.00000000000E+00 -0.45593999997E+02  0.45594000000E+02  0.51100000000E-03 0. -1.
    9900012    2    1    2    0    0 -0.45672608816E+00 -0.27233477303E+00 -0.10537576394E+01  0.90007673727E+02  0.89999934220E+02 0.  0.
        -12    1    1    2    0    0  0.45672608816E+00  0.27233477303E+00  0.10537576394E+01  0.11803262730E+01  0.00000000000E+00 0.  1.
         11    1    3    3    0    0 -0.92322533876E+01  0.39117350534E+01  0.68612917802E+00  0.10050221254E+02  0.51100000000E-03 0. -1.
        -11    1    3    3    0    0 -0.11343027197E+02  0.31767744997E+02  0.13073638125E+02  0.36176980281E+02  0.51100000000E-03 0.  1.
         12    1    3    3    0    0  0.20118554497E+02 -0.35951814823E+02 -0.14813524943E+02  0.43780472192E+02  0.00000000000E+00 0. -1.
</event>
<event>
 7    1  0.2641103E-015  0.9000777E+02  0.7816164E-02  0.1186339E+00
        -11   -1    0    0    0    0  0.00000000000E+00  0.00000000000E+00  0.45593999997E+02  0.45594000000E+02  0.51100000000E-03 0.  1.
         11   -1    0    0    0    0 -0.00000000000E+00 -0.00000000000E+00 -0.45593999997E+02  0.45594000000E+02  0.51100000000E-03 0. -1.
    9900012    2    1    2    0    0 -0.53535405139E+00  0.44085808359E-01 -0.10508976878E+01  0.90007773975E+02  0.90000035792E+02 0.  0.
        -12    1    1    2    0    0  0.53535405139E+00 -0.44085808359E-01  0.10508976878E+01  0.11802260246E+01  0.00000000000E+00 0.  1.
         11    1    3    3    0    0 -0.74956779175E+01 -0.23174396427E+01  0.23982824950E+00  0.78494096461E+01  0.51100000000E-03 0. -1.
        -11    1    3    3    0    0 -0.29176984070E+02 -0.23227686735E+02  0.42416176548E+01  0.37534159789E+02  0.51100000000E-03 0.  1.
         12    1    3    3    0    0  0.36137307936E+02  0.25589212186E+02 -0.55323435921E+01  0.44624204540E+02  0.00000000000E+00 0. -1.
</event>
<event>
 7    1  0.2641103E-015  0.9000774E+02  0.7816164E-02  0.1186339E+00
        -11   -1    0    0    0    0  0.00000000000E+00  0.00000000000E+00  0.45593999997E+02  0.45594000000E+02  0.51100000000E-03 0. -1.
         11   -1    0    0    0    0 -0.00000000000E+00 -0.00000000000E+00 -0.45593999997E+02  0.45594000000E+02  0.51100000000E-03 0.  1.
    9900012    2    1    2    0    0 -0.91097754711E+00  0.74162789642E+00  0.11454515796E+00  0.90007740443E+02  0.90000001817E+02 0.  0.
        -12    1    1    2    0    0  0.91097754711E+00 -0.74162789642E+00 -0.11454515796E+00  0.11802595568E+01  0.00000000000E+00 0.  1.
         11    1    3    3    0    0 -0.13280541981E+01  0.87731190099E+01 -0.27608639765E+01  0.92926699755E+01  0.51100000000E-03 0. -1.
        -11    1    3    3    0    0  0.15511492269E+02 -0.17081555065E+02 -0.33284311619E+02  0.40499769333E+02  0.51100000000E-03 0.  1.
         12    1    3    3    0    0 -0.15094415617E+02  0.90500639514E+01  0.36159720754E+02  0.40215301134E+02  0.00000000000E+00 0. -1.
</event>
<event>
 7    1  0.2641103E-015  0.9000774E+02  0.7816164E-02  0.1186339E+00
        -11   -1    0    0    0    0  0.00000000000E+00  0.00000000000E+00  0.45593999997E+02  0.45594000000E+02  0.51100000000E-03 0. -1.
         11   -1    0    0    0    0 -0.00000000000E+00 -0.00000000000E+00 -0.45593999997E+02  0.45594000000E+02  0.51100000000E-03 0.  1.
    9900012    2    1    2    0    0 -0.11358165572E+01  0.68018925093E-01  0.31353387405E+00  0.90007741843E+02  0.90000003236E+02 0.  0.
        -12    1    1    2    0    0  0.11358165572E+01 -0.68018925093E-01 -0.31353387405E+00  0.11802581565E+01  0.00000000000E+00 0.  1.
         11    1    3    3    0    0 -0.38194071202E+02  0.51728503091E+01 -0.91409216164E+01  0.39611890937E+02  0.51100000000E-03 0. -1.
        -11    1    3    3    0    0 -0.92591608061E+00 -0.88688868214E+01 -0.42002184303E+01  0.98567900030E+01  0.51100000000E-03 0.  1.
        -12    1    3    3    0    0  0.37984170726E+02  0.37640554374E+01  0.13654673921E+02  0.40539060904E+02  0.00000000000E+00 0.  1.
</event>
<event>
 7    1  0.2641103E-015  0.9000780E+02  0.7816164E-02  0.1186339E+00
        -11   -1    0    0    0    0  0.00000000000E+00  0.00000000000E+00  0.45593999997E+02  0.45594000000E+02  0.51100000000E-03 0.  1.
         11   -1    0    0    0    0 -0.00000000000E+00 -0.00000000000E+00 -0.45593999997E+02  0.45594000000E+02  0.51100000000E-03 0. -1.
    9900012    2    1    2    0    0 -0.10645095366E+01 -0.10347767269E+00 -0.49897854328E+00  0.90007801809E+02  0.90000063993E+02 0.  0.
        -12    1    1    2    0    0  0.10645095366E+01  0.10347767269E+00  0.49897854328E+00  0.11801981905E+01  0.00000000000E+00 0.  1.
         11    1    3    3    0    0 -0.38148965031E+02 -0.13472010001E+02  0.10775877941E+01  0.40472209998E+02  0.51100000000E-03 0. -1.
        -11    1    3    3    0    0 -0.31076257186E+01  0.66441920506E+01 -0.46243707680E+01  0.86710686120E+01  0.51100000000E-03 0.  1.
        -12    1    3    3    0    0  0.40192081213E+02  0.67243402781E+01  0.30478044307E+01  0.40864523199E+02  0.00000000000E+00 0.  1.
</event>
<event>
 7    1  0.2641103E-015  0.9000772E+02  0.7816164E-02  0.1186339E+00
        -11   -1    0    0    0    0  0.00000000000E+00  0.00000000000E+00  0.45593999997E+02  0.45594000000E+02  0.51100000000E-03 0.  1.
         11   -1    0    0    0    0 -0.00000000000E+00 -0.00000000000E+00 -0.45593999997E+02  0.45594000000E+02  0.51100000000E-03 0. -1.
    9900012    2    1    2    0    0 -0.35717461944E-01  0.39659391402E+00 -0.11110841888E+01  0.90007715905E+02  0.89999976955E+02 0.  0.
        -12    1    1    2    0    0  0.35717461944E-01 -0.39659391402E+00  0.11110841888E+01  0.11802840947E+01  0.00000000000E+00 0.  1.
         11    1    3    3    0    0 -0.19263594221E+02  0.50626969964E+01 -0.37241467585E+02  0.42233208158E+02  0.51100000000E-03 0. -1.
        -11    1    3    3    0    0  0.46650226820E+01 -0.69772247512E+01 -0.37728573119E+00  0.84015740570E+01  0.51100000000E-03 0.  1.
        -12    1    3    3    0    0  0.14562854077E+02  0.23111216688E+01  0.36507669127E+02  0.39372933690E+02  0.00000000000E+00 0.  1.
</event>
<event>
 7    1  0.2641103E-015  0.9000761E+02  0.7816164E-02  0.1186339E+00
        -11   -1    0    0    0    0  0.00000000000E+00  0.00000000000E+00  0.45593999997E+02  0.45594000000E+02  0.51100000000E-03 0. -1.
         11   -1    0    0    0    0 -0.00000000000E+00 -0.00000000000E+00 -0.45593999997E+02  0.45594000000E+02  0.51100000000E-03 0.  1.
    9900012    2    1    2    0    0  0.21047466043E+00  0.39005560073E+00  0.10940232072E+01  0.90007606111E+02  0.89999865712E+02 0.  0.
        -12    1    1    2    0    0 -0.21047466043E+00 -0.39005560073E+00 -0.10940232072E+01  0.11803938886E+01  0.00000000000E+00 0.  1.
         11    1    3    3    0    0  0.78435264441E+01 -0.94187529238E+01  0.83256415952E+01  0.14817223827E+02  0.51100000000E-03 0. -1.
        -11    1    3    3    0    0  0.22899825964E+02 -0.61344047021E+01  0.20208676034E+02  0.31151621748E+02  0.51100000000E-03 0.  1.
         12    1    3    3    0    0 -0.30532877747E+02  0.15943213227E+02 -0.27440294422E+02  0.44038760536E+02  0.00000000000E+00 0. -1.
</event>
<event>
 7    1  0.2641103E-015  0.9000776E+02  0.7816164E-02  0.1186339E+00
        -11   -1    0    0    0    0  0.00000000000E+00  0.00000000000E+00  0.45593999997E+02  0.45594000000E+02  0.51100000000E-03 0.  1.
         11   -1    0    0    0    0 -0.00000000000E+00 -0.00000000000E+00 -0.45593999997E+02  0.45594000000E+02  0.51100000000E-03 0. -1.
    9900012    2    1    2    0    0 -0.33435124444E+00 -0.61820234780E+00 -0.94815942067E+00  0.90007757997E+02  0.90000019603E+02 0.  0.
        -12    1    1    2    0    0  0.33435124444E+00  0.61820234780E+00  0.94815942067E+00  0.11802420025E+01  0.00000000000E+00 0.  1.
         11    1    3    3    0    0 -0.27544009106E+01  0.84687109410E+01  0.74447865179E+00  0.89364443769E+01  0.51100000000E-03 0. -1.
        -11    1    3    3    0    0 -0.50652301986E+01 -0.12477301958E+02  0.38115248764E+02  0.40424148844E+02  0.51100000000E-03 0.  1.
         12    1    3    3    0    0  0.74852798647E+01  0.33903886690E+01 -0.39807886837E+02  0.40647164777E+02  0.00000000000E+00 0. -1.
</event>
<event>
 7    1  0.2641103E-015  0.9000775E+02  0.7816164E-02  0.1186339E+00
        -11   -1    0    0    0    0  0.00000000000E+00  0.00000000000E+00  0.45593999997E+02  0.45594000000E+02  0.51100000000E-03 0. -1.
         11   -1    0    0    0    0 -0.00000000000E+00 -0.00000000000E+00 -0.45593999997E+02  0.45594000000E+02  0.51100000000E-03 0.  1.
    9900012    2    1    2    0    0 -0.16895136469E+00 -0.57537556349E+00  0.10165523148E+01  0.90007754173E+02  0.90000015728E+02 0.  0.
        -12    1    1    2    0    0  0.16895136469E+00  0.57537556349E+00 -0.10165523148E+01  0.11802458267E+01  0.00000000000E+00 0.  1.
         11    1    3    3    0    0  0.24590966037E+02 -0.21288259024E+02  0.24646789775E+02  0.40808943008E+02  0.51100000000E-03 0. -1.
        -11    1    3    3    0    0 -0.10955035618E+02 -0.63995483238E+01 -0.79350665390E+01  0.14964367858E+02  0.51100000000E-03 0.  1.
        -12    1    3    3    0    0 -0.13804881783E+02  0.27112431785E+02 -0.15695170921E+02  0.34234443308E+02  0.00000000000E+00 0.  1.
</event>
<event>
 7    1  0.2641103E-015  0.9000777E+02  0.7816164E-02  0.1186339E+00
        -11   -1    0    0    0    0  0.00000000000E+00  0.00000000000E+00  0.45593999997E+02  0.45594000000E+02  0.51100000000E-03 0.  1.
         11   -1    0    0    0    0 -0.00000000000E+00 -0.00000000000E+00 -0.45593999997E+02  0.45594000000E+02  0.51100000000E-03 0. -1.
    9900012    2    1    2    0    0  0.88276016679E+00 -0.74884478592E+00  0.23004022494E+00  0.90007765900E+02  0.90000027610E+02 0.  0.
        -12    1    1    2    0    0 -0.88276016679E+00  0.74884478592E+00 -0.23004022494E+00  0.11802340999E+01  0.00000000000E+00 0.  1.
         11    1    3    3    0    0  0.22595750209E+02 -0.15930789466E+02 -0.26542649195E+02  0.38325842549E+02  0.51100000000E-03 0. -1.
        -11    1    3    3    0    0 -0.24447853636E+01 -0.98481898499E+01 -0.19423576712E+00  0.10148967760E+02  0.51100000000E-03 0.  1.
        -12    1    3    3    0    0 -0.19268204679E+02  0.25030134530E+02  0.26966925187E+02  0.41532955592E+02  0.00000000000E+00 0.  1.
</event>
<event>
 7    1  0.2641103E-015  0.9000776E+02  0.7816164E-02  0.1186339E+00
        -11   -1    0    0    0    0  0.00000000000E+00  0.00000000000E+00  0.45593999997E+02  0.45594000000E+02  0.51100000000E-03 0.  1.
         11   -1    0    0    0    0 -0.00000000000E+00 -0.00000000000E+00 -0.45593999997E+02  0.45594000000E+02  0.51100000000E-03 0. -1.
    9900012    2    1    2    0    0  0.28588116236E+00  0.77065801176E+00 -0.84695279865E+00  0.90007758138E+02  0.90000019745E+02 0.  0.
        -12    1    1    2    0    0 -0.28588116236E+00 -0.77065801176E+00  0.84695279865E+00  0.11802418622E+01  0.00000000000E+00 0.  1.
         11    1    3    3    0    0 -0.66509060893E+01  0.56351977305E+01 -0.50333892678E+01  0.10066032637E+02  0.51100000000E-03 0. -1.
        -11    1    3    3    0    0  0.19126178188E+01 -0.27179081605E+02 -0.28900024437E+02  0.39718660558E+02  0.51100000000E-03 0.  1.
         12    1    3    3    0    0  0.50241694329E+01  0.22314541886E+02  0.33086460906E+02  0.40223064943E+02  0.00000000000E+00 0. -1.
</event>
<event>
 7    1  0.2641103E-015  0.9000797E+02  0.7816164E-02  0.1186339E+00
        -11   -1    0    0    0    0  0.00000000000E+00  0.00000000000E+00  0.45593999997E+02  0.45594000000E+02  0.51100000000E-03 0.  1.
         11   -1    0    0    0    0 -0.00000000000E+00 -0.00000000000E+00 -0.45593999997E+02  0.45594000000E+02  0.51100000000E-03 0. -1.
    9900012    2    1    2    0    0 -0.40559906994E+00 -0.39948226412E-01 -0.11074151566E+01  0.90007968307E+02  0.90000232689E+02 0.  0.
        -12    1    1    2    0    0  0.40559906994E+00  0.39948226412E-01  0.11074151566E+01  0.11800316926E+01  0.00000000000E+00 0.  1.
         11    1    3    3    0    0 -0.76978392713E+00  0.99421197699E+00  0.10187364482E+02  0.10264668533E+02  0.51100000000E-03 0. -1.
        -11    1    3    3    0    0 -0.12025830127E+02 -0.37638028519E+02 -0.10793279257E+00  0.39512699614E+02  0.51100000000E-03 0.  1.
         12    1    3    3    0    0  0.12390014984E+02  0.36603868315E+02 -0.11186846846E+02  0.40230600161E+02  0.00000000000E+00 0. -1.
</event>
<event>
 7    1  0.2641103E-015  0.9000797E+02  0.7816164E-02  0.1186339E+00
        -11   -1    0    0    0    0  0.00000000000E+00  0.00000000000E+00  0.45593999997E+02  0.45594000000E+02  0.51100000000E-03 0. -1.
         11   -1    0    0    0    0 -0.00000000000E+00 -0.00000000000E+00 -0.45593999997E+02  0.45594000000E+02  0.51100000000E-03 0.  1.
    9900012    2    1    2    0    0 -0.92441580727E+00 -0.69902305630E+00 -0.22199700419E+00  0.90007974370E+02  0.90000238831E+02 0.  0.
        -12    1    1    2    0    0  0.92441580727E+00  0.69902305630E+00  0.22199700419E+00  0.11800256302E+01  0.00000000000E+00 0.  1.
         11    1    3    3    0    0 -0.49117232181E+01  0.26350827225E+02  0.18561175464E+02  0.32603808908E+02  0.51100000000E-03 0. -1.
        -11    1    3    3    0    0  0.61424730401E+01  0.98031742311E+01  0.59100680227E+01  0.12990808456E+02  0.51100000000E-03 0.  1.
        -12    1    3    3    0    0 -0.21551656293E+01 -0.36853024512E+02 -0.24693240491E+02  0.44413357006E+02  0.00000000000E+00 0.  1.
</event>
<event>
 7    1  0.2641103E-015  0.9000828E+02  0.7816164E-02  0.1186338E+00
        -11   -1    0    0    0    0  0.00000000000E+00  0.00000000000E+00  0.45593999997E+02  0.45594000000E+02  0.51100000000E-03 0. -1.
         11   -1    0    0    0    0 -0.00000000000E+00 -0.00000000000E+00 -0.45593999997E+02  0.45594000000E+02  0.51100000000E-03 0.  1.
    9900012    2    1    2    0    0  0.11054868969E+01  0.35652179540E+00  0.20622501913E+00  0.90008280615E+02  0.90000549117E+02 0.  0.
        -12    1    1    2    0    0 -0.11054868969E+01 -0.35652179540E+00 -0.20622501913E+00  0.11797193854E+01  0.00000000000E+00 0.  1.
         11    1    3    3    0    0 -0.53819263499E+01 -0.62465294137E+00  0.96877238812E+01  0.11099879134E+02  0.51100000000E-03 0. -1.
        -11    1    3    3    0    0 -0.21330100744E+02  0.24199252177E+02 -0.23654328353E+02  0.40001303151E+02  0.51100000000E-03 0.  1.
         12    1    3    3    0    0  0.27817513990E+02 -0.23218077440E+02  0.14172829491E+02  0.38907098330E+02  0.00000000000E+00 0. -1.
</event>
<event>
 7    1  0.2641103E-015  0.9000776E+02  0.7816164E-02  0.1186339E+00
        -11   -1    0    0    0    0  0.00000000000E+00  0.00000000000E+00  0.45593999997E+02  0.45594000000E+02  0.51100000000E-03 0.  1.
         11   -1    0    0    0    0 -0.00000000000E+00 -0.00000000000E+00 -0.45593999997E+02  0.45594000000E+02  0.51100000000E-03 0. -1.
    9900012    2    1    2    0    0  0.30426659142E+00  0.81852445217E+00 -0.79397595738E+00  0.90007763474E+02  0.90000025151E+02 0.  0.
        -12    1    1    2    0    0 -0.30426659142E+00 -0.81852445217E+00  0.79397595738E+00  0.11802365264E+01  0.00000000000E+00 0.  1.
         11    1    3    3    0    0 -0.23643547286E+02  0.48187215513E+01 -0.28878895413E+02  0.37632804921E+02  0.51100000000E-03 0. -1.
        -11    1    3    3    0    0 -0.99784574473E+01 -0.16852373870E+01  0.51170226101E+01  0.11339909997E+02  0.51100000000E-03 0.  1.
        -12    1    3    3    0    0  0.33926271325E+02 -0.23149597121E+01  0.22967896846E+02  0.41035048556E+02  0.00000000000E+00 0.  1.
</event>
<event>
 7    1  0.2641103E-015  0.9000776E+02  0.7816164E-02  0.1186339E+00
        -11   -1    0    0    0    0  0.00000000000E+00  0.00000000000E+00  0.45593999997E+02  0.45594000000E+02  0.51100000000E-03 0.  1.
         11   -1    0    0    0    0 -0.00000000000E+00 -0.00000000000E+00 -0.45593999997E+02  0.45594000000E+02  0.51100000000E-03 0. -1.
    9900012    2    1    2    0    0  0.81716163781E+00 -0.85114722463E+00  0.27763224805E-01  0.90007756154E+02  0.90000017735E+02 0.  0.
        -12    1    1    2    0    0 -0.81716163781E+00  0.85114722463E+00 -0.27763224805E-01  0.11802438464E+01  0.00000000000E+00 0.  1.
         11    1    3    3    0    0  0.57806713451E+01  0.11970963158E+02  0.11775018839E+01  0.13345659634E+02  0.51100000000E-03 0. -1.
        -11    1    3    3    0    0  0.15898783714E+02  0.13138633424E+02  0.26356515109E+02  0.33467310929E+02  0.51100000000E-03 0.  1.
         12    1    3    3    0    0 -0.20862293421E+02 -0.25960743807E+02 -0.27506253769E+02  0.43194785590E+02  0.00000000000E+00 0. -1.
</event>
<event>
 7    1  0.2641103E-015  0.9000776E+02  0.7816164E-02  0.1186339E+00
        -11   -1    0    0    0    0  0.00000000000E+00  0.00000000000E+00  0.45593999997E+02  0.45594000000E+02  0.51100000000E-03 0. -1.
         11   -1    0    0    0    0 -0.00000000000E+00 -0.00000000000E+00 -0.45593999997E+02  0.45594000000E+02  0.51100000000E-03 0.  1.
    9900012    2    1    2    0    0  0.77739129369E+00  0.88394142142E+00  0.85358441670E-01  0.90007756075E+02  0.90000017655E+02 0.  0.
        -12    1    1    2    0    0 -0.77739129369E+00 -0.88394142142E+00 -0.85358441670E-01  0.11802439255E+01  0.00000000000E+00 0.  1.
         11    1    3    3    0    0 -0.30178448795E+02 -0.32599720989E+01  0.11375404637E+02  0.32415521292E+02  0.51100000000E-03 0. -1.
        -11    1    3    3    0    0 -0.99421731980E+01  0.11628985809E+01  0.74780718470E+01  0.12494826922E+02  0.51100000000E-03 0.  1.
        -12    1    3    3    0    0  0.40898013286E+02  0.29810149395E+01 -0.18768118042E+02  0.45097407860E+02  0.00000000000E+00 0.  1.
</event>
<event>
 7    1  0.2641103E-015  0.9000784E+02  0.7816164E-02  0.1186339E+00
        -11   -1    0    0    0    0  0.00000000000E+00  0.00000000000E+00  0.45593999997E+02  0.45594000000E+02  0.51100000000E-03 0. -1.
         11   -1    0    0    0    0 -0.00000000000E+00 -0.00000000000E+00 -0.45593999997E+02  0.45594000000E+02  0.51100000000E-03 0.  1.
    9900012    2    1    2    0    0  0.56471338958E+00  0.66362899743E+00  0.79591367290E+00  0.90007837624E+02  0.90000100281E+02 0.  0.
        -12    1    1    2    0    0 -0.56471338958E+00 -0.66362899743E+00 -0.79591367290E+00  0.11801623758E+01  0.00000000000E+00 0.  1.
         11    1    3    3    0    0  0.15305191923E+01  0.53480821324E+01 -0.98451444481E+01  0.11308021089E+02  0.51100000000E-03 0. -1.
        -11    1    3    3    0    0 -0.36101643497E+02  0.87240744855E+01  0.16496085418E+02  0.40639377125E+02  0.51100000000E-03 0.  1.
         12    1    3    3    0    0  0.35135837694E+02 -0.13408527620E+02 -0.58550272965E+01  0.38060439409E+02  0.00000000000E+00 0. -1.
</event>
<event>
 7    1  0.2641103E-015  0.9000779E+02  0.7816164E-02  0.1186339E+00
        -11   -1    0    0    0    0  0.00000000000E+00  0.00000000000E+00  0.45593999997E+02  0.45594000000E+02  0.51100000000E-03 0.  1.
         11   -1    0    0    0    0 -0.00000000000E+00 -0.00000000000E+00 -0.45593999997E+02  0.45594000000E+02  0.51100000000E-03 0. -1.
    9900012    2    1    2    0    0 -0.11634600872E+01 -0.82066626838E-01  0.18032410944E+00  0.90007791929E+02  0.90000053983E+02 0.  0.
        -12    1    1    2    0    0  0.11634600872E+01  0.82066626838E-01 -0.18032410944E+00  0.11802080708E+01  0.00000000000E+00 0.  1.
         11    1    3    3    0    0 -0.10231707849E+01 -0.73201896698E+01 -0.63215676373E+01  0.97259587142E+01  0.51100000000E-03 0. -1.
        -11    1    3    3    0    0 -0.32587369803E+01 -0.25152257596E+01  0.42580107398E+02  0.42778631040E+02  0.51100000000E-03 0.  1.
         12    1    3    3    0    0  0.31184476780E+01  0.97533488025E+01 -0.36078215652E+02  0.37503202175E+02  0.00000000000E+00 0. -1.
</event>
<event>
 7    1  0.2641103E-015  0.9000784E+02  0.7816164E-02  0.1186339E+00
        -11   -1    0    0    0    0  0.00000000000E+00  0.00000000000E+00  0.45593999997E+02  0.45594000000E+02  0.51100000000E-03 0. -1.
         11   -1    0    0    0    0 -0.00000000000E+00 -0.00000000000E+00 -0.45593999997E+02  0.45594000000E+02  0.51100000000E-03 0.  1.
    9900012    2    1    2    0    0 -0.38011485114E+00  0.10597974559E+01 -0.35371800006E+00  0.90007841379E+02  0.90000104085E+02 0.  0.
        -12    1    1    2    0    0  0.38011485114E+00 -0.10597974559E+01  0.35371800006E+00  0.11801586211E+01  0.00000000000E+00 0.  1.
         11    1    3    3    0    0 -0.65914948061E+01  0.93130489856E+01  0.17601079412E+01  0.11544637951E+02  0.51100000000E-03 0. -1.
        -11    1    3    3    0    0  0.24853535932E+02 -0.55872230773E+01 -0.33364241710E+02  0.41977231152E+02  0.51100000000E-03 0.  1.
         12    1    3    3    0    0 -0.18642155977E+02 -0.26660284524E+01  0.31250415769E+02  0.36485972276E+02  0.00000000000E+00 0. -1.
</event>
<event>
 7    1  0.2641103E-015  0.9000747E+02  0.7816164E-02  0.1186340E+00
        -11   -1    0    0    0    0  0.00000000000E+00  0.00000000000E+00  0.45593999997E+02  0.45594000000E+02  0.51100000000E-03 0. -1.
         11   -1    0    0    0    0 -0.00000000000E+00 -0.00000000000E+00 -0.45593999997E+02  0.45594000000E+02  0.51100000000E-03 0.  1.
    9900012    2    1    2    0    0 -0.13473112315E+00 -0.32432939732E+00  0.11270769723E+01  0.90007472772E+02  0.89999730613E+02 0.  0.
        -12    1    1    2    0    0  0.13473112315E+00  0.32432939732E+00 -0.11270769723E+01  0.11805272276E+01  0.00000000000E+00 0.  1.
         11    1    3    3    0    0  0.99716614849E+01 -0.56638783681E+01  0.98786141612E+01  0.15136068477E+02  0.51100000000E-03 0. -1.
        -11    1    3    3    0    0  0.27709075661E+02  0.19345578960E+02 -0.69746184645E+01  0.34506370459E+02  0.51100000000E-03 0.  1.
         12    1    3    3    0    0 -0.37815468269E+02 -0.14006029989E+02 -0.17769187244E+01  0.40365033836E+02  0.00000000000E+00 0. -1.
</event>
<event>
 7    1  0.2641103E-015  0.9000785E+02  0.7816164E-02  0.1186339E+00
        -11   -1    0    0    0    0  0.00000000000E+00  0.00000000000E+00  0.45593999997E+02  0.45594000000E+02  0.51100000000E-03 0.  1.
         11   -1    0    0    0    0 -0.00000000000E+00 -0.00000000000E+00 -0.45593999997E+02  0.45594000000E+02  0.51100000000E-03 0. -1.
    9900012    2    1    2    0    0  0.68021315647E+00 -0.59899302894E+00 -0.75582106423E+00  0.90007852523E+02  0.90000115376E+02 0.  0.
        -12    1    1    2    0    0 -0.68021315647E+00  0.59899302894E+00  0.75582106423E+00  0.11801474773E+01  0.00000000000E+00 0.  1.
         11    1    3    3    0    0 -0.35882198114E+01  0.76883906103E+01  0.38494624798E+01  0.93169218756E+01  0.51100000000E-03 0. -1.
        -11    1    3    3    0    0 -0.26100263369E+02  0.24206573885E+02  0.23472024418E+01  0.35674799603E+02  0.51100000000E-03 0.  1.
         12    1    3    3    0    0  0.30368696337E+02 -0.32493957524E+02 -0.69524859859E+01  0.45016131044E+02  0.00000000000E+00 0. -1.
</event>
<event>
 7    1  0.2641103E-015  0.9000787E+02  0.7816164E-02  0.1186339E+00
        -11   -1    0    0    0    0  0.00000000000E+00  0.00000000000E+00  0.45593999997E+02  0.45594000000E+02  0.51100000000E-03 0. -1.
         11   -1    0    0    0    0 -0.00000000000E+00 -0.00000000000E+00 -0.45593999997E+02  0.45594000000E+02  0.51100000000E-03 0.  1.
    9900012    2    1    2    0    0 -0.52019125110E+00 -0.10587221137E+01  0.34807569813E-01  0.90007871609E+02  0.90000134714E+02 0.  0.
        -12    1    1    2    0    0  0.52019125110E+00  0.10587221137E+01 -0.34807569813E-01  0.11801283907E+01  0.00000000000E+00 0.  1.
         11    1    3    3    0    0  0.50475370511E+01  0.98593468170E+01  0.25773836882E+02  0.28053075016E+02  0.51100000000E-03 0. -1.
        -11    1    3    3    0    0 -0.26494333390E+02  0.70795005497E+01 -0.61400452673E+01  0.28102832348E+02  0.51100000000E-03 0.  1.
         12    1    3    3    0    0  0.20926605088E+02 -0.17997569480E+02 -0.19598984045E+02  0.33851964246E+02  0.00000000000E+00 0. -1.
</event>
<event>
 7    1  0.2641103E-015  0.9000757E+02  0.7816164E-02  0.1186339E+00
        -11   -1    0    0    0    0  0.00000000000E+00  0.00000000000E+00  0.45593999997E+02  0.45594000000E+02  0.51100000000E-03 0.  1.
         11   -1    0    0    0    0 -0.00000000000E+00 -0.00000000000E+00 -0.45593999997E+02  0.45594000000E+02  0.51100000000E-03 0. -1.
    9900012    2    1    2    0    0  0.30904981245E+00 -0.11191131239E+01  0.21328681388E+00  0.90007569047E+02  0.89999828158E+02 0.  0.
        -12    1    1    2    0    0 -0.30904981245E+00  0.11191131239E+01 -0.21328681388E+00  0.11804309534E+01  0.00000000000E+00 0.  1.
         11    1    3    3    0    0 -0.14144781215E+00  0.24180323173E+02 -0.33370449425E+02  0.41210374074E+02  0.51100000000E-03 0. -1.
        -11    1    3    3    0    0  0.20714570308E+01  0.41751127670E+01  0.99331837553E+01  0.10972266886E+02  0.51100000000E-03 0.  1.
        -12    1    3    3    0    0 -0.16209594062E+01 -0.29474549064E+02  0.23650552484E+02  0.37824928086E+02  0.00000000000E+00 0.  1.
</event>
<event>
 7    1  0.2641103E-015  0.9000766E+02  0.7816164E-02  0.1186339E+00
        -11   -1    0    0    0    0  0.00000000000E+00  0.00000000000E+00  0.45593999997E+02  0.45594000000E+02  0.51100000000E-03 0. -1.
         11   -1    0    0    0    0 -0.00000000000E+00 -0.00000000000E+00 -0.45593999997E+02  0.45594000000E+02  0.51100000000E-03 0.  1.
    9900012    2    1    2    0    0  0.27599494467E+00  0.11432036546E+01  0.10052188986E+00  0.90007664261E+02  0.89999924630E+02 0.  0.
        -12    1    1    2    0    0 -0.27599494467E+00 -0.11432036546E+01 -0.10052188986E+00  0.11803357385E+01  0.00000000000E+00 0.  1.
         11    1    3    3    0    0 -0.76153969166E+01  0.41584049149E+01 -0.53511750798E+01  0.10194198185E+02  0.51100000000E-03 0. -1.
        -11    1    3    3    0    0 -0.32892915923E+02  0.11643818980E+02  0.98377982844E+01  0.36253340725E+02  0.51100000000E-03 0.  1.
         12    1    3    3    0    0  0.40784307785E+02 -0.14659020241E+02 -0.43861013148E+01  0.43560125352E+02  0.00000000000E+00 0. -1.
</event>
<event>
 7    1  0.2641103E-015  0.9000771E+02  0.7816164E-02  0.1186339E+00
        -11   -1    0    0    0    0  0.00000000000E+00  0.00000000000E+00  0.45593999997E+02  0.45594000000E+02  0.51100000000E-03 0.  1.
         11   -1    0    0    0    0 -0.00000000000E+00 -0.00000000000E+00 -0.45593999997E+02  0.45594000000E+02  0.51100000000E-03 0. -1.
    9900012    2    1    2    0    0 -0.62134239005E-01 -0.11446565382E+01  0.28105758233E+00  0.90007706554E+02  0.89999967480E+02 0.  0.
        -12    1    1    2    0    0  0.62134239005E-01  0.11446565382E+01 -0.28105758233E+00  0.11802934460E+01  0.00000000000E+00 0.  1.
         11    1    3    3    0    0 -0.25525429815E+02  0.31666594271E+02 -0.25480365812E+01  0.40753076579E+02  0.51100000000E-03 0. -1.
        -11    1    3    3    0    0  0.68541893319E+01  0.26406475114E+01  0.54248891059E+01  0.91313938010E+01  0.51100000000E-03 0.  1.
        -12    1    3    3    0    0  0.18609106244E+02 -0.35451898320E+02 -0.25957949423E+01  0.40123236174E+02  0.00000000000E+00 0.  1.
</event>
<event>
 7    1  0.2641103E-015  0.9000776E+02  0.7816164E-02  0.1186339E+00
        -11   -1    0    0    0    0  0.00000000000E+00  0.00000000000E+00  0.45593999997E+02  0.45594000000E+02  0.51100000000E-03 0. -1.
         11   -1    0    0    0    0 -0.00000000000E+00 -0.00000000000E+00 -0.45593999997E+02  0.45594000000E+02  0.51100000000E-03 0.  1.
    9900012    2    1    2    0    0 -0.59347986241E+00  0.94391128611E+00  0.38701916406E+00  0.90007758204E+02  0.90000019813E+02 0.  0.
        -12    1    1    2    0    0  0.59347986241E+00 -0.94391128611E+00 -0.38701916406E+00  0.11802417958E+01  0.00000000000E+00 0.  1.
         11    1    3    3    0    0  0.74095966122E+01 -0.11380514175E+01 -0.50779459543E+01  0.90544363911E+01  0.51100000000E-03 0. -1.
        -11    1    3    3    0    0  0.20956378521E+02  0.12361518159E+02 -0.26935849409E+02  0.36297615839E+02  0.51100000000E-03 0.  1.
         12    1    3    3    0    0 -0.28959454996E+02 -0.10279555456E+02  0.32400814528E+02  0.44655705974E+02  0.00000000000E+00 0. -1.
</event>
<event>
 7    1  0.2641103E-015  0.9000786E+02  0.7816164E-02  0.1186339E+00
        -11   -1    0    0    0    0  0.00000000000E+00  0.00000000000E+00  0.45593999997E+02  0.45594000000E+02  0.51100000000E-03 0.  1.
         11   -1    0    0    0    0 -0.00000000000E+00 -0.00000000000E+00 -0.45593999997E+02  0.45594000000E+02  0.51100000000E-03 0. -1.
    9900012    2    1    2    0    0 -0.32609091171E+00  0.72550884092E+00 -0.87179784578E+00  0.90007860244E+02  0.90000123199E+02 0.  0.
        -12    1    1    2    0    0  0.32609091171E+00 -0.72550884092E+00  0.87179784578E+00  0.11801397565E+01  0.00000000000E+00 0.  1.
         11    1    3    3    0    0 -0.29439721370E+01 -0.23118376775E+01 -0.10428921011E+02  0.11080341110E+02  0.51100000000E-03 0. -1.
        -11    1    3    3    0    0 -0.12903781325E+02 -0.30380722072E+02  0.22418062668E+02  0.39900693981E+02  0.51100000000E-03 0.  1.
         12    1    3    3    0    0  0.15521662550E+02  0.33418068590E+02 -0.12860939502E+02  0.39026825153E+02  0.00000000000E+00 0. -1.
</event>
<event>
 7    1  0.2641103E-015  0.9000787E+02  0.7816164E-02  0.1186339E+00
        -11   -1    0    0    0    0  0.00000000000E+00  0.00000000000E+00  0.45593999997E+02  0.45594000000E+02  0.51100000000E-03 0.  1.
         11   -1    0    0    0    0 -0.00000000000E+00 -0.00000000000E+00 -0.45593999997E+02  0.45594000000E+02  0.51100000000E-03 0. -1.
    9900012    2    1    2    0    0  0.99249044354E+00  0.32373723651E+00 -0.55032415089E+00  0.90007872994E+02  0.90000136118E+02 0.  0.
        -12    1    1    2    0    0 -0.99249044354E+00 -0.32373723651E+00  0.55032415089E+00  0.11801270058E+01  0.00000000000E+00 0.  1.
         11    1    3    3    0    0 -0.26302413058E+01  0.62146216732E+01  0.73649002336E+01  0.99890664019E+01  0.51100000000E-03 0. -1.
        -11    1    3    3    0    0 -0.19614664064E+02  0.22184306861E+02  0.18582415550E+02  0.34959758082E+02  0.51100000000E-03 0.  1.
         12    1    3    3    0    0  0.23237395813E+02 -0.28075191297E+02 -0.26497639934E+02  0.45059048510E+02  0.00000000000E+00 0. -1.
</event>
<event>
 7    1  0.2641103E-015  0.9000773E+02  0.7816164E-02  0.1186339E+00
        -11   -1    0    0    0    0  0.00000000000E+00  0.00000000000E+00  0.45593999997E+02  0.45594000000E+02  0.51100000000E-03 0. -1.
         11   -1    0    0    0    0 -0.00000000000E+00 -0.00000000000E+00 -0.45593999997E+02  0.45594000000E+02  0.51100000000E-03 0.  1.
    9900012    2    1    2    0    0  0.22171059746E+00 -0.19699722358E+00  0.11424007460E+01  0.90007727591E+02  0.89999988795E+02 0.  0.
        -12    1    1    2    0    0 -0.22171059746E+00  0.19699722358E+00 -0.11424007460E+01  0.11802724091E+01  0.00000000000E+00 0.  1.
         11    1    3    3    0    0  0.35275347464E+02 -0.71688617935E+01 -0.68104968884E+00  0.36002868595E+02  0.51100000000E-03 0. -1.
        -11    1    3    3    0    0  0.55659947555E+01 -0.21737668212E+01  0.99274310272E+01  0.11587037882E+02  0.51100000000E-03 0.  1.
        -12    1    3    3    0    0 -0.40619631622E+02  0.91456313911E+01 -0.81039805923E+01  0.42417821114E+02  0.00000000000E+00 0.  1.
</event>
<event>
 7    1  0.2641103E-015  0.9000713E+02  0.7816164E-02  0.1186340E+00
        -11   -1    0    0    0    0  0.00000000000E+00  0.00000000000E+00  0.45593999997E+02  0.45594000000E+02  0.51100000000E-03 0. -1.
         11   -1    0    0    0    0 -0.00000000000E+00 -0.00000000000E+00 -0.45593999997E+02  0.45594000000E+02  0.51100000000E-03 0.  1.
    9900012    2    1    2    0    0  0.53598622827E+00  0.61677759165E-01  0.10504182518E+01  0.90007125796E+02  0.89999379054E+02 0.  0.
        -12    1    1    2    0    0 -0.53598622827E+00 -0.61677759165E-01 -0.10504182518E+01  0.11808742044E+01  0.00000000000E+00 0.  1.
         11    1    3    3    0    0  0.25964564415E+02 -0.10159279954E+02  0.25275019795E+02  0.37632382337E+02  0.51100000000E-03 0. -1.
        -11    1    3    3    0    0  0.56287356402E+01 -0.28026590978E+01  0.48041185438E+01  0.79130978870E+01  0.51100000000E-03 0.  1.
        -12    1    3    3    0    0 -0.31057313827E+02  0.13023616811E+02 -0.29028720087E+02  0.44461645571E+02  0.00000000000E+00 0.  1.
</event>
<event>
 7    1  0.2641103E-015  0.9000769E+02  0.7816164E-02  0.1186339E+00
        -11   -1    0    0    0    0  0.00000000000E+00  0.00000000000E+00  0.45593999997E+02  0.45594000000E+02  0.51100000000E-03 0. -1.
         11   -1    0    0    0    0 -0.00000000000E+00 -0.00000000000E+00 -0.45593999997E+02  0.45594000000E+02  0.51100000000E-03 0.  1.
    9900012    2    1    2    0    0  0.23530090429E+00  0.10794562364E+01  0.41537454273E+00  0.90007691442E+02  0.89999952169E+02 0.  0.
        -12    1    1    2    0    0 -0.23530090429E+00 -0.10794562364E+01 -0.41537454273E+00  0.11803085582E+01  0.00000000000E+00 0.  1.
         11    1    3    3    0    0  0.32610009167E+02 -0.13409621117E+02  0.20779831340E+02  0.40927155131E+02  0.51100000000E-03 0. -1.
        -11    1    3    3    0    0  0.17146886452E+01  0.85835653497E+01 -0.92664945382E+01  0.12746986803E+02  0.51100000000E-03 0.  1.
        -12    1    3    3    0    0 -0.34089396907E+02  0.59055120035E+01 -0.11097962259E+02  0.36333549508E+02  0.00000000000E+00 0.  1.
</event>
<event>
 7    1  0.2641103E-015  0.9000751E+02  0.7816164E-02  0.1186340E+00
        -11   -1    0    0    0    0  0.00000000000E+00  0.00000000000E+00  0.45593999997E+02  0.45594000000E+02  0.51100000000E-03 0. -1.
         11   -1    0    0    0    0 -0.00000000000E+00 -0.00000000000E+00 -0.45593999997E+02  0.45594000000E+02  0.51100000000E-03 0.  1.
    9900012    2    1    2    0    0  0.24215384100E+00  0.11273794853E+01  0.25284416113E+00  0.90007511475E+02  0.89999769827E+02 0.  0.
        -12    1    1    2    0    0 -0.24215384100E+00 -0.11273794853E+01 -0.25284416113E+00  0.11804885245E+01  0.00000000000E+00 0.  1.
         11    1    3    3    0    0  0.35604356143E+02 -0.73734476910E+01  0.13094475474E+02  0.38645869060E+02  0.51100000000E-03 0. -1.
        -11    1    3    3    0    0  0.55942737359E+01 -0.35493167153E+01  0.47059306958E+00  0.66419128176E+01  0.51100000000E-03 0.  1.
        -12    1    3    3    0    0 -0.40956476038E+02  0.12050143892E+02 -0.13312224383E+02  0.44719729598E+02  0.00000000000E+00 0.  1.
</event>
<event>
 7    1  0.2641103E-015  0.9000765E+02  0.7816164E-02  0.1186339E+00
        -11   -1    0    0    0    0  0.00000000000E+00  0.00000000000E+00  0.45593999997E+02  0.45594000000E+02  0.51100000000E-03 0.  1.
         11   -1    0    0    0    0 -0.00000000000E+00 -0.00000000000E+00 -0.45593999997E+02  0.45594000000E+02  0.51100000000E-03 0. -1.
    9900012    2    1    2    0    0 -0.32320244579E+00  0.77655374879E+00 -0.82808212615E+00  0.90007654477E+02  0.89999914716E+02 0.  0.
        -12    1    1    2    0    0  0.32320244579E+00 -0.77655374879E+00  0.82808212615E+00  0.11803455229E+01  0.00000000000E+00 0.  1.
         11    1    3    3    0    0  0.30805064574E+02  0.92118538250E+01 -0.82113297095E+01  0.33184878939E+02  0.51100000000E-03 0. -1.
        -11    1    3    3    0    0  0.91560900980E+01  0.80162730680E+01 -0.19343786066E+01  0.12322193013E+02  0.51100000000E-03 0.  1.
        -12    1    3    3    0    0 -0.40284357118E+02 -0.16451573144E+02  0.93176261900E+01  0.44500582526E+02  0.00000000000E+00 0.  1.
</event>
<event>
 7    1  0.2641103E-015  0.9000773E+02  0.7816164E-02  0.1186339E+00
        -11   -1    0    0    0    0  0.00000000000E+00  0.00000000000E+00  0.45593999997E+02  0.45594000000E+02  0.51100000000E-03 0. -1.
         11   -1    0    0    0    0 -0.00000000000E+00 -0.00000000000E+00 -0.45593999997E+02  0.45594000000E+02  0.51100000000E-03 0.  1.
    9900012    2    1    2    0    0 -0.11442897368E+01 -0.48368087926E-02  0.28918157846E+00  0.90007725294E+02  0.89999986468E+02 0.  0.
        -12    1    1    2    0    0  0.11442897368E+01  0.48368087926E-02 -0.28918157846E+00  0.11802747061E+01  0.00000000000E+00 0.  1.
         11    1    3    3    0    0  0.67000422749E+01 -0.50265300720E+01  0.39011834753E+01  0.92399028036E+01  0.51100000000E-03 0. -1.
        -11    1    3    3    0    0  0.21995840519E+02  0.38443349237E+01 -0.32359725677E+02  0.39315998745E+02  0.51100000000E-03 0.  1.
         12    1    3    3    0    0 -0.29840172531E+02  0.11773583395E+01  0.28747723780E+02  0.41451823746E+02  0.00000000000E+00 0. -1.
</event>
<event>
 7    1  0.2641103E-015  0.9000775E+02  0.7816164E-02  0.1186339E+00
        -11   -1    0    0    0    0  0.00000000000E+00  0.00000000000E+00  0.45593999997E+02  0.45594000000E+02  0.51100000000E-03 0.  1.
         11   -1    0    0    0    0 -0.00000000000E+00 -0.00000000000E+00 -0.45593999997E+02  0.45594000000E+02  0.51100000000E-03 0. -1.
    9900012    2    1    2    0    0  0.88047549801E-01 -0.10212395945E+01 -0.58508040949E+00  0.90007745042E+02  0.90000006477E+02 0.  0.
        -12    1    1    2    0    0 -0.88047549801E-01  0.10212395945E+01  0.58508040949E+00  0.11802549580E+01  0.00000000000E+00 0.  1.
         11    1    3    3    0    0 -0.37328337374E+01 -0.23973110916E+02 -0.26560275009E+02  0.35973494458E+02  0.51100000000E-03 0. -1.
        -11    1    3    3    0    0  0.29391971510E+01 -0.73291386019E+01 -0.60524630277E+01  0.99492442678E+01  0.51100000000E-03 0.  1.
        -12    1    3    3    0    0  0.88168413617E+00  0.30281009923E+02  0.32027657627E+02  0.44085006317E+02  0.00000000000E+00 0.  1.
</event>
<event>
 7    1  0.2641103E-015  0.9000775E+02  0.7816164E-02  0.1186339E+00
        -11   -1    0    0    0    0  0.00000000000E+00  0.00000000000E+00  0.45593999997E+02  0.45594000000E+02  0.51100000000E-03 0.  1.
         11   -1    0    0    0    0 -0.00000000000E+00 -0.00000000000E+00 -0.45593999997E+02  0.45594000000E+02  0.51100000000E-03 0. -1.
    9900012    2    1    2    0    0 -0.11148673022E+01 -0.37433201083E+00 -0.99684018108E-01  0.90007749832E+02  0.90000011330E+02 0.  0.
        -12    1    1    2    0    0  0.11148673022E+01  0.37433201083E+00  0.99684018108E-01  0.11802501681E+01  0.00000000000E+00 0.  1.
         11    1    3    3    0    0 -0.31501679946E+01 -0.98640805633E+01 -0.17273959215E+00  0.10356325747E+02  0.51100000000E-03 0. -1.
        -11    1    3    3    0    0  0.83636342530E+01 -0.17842391140E+02  0.31730543561E+02  0.37351421585E+02  0.51100000000E-03 0.  1.
         12    1    3    3    0    0 -0.63283335606E+01  0.27332139693E+02 -0.31657487987E+02  0.42300002500E+02  0.00000000000E+00 0. -1.
</event>
<event>
 7    1  0.2641103E-015  0.9000760E+02  0.7816164E-02  0.1186339E+00
        -11   -1    0    0    0    0  0.00000000000E+00  0.00000000000E+00  0.45593999997E+02  0.45594000000E+02  0.51100000000E-03 0.  1.
         11   -1    0    0    0    0 -0.00000000000E+00 -0.00000000000E+00 -0.45593999997E+02  0.45594000000E+02  0.51100000000E-03 0. -1.
    9900012    2    1    2    0    0  0.54719065394E+00  0.13799809221E+00 -0.10367638932E+01  0.90007601569E+02  0.89999861110E+02 0.  0.
        -12    1    1    2    0    0 -0.54719065394E+00 -0.13799809221E+00  0.10367638932E+01  0.11803984308E+01  0.00000000000E+00 0.  1.
         11    1    3    3    0    0  0.43421373692E+00  0.88492140240E+00 -0.10145792408E+02  0.10193563229E+02  0.51100000000E-03 0. -1.
        -11    1    3    3    0    0  0.38073630001E+02  0.76725285739E+01  0.12454997051E+02  0.40787203238E+02  0.51100000000E-03 0.  1.
         12    1    3    3    0    0 -0.37960653084E+02 -0.84194518841E+01 -0.33459685363E+01  0.39026835102E+02  0.00000000000E+00 0. -1.
</event>
<event>
 7    1  0.2641103E-015  0.9000768E+02  0.7816164E-02  0.1186339E+00
        -11   -1    0    0    0    0  0.00000000000E+00  0.00000000000E+00  0.45593999997E+02  0.45594000000E+02  0.51100000000E-03 0.  1.
         11   -1    0    0    0    0 -0.00000000000E+00 -0.00000000000E+00 -0.45593999997E+02  0.45594000000E+02  0.51100000000E-03 0. -1.
    9900012    2    1    2    0    0  0.61462637649E+00 -0.85631557578E+00 -0.53113325223E+00  0.90007684585E+02  0.89999945221E+02 0.  0.
        -12    1    1    2    0    0 -0.61462637649E+00  0.85631557578E+00  0.53113325223E+00  0.11803154153E+01  0.00000000000E+00 0.  1.
         11    1    3    3    0    0  0.76683066218E+01 -0.13474649878E+01  0.72454166810E+01  0.10635537198E+02  0.51100000000E-03 0. -1.
        -11    1    3    3    0    0 -0.15749214082E+02  0.69929430536E+01  0.32971197749E+02  0.37202672996E+02  0.51100000000E-03 0.  1.
         12    1    3    3    0    0  0.86955338371E+01 -0.65017936415E+01 -0.40747747682E+02  0.42169474391E+02  0.00000000000E+00 0. -1.
</event>
<event>
 7    1  0.2641103E-015  0.9000781E+02  0.7816164E-02  0.1186339E+00
        -11   -1    0    0    0    0  0.00000000000E+00  0.00000000000E+00  0.45593999997E+02  0.45594000000E+02  0.51100000000E-03 0.  1.
         11   -1    0    0    0    0 -0.00000000000E+00 -0.00000000000E+00 -0.45593999997E+02  0.45594000000E+02  0.51100000000E-03 0. -1.
    9900012    2    1    2    0    0  0.33936436085E+00  0.22544706926E-03 -0.11303439737E+01  0.90007811151E+02  0.90000073458E+02 0.  0.
        -12    1    1    2    0    0 -0.33936436085E+00 -0.22544706926E-03  0.11303439737E+01  0.11801888490E+01  0.00000000000E+00 0.  1.
         11    1    3    3    0    0 -0.41587025332E+01  0.19350829398E+02 -0.11934144085E-01  0.19792663990E+02  0.51100000000E-03 0. -1.
        -11    1    3    3    0    0  0.90884853937E+01 -0.28816329030E+02  0.26795036763E+02  0.40385088596E+02  0.51100000000E-03 0.  1.
         12    1    3    3    0    0 -0.45904184997E+01  0.94657250797E+01 -0.27913446593E+02  0.29830058565E+02  0.00000000000E+00 0. -1.
</event>
<event>
 7    1  0.2641103E-015  0.9000777E+02  0.7816164E-02  0.1186339E+00
        -11   -1    0    0    0    0  0.00000000000E+00  0.00000000000E+00  0.45593999997E+02  0.45594000000E+02  0.51100000000E-03 0. -1.
         11   -1    0    0    0    0 -0.00000000000E+00 -0.00000000000E+00 -0.45593999997E+02  0.45594000000E+02  0.51100000000E-03 0.  1.
    9900012    2    1    2    0    0  0.54542535822E+00  0.38813587903E+00  0.97200740842E+00  0.90007772613E+02  0.90000034412E+02 0.  0.
        -12    1    1    2    0    0 -0.54542535822E+00 -0.38813587903E+00 -0.97200740842E+00  0.11802273866E+01  0.00000000000E+00 0.  1.
         11    1    3    3    0    0  0.42042270605E+02 -0.64966272885E+00  0.15959126450E+02  0.44974084722E+02  0.51100000000E-03 0. -1.
        -11    1    3    3    0    0 -0.59874704246E+01 -0.58423138825E+00 -0.57153616353E+01  0.82979809161E+01  0.51100000000E-03 0.  1.
        -12    1    3    3    0    0 -0.35509374822E+02  0.16220299961E+01 -0.92717574066E+01  0.36735706975E+02  0.00000000000E+00 0.  1.
</event>
<event>
 7    1  0.2641103E-015  0.9000759E+02  0.7816164E-02  0.1186339E+00
        -11   -1    0    0    0    0  0.00000000000E+00  0.00000000000E+00  0.45593999997E+02  0.45594000000E+02  0.51100000000E-03 0.  1.
         11   -1    0    0    0    0 -0.00000000000E+00 -0.00000000000E+00 -0.45593999997E+02  0.45594000000E+02  0.51100000000E-03 0. -1.
    9900012    2    1    2    0    0  0.79540934479E+00  0.84051303378E+00 -0.23288743567E+00  0.90007587045E+02  0.89999846394E+02 0.  0.
        -12    1    1    2    0    0 -0.79540934479E+00 -0.84051303378E+00  0.23288743567E+00  0.11804129546E+01  0.00000000000E+00 0.  1.
         11    1    3    3    0    0  0.12159456126E+02 -0.13154448402E+01 -0.40009753604E+01  0.12868200049E+02  0.51100000000E-03 0. -1.
        -11    1    3    3    0    0 -0.42007517446E+01 -0.95052077275E+01  0.38463358483E+02  0.39842505383E+02  0.51100000000E-03 0.  1.
         12    1    3    3    0    0 -0.71632950368E+01  0.11661165601E+02 -0.34695270558E+02  0.37296881613E+02  0.00000000000E+00 0. -1.
</event>
<event>
 7    1  0.2641103E-015  0.9000772E+02  0.7816164E-02  0.1186339E+00
        -11   -1    0    0    0    0  0.00000000000E+00  0.00000000000E+00  0.45593999997E+02  0.45594000000E+02  0.51100000000E-03 0. -1.
         11   -1    0    0    0    0 -0.00000000000E+00 -0.00000000000E+00 -0.45593999997E+02  0.45594000000E+02  0.51100000000E-03 0.  1.
    9900012    2    1    2    0    0  0.34042402199E+00 -0.53641223953E+00  0.99470818586E+00  0.90007715720E+02  0.89999976768E+02 0.  0.
        -12    1    1    2    0    0 -0.34042402199E+00  0.53641223953E+00 -0.99470818586E+00  0.11802842795E+01  0.00000000000E+00 0.  1.
         11    1    3    3    0    0 -0.92001258293E+01 -0.30697994989E+01  0.18003565765E+01  0.98644446525E+01  0.51100000000E-03 0. -1.
        -11    1    3    3    0    0  0.44417032073E+02  0.76232841784E+00  0.51377849360E+01  0.44719690485E+02  0.51100000000E-03 0.  1.
         12    1    3    3    0    0 -0.34876482222E+02  0.17710588415E+01 -0.59434333266E+01  0.35423580583E+02  0.00000000000E+00 0. -1.
</event>
<event>
 7    1  0.2641103E-015  0.9000774E+02  0.7816164E-02  0.1186339E+00
        -11   -1    0    0    0    0  0.00000000000E+00  0.00000000000E+00  0.45593999997E+02  0.45594000000E+02  0.51100000000E-03 0.  1.
         11   -1    0    0    0    0 -0.00000000000E+00 -0.00000000000E+00 -0.45593999997E+02  0.45594000000E+02  0.51100000000E-03 0. -1.
    9900012    2    1    2    0    0  0.11006054234E+01  0.36968865553E+00 -0.21213641138E+00  0.90007744156E+02  0.90000005579E+02 0.  0.
        -12    1    1    2    0    0 -0.11006054234E+01 -0.36968865553E+00  0.21213641138E+00  0.11802558439E+01  0.00000000000E+00 0.  1.
         11    1    3    3    0    0 -0.73230221297E+01  0.19234668256E+01  0.60259401521E+01  0.96766901738E+01  0.51100000000E-03 0. -1.
        -11    1    3    3    0    0  0.46740740484E+01  0.35348069568E+02  0.13727550067E+02  0.38207049369E+02  0.51100000000E-03 0.  1.
         12    1    3    3    0    0  0.37495535046E+01 -0.36901847738E+02 -0.19965626631E+02  0.42124004614E+02  0.00000000000E+00 0. -1.
</event>
<event>
 7    1  0.2641103E-015  0.9000769E+02  0.7816164E-02  0.1186339E+00
        -11   -1    0    0    0    0  0.00000000000E+00  0.00000000000E+00  0.45593999997E+02  0.45594000000E+02  0.51100000000E-03 0.  1.
         11   -1    0    0    0    0 -0.00000000000E+00 -0.00000000000E+00 -0.45593999997E+02  0.45594000000E+02  0.51100000000E-03 0. -1.
    9900012    2    1    2    0    0  0.51236320558E+00 -0.43418657925E+00 -0.97061682986E+00  0.90007690265E+02  0.89999950977E+02 0.  0.
        -12    1    1    2    0    0 -0.51236320558E+00  0.43418657925E+00  0.97061682986E+00  0.11803097350E+01  0.00000000000E+00 0.  1.
         11    1    3    3    0    0  0.15354610191E+01 -0.51099533991E+00 -0.96519789221E+01  0.97866978166E+01  0.51100000000E-03 0. -1.
        -11    1    3    3    0    0  0.11543423233E+02  0.24355140102E+02 -0.25054688523E+02  0.36798925074E+02  0.51100000000E-03 0.  1.
         12    1    3    3    0    0 -0.12566521047E+02 -0.24278331341E+02  0.33736050615E+02  0.43422067375E+02  0.00000000000E+00 0. -1.
</event>
<event>
 7    1  0.2641103E-015  0.9000709E+02  0.7816164E-02  0.1186340E+00
        -11   -1    0    0    0    0  0.00000000000E+00  0.00000000000E+00  0.45593999997E+02  0.45594000000E+02  0.51100000000E-03 0.  1.
         11   -1    0    0    0    0 -0.00000000000E+00 -0.00000000000E+00 -0.45593999997E+02  0.45594000000E+02  0.51100000000E-03 0. -1.
    9900012    2    1    2    0    0  0.27079618801E-01  0.10432744343E+01 -0.55263025220E+00  0.90007087198E+02  0.89999339946E+02 0.  0.
        -12    1    1    2    0    0 -0.27079618801E-01 -0.10432744343E+01  0.55263025220E+00  0.11809128023E+01  0.00000000000E+00 0.  1.
         11    1    3    3    0    0  0.43464034134E+01 -0.11445124227E+02 -0.22209756664E+01  0.12442460543E+02  0.51100000000E-03 0. -1.
        -11    1    3    3    0    0 -0.13719188634E+02 -0.32943630701E+01  0.35978582203E+02  0.38646181473E+02  0.51100000000E-03 0.  1.
         12    1    3    3    0    0  0.93998648391E+01  0.15782761731E+02 -0.34310236789E+02  0.38918445182E+02  0.00000000000E+00 0. -1.
</event>
<event>
 7    1  0.2641103E-015  0.9000774E+02  0.7816164E-02  0.1186339E+00
        -11   -1    0    0    0    0  0.00000000000E+00  0.00000000000E+00  0.45593999997E+02  0.45594000000E+02  0.51100000000E-03 0. -1.
         11   -1    0    0    0    0 -0.00000000000E+00 -0.00000000000E+00 -0.45593999997E+02  0.45594000000E+02  0.51100000000E-03 0.  1.
    9900012    2    1    2    0    0 -0.10986417772E+01  0.56770003051E-01  0.42751449219E+00  0.90007743575E+02  0.90000004990E+02 0.  0.
        -12    1    1    2    0    0  0.10986417772E+01 -0.56770003051E-01 -0.42751449219E+00  0.11802564251E+01  0.00000000000E+00 0.  1.
         11    1    3    3    0    0 -0.22607663168E+00 -0.88067505280E+01 -0.87560205628E+00  0.88530584957E+01  0.51100000000E-03 0. -1.
        -11    1    3    3    0    0 -0.84167876381E+01  0.27083243834E+02 -0.31808306191E+02  0.42615874433E+02  0.51100000000E-03 0.  1.
         12    1    3    3    0    0  0.75442224925E+01 -0.18219723302E+02  0.33111422739E+02  0.38538810646E+02  0.00000000000E+00 0. -1.
</event>
<event>
 7    1  0.2641103E-015  0.9000769E+02  0.7816164E-02  0.1186339E+00
        -11   -1    0    0    0    0  0.00000000000E+00  0.00000000000E+00  0.45593999997E+02  0.45594000000E+02  0.51100000000E-03 0.  1.
         11   -1    0    0    0    0 -0.00000000000E+00 -0.00000000000E+00 -0.45593999997E+02  0.45594000000E+02  0.51100000000E-03 0. -1.
    9900012    2    1    2    0    0 -0.53573017794E+00 -0.58477614192E+00 -0.87415922502E+00  0.90007693129E+02  0.89999953878E+02 0.  0.
        -12    1    1    2    0    0  0.53573017794E+00  0.58477614192E+00  0.87415922502E+00  0.11803068713E+01  0.00000000000E+00 0.  1.
         11    1    3    3    0    0 -0.53033902261E+01  0.30695783589E+00 -0.91061283917E+01  0.10542378553E+02  0.51100000000E-03 0. -1.
        -11    1    3    3    0    0  0.25562455906E+02 -0.25938710428E+02 -0.15088841166E+02  0.39419905867E+02  0.51100000000E-03 0.  1.
         12    1    3    3    0    0 -0.20794795858E+02  0.25046976450E+02  0.23320810332E+02  0.40045408708E+02  0.00000000000E+00 0. -1.
</event>
<event>
 7    1  0.2641103E-015  0.9000769E+02  0.7816164E-02  0.1186339E+00
        -11   -1    0    0    0    0  0.00000000000E+00  0.00000000000E+00  0.45593999997E+02  0.45594000000E+02  0.51100000000E-03 0. -1.
         11   -1    0    0    0    0 -0.00000000000E+00 -0.00000000000E+00 -0.45593999997E+02  0.45594000000E+02  0.51100000000E-03 0.  1.
    9900012    2    1    2    0    0 -0.10713644919E+01 -0.21453671809E-01  0.49481703214E+00  0.90007692400E+02  0.89999953140E+02 0.  0.
        -12    1    1    2    0    0  0.10713644919E+01  0.21453671809E-01 -0.49481703214E+00  0.11803075997E+01  0.00000000000E+00 0.  1.
         11    1    3    3    0    0 -0.51503625009E+01  0.36369603209E+01 -0.37704345516E+01  0.73464203007E+01  0.51100000000E-03 0. -1.
        -11    1    3    3    0    0 -0.28555128412E+02  0.25378379689E+02 -0.32366803105E+01  0.38339713274E+02  0.51100000000E-03 0.  1.
         12    1    3    3    0    0  0.32634126421E+02 -0.29036793681E+02  0.75019318942E+01  0.44321558825E+02  0.00000000000E+00 0. -1.
</event>
<event>
 7    1  0.2641103E-015  0.9000799E+02  0.7816164E-02  0.1186339E+00
        -11   -1    0    0    0    0  0.00000000000E+00  0.00000000000E+00  0.45593999997E+02  0.45594000000E+02  0.51100000000E-03 0.  1.
         11   -1    0    0    0    0 -0.00000000000E+00 -0.00000000000E+00 -0.45593999997E+02  0.45594000000E+02  0.51100000000E-03 0. -1.
    9900012    2    1    2    0    0 -0.21279358554E+00 -0.75925985952E+00 -0.87787595820E+00  0.90007990321E+02  0.90000254993E+02 0.  0.
        -12    1    1    2    0    0  0.21279358554E+00  0.75925985952E+00  0.87787595820E+00  0.11800096789E+01  0.00000000000E+00 0.  1.
         11    1    3    3    0    0 -0.31501743068E+02  0.73047401572E+01 -0.15594090515E+02  0.35901179707E+02  0.51100000000E-03 0. -1.
        -11    1    3    3    0    0 -0.63867732675E+01 -0.13402229923E+01 -0.74308331280E+01  0.98896082671E+01  0.51100000000E-03 0.  1.
        -12    1    3    3    0    0  0.37675722750E+02 -0.67237770244E+01  0.22147047685E+02  0.44217202347E+02  0.00000000000E+00 0.  1.
</event>
<event>
 7    1  0.2641103E-015  0.9000774E+02  0.7816164E-02  0.1186339E+00
        -11   -1    0    0    0    0  0.00000000000E+00  0.00000000000E+00  0.45593999997E+02  0.45594000000E+02  0.51100000000E-03 0.  1.
         11   -1    0    0    0    0 -0.00000000000E+00 -0.00000000000E+00 -0.45593999997E+02  0.45594000000E+02  0.51100000000E-03 0. -1.
    9900012    2    1    2    0    0 -0.85268127057E+00 -0.79694849251E+00 -0.17556630580E+00  0.90007739107E+02  0.90000000463E+02 0.  0.
        -12    1    1    2    0    0  0.85268127057E+00  0.79694849251E+00  0.17556630580E+00  0.11802608935E+01  0.00000000000E+00 0.  1.
         11    1    3    3    0    0  0.11533919622E+02 -0.13304547858E+01 -0.26993441237E+01  0.11920061692E+02  0.51100000000E-03 0. -1.
        -11    1    3    3    0    0  0.21365910800E+02  0.18532585370E+02 -0.19117346138E+02  0.34138421001E+02  0.51100000000E-03 0.  1.
         12    1    3    3    0    0 -0.33752511693E+02 -0.17999079077E+02  0.21641123956E+02  0.43949256413E+02  0.00000000000E+00 0. -1.
</event>
<event>
 7    1  0.2641103E-015  0.9000781E+02  0.7816164E-02  0.1186339E+00
        -11   -1    0    0    0    0  0.00000000000E+00  0.00000000000E+00  0.45593999997E+02  0.45594000000E+02  0.51100000000E-03 0.  1.
         11   -1    0    0    0    0 -0.00000000000E+00 -0.00000000000E+00 -0.45593999997E+02  0.45594000000E+02  0.51100000000E-03 0. -1.
    9900012    2    1    2    0    0 -0.54569886711E+00  0.71143236891E+00 -0.76741438282E+00  0.90007810141E+02  0.90000072434E+02 0.  0.
        -12    1    1    2    0    0  0.54569886711E+00 -0.71143236891E+00  0.76741438282E+00  0.11801898593E+01  0.00000000000E+00 0.  1.
         11    1    3    3    0    0  0.30847210923E+02  0.77171744951E+01 -0.27430108601E+02  0.41994238439E+02  0.51100000000E-03 0.  1.
        -11    1    3    3    0    0 -0.15059076780E+02 -0.76610709603E+01  0.18574020940E+00  0.16896813351E+02  0.51100000000E-03 0. -1.
        -12    1    3    3    0    0 -0.16333833010E+02  0.65532883411E+00  0.26476954009E+02  0.31116758351E+02  0.00000000000E+00 0.  1.
</event>
<event>
 7    1  0.2641103E-015  0.9000776E+02  0.7816164E-02  0.1186339E+00
        -11   -1    0    0    0    0  0.00000000000E+00  0.00000000000E+00  0.45593999997E+02  0.45594000000E+02  0.51100000000E-03 0.  1.
         11   -1    0    0    0    0 -0.00000000000E+00 -0.00000000000E+00 -0.45593999997E+02  0.45594000000E+02  0.51100000000E-03 0. -1.
    9900012    2    1    2    0    0 -0.87914241089E+00  0.27565127953E+00 -0.73761768810E+00  0.90007764913E+02  0.90000026610E+02 0.  0.
        -12    1    1    2    0    0  0.87914241089E+00 -0.27565127953E+00  0.73761768810E+00  0.11802350869E+01  0.00000000000E+00 0.  1.
         11    1    3    3    0    0  0.27522023984E+02  0.90959184878E+01  0.28467435897E+02  0.40627483852E+02  0.51100000000E-03 0. -1.
        -11    1    3    3    0    0 -0.76909148391E+01  0.32934525009E+00  0.43945943991E+01  0.88640340449E+01  0.51100000000E-03 0.  1.
        -12    1    3    3    0    0 -0.20710251556E+02 -0.91496124584E+01 -0.33599647984E+02  0.40516247016E+02  0.00000000000E+00 0.  1.
</event>
<event>
 7    1  0.2641103E-015  0.9000773E+02  0.7816164E-02  0.1186339E+00
        -11   -1    0    0    0    0  0.00000000000E+00  0.00000000000E+00  0.45593999997E+02  0.45594000000E+02  0.51100000000E-03 0.  1.
         11   -1    0    0    0    0 -0.00000000000E+00 -0.00000000000E+00 -0.45593999997E+02  0.45594000000E+02  0.51100000000E-03 0. -1.
    9900012    2    1    2    0    0 -0.11313280409E+00  0.31743273473E+00 -0.11311380229E+01  0.90007730624E+02  0.89999991869E+02 0.  0.
        -12    1    1    2    0    0  0.11313280409E+00 -0.31743273473E+00  0.11311380229E+01  0.11802693757E+01  0.00000000000E+00 0.  1.
         11    1    3    3    0    0 -0.74208052138E+01  0.36224157211E+02  0.21150981878E+02  0.42598379668E+02  0.51100000000E-03 0. -1.
        -11    1    3    3    0    0  0.45733352562E+01 -0.90937799501E+01  0.28367208413E+01  0.10566892379E+02  0.51100000000E-03 0.  1.
        -12    1    3    3    0    0  0.27343371535E+01 -0.26812944526E+02 -0.25118840743E+02  0.36842458578E+02  0.00000000000E+00 0.  1.
</event>
<event>
 7    1  0.2641103E-015  0.9000772E+02  0.7816164E-02  0.1186339E+00
        -11   -1    0    0    0    0  0.00000000000E+00  0.00000000000E+00  0.45593999997E+02  0.45594000000E+02  0.51100000000E-03 0. -1.
         11   -1    0    0    0    0 -0.00000000000E+00 -0.00000000000E+00 -0.45593999997E+02  0.45594000000E+02  0.51100000000E-03 0.  1.
    9900012    2    1    2    0    0 -0.11092070749E+01  0.27909823874E+00  0.29123363625E+00  0.90007723256E+02  0.89999984403E+02 0.  0.
        -12    1    1    2    0    0  0.11092070749E+01 -0.27909823874E+00 -0.29123363625E+00  0.11802767441E+01  0.00000000000E+00 0.  1.
         11    1    3    3    0    0 -0.25152075362E+01  0.83096251901E+01  0.43003796096E+00  0.86925872247E+01  0.51100000000E-03 0. -1.
        -11    1    3    3    0    0 -0.19122305390E+02  0.29695360724E+02 -0.11038171798E+02  0.37004300411E+02  0.51100000000E-03 0.  1.
         12    1    3    3    0    0  0.20528305852E+02 -0.37725887676E+02  0.10899367474E+02  0.44310835620E+02  0.00000000000E+00 0. -1.
</event>
<event>
 7    1  0.2641103E-015  0.9000772E+02  0.7816164E-02  0.1186339E+00
        -11   -1    0    0    0    0  0.00000000000E+00  0.00000000000E+00  0.45593999997E+02  0.45594000000E+02  0.51100000000E-03 0. -1.
         11   -1    0    0    0    0 -0.00000000000E+00 -0.00000000000E+00 -0.45593999997E+02  0.45594000000E+02  0.51100000000E-03 0.  1.
    9900012    2    1    2    0    0 -0.78320895962E+00  0.85198684890E+00  0.23188824805E+00  0.90007716125E+02  0.89999977178E+02 0.  0.
        -12    1    1    2    0    0  0.78320895962E+00 -0.85198684890E+00 -0.23188824805E+00  0.11802838746E+01  0.00000000000E+00 0.  1.
         11    1    3    3    0    0 -0.26573277893E+02  0.27577897600E+02  0.99061773216E+01  0.39557703212E+02  0.51100000000E-03 0. -1.
        -11    1    3    3    0    0  0.25127748499E+01  0.61829937165E+01 -0.75613565275E+01  0.10085512458E+02  0.51100000000E-03 0.  1.
        -12    1    3    3    0    0  0.23277294083E+02 -0.32908904467E+02 -0.21129325461E+01  0.40364500456E+02  0.00000000000E+00 0.  1.
</event>
<event>
 7    1  0.2641103E-015  0.9000775E+02  0.7816164E-02  0.1186339E+00
        -11   -1    0    0    0    0  0.00000000000E+00  0.00000000000E+00  0.45593999997E+02  0.45594000000E+02  0.51100000000E-03 0.  1.
         11   -1    0    0    0    0 -0.00000000000E+00 -0.00000000000E+00 -0.45593999997E+02  0.45594000000E+02  0.51100000000E-03 0. -1.
    9900012    2    1    2    0    0  0.92520716841E+00  0.71343141158E+00  0.16730159987E+00  0.90007753200E+02  0.90000014742E+02 0.  0.
        -12    1    1    2    0    0 -0.92520716841E+00 -0.71343141158E+00 -0.16730159987E+00  0.11802468000E+01  0.00000000000E+00 0.  1.
         11    1    3    3    0    0  0.66299393529E+01 -0.26926316991E+02 -0.29800282629E+02  0.40706749901E+02  0.51100000000E-03 0. -1.
        -11    1    3    3    0    0 -0.34749661462E+00 -0.52903158928E+01  0.70670797787E+01  0.88346937130E+01  0.51100000000E-03 0.  1.
        -12    1    3    3    0    0 -0.53572355699E+01  0.32930064295E+02  0.22900504450E+02  0.40466309586E+02  0.00000000000E+00 0.  1.
</event>
<event>
 7    1  0.2641103E-015  0.9000768E+02  0.7816164E-02  0.1186339E+00
        -11   -1    0    0    0    0  0.00000000000E+00  0.00000000000E+00  0.45593999997E+02  0.45594000000E+02  0.51100000000E-03 0. -1.
         11   -1    0    0    0    0 -0.00000000000E+00 -0.00000000000E+00 -0.45593999997E+02  0.45594000000E+02  0.51100000000E-03 0.  1.
    9900012    2    1    2    0    0 -0.95457867911E+00  0.18283937016E+00  0.66970838483E+00  0.90007678006E+02  0.89999938555E+02 0.  0.
        -12    1    1    2    0    0  0.95457867911E+00 -0.18283937016E+00 -0.66970838483E+00  0.11803219945E+01  0.00000000000E+00 0.  1.
         11    1    3    3    0    0 -0.62922832197E+01 -0.91168160224E+01 -0.69316847263E+01  0.13067418104E+02  0.51100000000E-03 0. -1.
        -11    1    3    3    0    0 -0.85938523896E+01  0.35768515844E+02 -0.14715902661E+02  0.39620686717E+02  0.51100000000E-03 0.  1.
         12    1    3    3    0    0  0.13931556930E+02 -0.26468860451E+02  0.22317295772E+02  0.37319573184E+02  0.00000000000E+00 0. -1.
</event>
<event>
 7    1  0.2641103E-015  0.9000789E+02  0.7816164E-02  0.1186339E+00
        -11   -1    0    0    0    0  0.00000000000E+00  0.00000000000E+00  0.45593999997E+02  0.45594000000E+02  0.51100000000E-03 0.  1.
         11   -1    0    0    0    0 -0.00000000000E+00 -0.00000000000E+00 -0.45593999997E+02  0.45594000000E+02  0.51100000000E-03 0. -1.
    9900012    2    1    2    0    0 -0.67842724859E+00 -0.73728685689E+00 -0.62354864319E+00  0.90007886297E+02  0.90000149596E+02 0.  0.
        -12    1    1    2    0    0  0.67842724859E+00  0.73728685689E+00  0.62354864319E+00  0.11801137027E+01  0.00000000000E+00 0.  1.
         11    1    3    3    0    0 -0.11215768344E+01  0.12789345089E+01 -0.89933196491E+01  0.91527813612E+01  0.51100000000E-03 0. -1.
        -11    1    3    3    0    0 -0.37555652818E+02  0.12735216277E+02  0.37850925761E+01  0.39836411966E+02  0.51100000000E-03 0.  1.
         12    1    3    3    0    0  0.37998802404E+02 -0.14751437642E+02  0.45846784298E+01  0.41018692970E+02  0.00000000000E+00 0. -1.
</event>
<event>
 7    1  0.2641103E-015  0.9000768E+02  0.7816164E-02  0.1186339E+00
        -11   -1    0    0    0    0  0.00000000000E+00  0.00000000000E+00  0.45593999997E+02  0.45594000000E+02  0.51100000000E-03 0.  1.
         11   -1    0    0    0    0 -0.00000000000E+00 -0.00000000000E+00 -0.45593999997E+02  0.45594000000E+02  0.51100000000E-03 0. -1.
    9900012    2    1    2    0    0 -0.11429950019E+01 -0.16564490204E+00  0.24347739969E+00  0.90007679259E+02  0.89999939825E+02 0.  0.
        -12    1    1    2    0    0  0.11429950019E+01  0.16564490204E+00 -0.24347739969E+00  0.11803207412E+01  0.00000000000E+00 0.  1.
         11    1    3    3    0    0  0.20457322269E+01 -0.41615592194E+01  0.94788320947E+01  0.10552338775E+02  0.51100000000E-03 0. -1.
        -11    1    3    3    0    0 -0.13330643880E+02  0.28233789651E+02  0.22329904505E+02  0.38385903400E+02  0.51100000000E-03 0.  1.
         12    1    3    3    0    0  0.10141916651E+02 -0.24237875334E+02 -0.31565259200E+02  0.41069437084E+02  0.00000000000E+00 0. -1.
</event>
<event>
 7    1  0.2641103E-015  0.9000773E+02  0.7816164E-02  0.1186339E+00
        -11   -1    0    0    0    0  0.00000000000E+00  0.00000000000E+00  0.45593999997E+02  0.45594000000E+02  0.51100000000E-03 0.  1.
         11   -1    0    0    0    0 -0.00000000000E+00 -0.00000000000E+00 -0.45593999997E+02  0.45594000000E+02  0.51100000000E-03 0. -1.
    9900012    2    1    2    0    0 -0.65765395438E+00 -0.95679368071E+00 -0.21228462559E+00  0.90007734084E+02  0.89999995374E+02 0.  0.
        -12    1    1    2    0    0  0.65765395438E+00  0.95679368071E+00  0.21228462559E+00  0.11802659164E+01  0.00000000000E+00 0.  1.
         11    1    3    3    0    0  0.27834049010E+01 -0.93550124090E+01 -0.27694619555E+02  0.29364188267E+02  0.51100000000E-03 0. -1.
        -11    1    3    3    0    0  0.15865537214E+01 -0.70847866266E+01 -0.14170779097E+02  0.15922384706E+02  0.51100000000E-03 0.  1.
        -12    1    3    3    0    0 -0.50276125768E+01  0.15483005355E+02  0.41653114026E+02  0.44721161111E+02  0.00000000000E+00 0.  1.
</event>
<event>
 7    1  0.2641103E-015  0.9000783E+02  0.7816164E-02  0.1186339E+00
        -11   -1    0    0    0    0  0.00000000000E+00  0.00000000000E+00  0.45593999997E+02  0.45594000000E+02  0.51100000000E-03 0.  1.
         11   -1    0    0    0    0 -0.00000000000E+00 -0.00000000000E+00 -0.45593999997E+02  0.45594000000E+02  0.51100000000E-03 0. -1.
    9900012    2    1    2    0    0 -0.10016636056E+01  0.47897376024E+00  0.40008114362E+00  0.90007825961E+02  0.90000088463E+02 0.  0.
        -12    1    1    2    0    0  0.10016636056E+01 -0.47897376024E+00 -0.40008114362E+00  0.11801740394E+01  0.00000000000E+00 0.  1.
         11    1    3    3    0    0  0.21532722316E+00 -0.36317289429E+01 -0.10892658802E+02  0.11484155910E+02  0.51100000000E-03 0. -1.
        -11    1    3    3    0    0  0.39871397816E+01 -0.33833479944E+02 -0.89224650380E+01  0.35216644238E+02  0.51100000000E-03 0.  1.
         12    1    3    3    0    0 -0.52041306104E+01  0.37944182647E+02  0.20215204984E+02  0.43307025812E+02  0.00000000000E+00 0. -1.
</event>
<event>
 7    1  0.2641103E-015  0.9000781E+02  0.7816164E-02  0.1186339E+00
        -11   -1    0    0    0    0  0.00000000000E+00  0.00000000000E+00  0.45593999997E+02  0.45594000000E+02  0.51100000000E-03 0. -1.
         11   -1    0    0    0    0 -0.00000000000E+00 -0.00000000000E+00 -0.45593999997E+02  0.45594000000E+02  0.51100000000E-03 0.  1.
    9900012    2    1    2    0    0 -0.89440070858E-01 -0.84969339154E+00 -0.81416150993E+00  0.90007814697E+02  0.90000077051E+02 0.  0.
        -12    1    1    2    0    0  0.89440070858E-01  0.84969339154E+00  0.81416150993E+00  0.11801853033E+01  0.00000000000E+00 0.  1.
         11    1    3    3    0    0  0.74798344278E+01 -0.17863124460E+01 -0.73660794915E+01  0.10648847945E+02  0.51100000000E-03 0. -1.
        -11    1    3    3    0    0 -0.29081856006E+02 -0.16892778066E+02 -0.21378853856E+02  0.39851922061E+02  0.51100000000E-03 0.  1.
         12    1    3    3    0    0  0.21512581507E+02  0.17829397120E+02  0.27930771837E+02  0.39507044691E+02  0.00000000000E+00 0. -1.
</event>
<event>
 7    1  0.2641103E-015  0.9000778E+02  0.7816164E-02  0.1186339E+00
        -11   -1    0    0    0    0  0.00000000000E+00  0.00000000000E+00  0.45593999997E+02  0.45594000000E+02  0.51100000000E-03 0.  1.
         11   -1    0    0    0    0 -0.00000000000E+00 -0.00000000000E+00 -0.45593999997E+02  0.45594000000E+02  0.51100000000E-03 0. -1.
    9900012    2    1    2    0    0 -0.80342008286E-02  0.61410585610E+00 -0.10078320786E+01  0.90007781355E+02  0.90000043269E+02 0.  0.
        -12    1    1    2    0    0  0.80342008286E-02 -0.61410585610E+00  0.10078320786E+01  0.11802186448E+01  0.00000000000E+00 0.  1.
         11    1    3    3    0    0 -0.66281421630E+01  0.47010440975E+00  0.14089704977E+02  0.15577966918E+02  0.51100000000E-03 0. -1.
        -11    1    3    3    0    0  0.10587202523E+02  0.20845885925E+02  0.21780019315E+02  0.31953232370E+02  0.51100000000E-03 0.  1.
         12    1    3    3    0    0 -0.39670945609E+01 -0.20701884479E+02 -0.36877556371E+02  0.42476582067E+02  0.00000000000E+00 0. -1.
</event>
<event>
 7    1  0.2641103E-015  0.9000772E+02  0.7816164E-02  0.1186339E+00
        -11   -1    0    0    0    0  0.00000000000E+00  0.00000000000E+00  0.45593999997E+02  0.45594000000E+02  0.51100000000E-03 0.  1.
         11   -1    0    0    0    0 -0.00000000000E+00 -0.00000000000E+00 -0.45593999997E+02  0.45594000000E+02  0.51100000000E-03 0. -1.
    9900012    2    1    2    0    0  0.85093292467E+00  0.12001493904E+00 -0.80904813948E+00  0.90007724897E+02  0.89999986065E+02 0.  0.
        -12    1    1    2    0    0 -0.85093292467E+00 -0.12001493904E+00  0.80904813948E+00  0.11802751035E+01  0.00000000000E+00 0.  1.
         11    1    3    3    0    0 -0.31523534958E+00  0.26766885403E+01 -0.34695737552E+02  0.34800262060E+02  0.51100000000E-03 0. -1.
        -11    1    3    3    0    0 -0.25362274405E+01 -0.66743711974E+01 -0.92677606324E+01  0.11699190908E+02  0.51100000000E-03 0.  1.
        -12    1    3    3    0    0  0.37023957147E+01  0.41176975962E+01  0.43154450045E+02  0.43508271929E+02  0.00000000000E+00 0.  1.
</event>
<event>
 7    1  0.2641103E-015  0.9000774E+02  0.7816164E-02  0.1186339E+00
        -11   -1    0    0    0    0  0.00000000000E+00  0.00000000000E+00  0.45593999997E+02  0.45594000000E+02  0.51100000000E-03 0.  1.
         11   -1    0    0    0    0 -0.00000000000E+00 -0.00000000000E+00 -0.45593999997E+02  0.45594000000E+02  0.51100000000E-03 0. -1.
    9900012    2    1    2    0    0  0.70486476976E+00  0.62402505561E+00 -0.71187654633E+00  0.90007741625E+02  0.90000003015E+02 0.  0.
        -12    1    1    2    0    0 -0.70486476976E+00 -0.62402505561E+00  0.71187654633E+00  0.11802583746E+01  0.00000000000E+00 0.  1.
         11    1    3    3    0    0  0.10086242728E+02 -0.66018974656E+00  0.14846278039E+01  0.10216274411E+02  0.51100000000E-03 0. -1.
        -11    1    3    3    0    0 -0.93560185596E+01 -0.38665546792E+02 -0.69510970692E-03  0.39781397572E+02  0.51100000000E-03 0.  1.
         12    1    3    3    0    0 -0.25359398701E-01  0.39949761594E+02 -0.21958092406E+01  0.40010069642E+02  0.00000000000E+00 0. -1.
</event>
<event>
 7    1  0.2641103E-015  0.9000784E+02  0.7816164E-02  0.1186339E+00
        -11   -1    0    0    0    0  0.00000000000E+00  0.00000000000E+00  0.45593999997E+02  0.45594000000E+02  0.51100000000E-03 0.  1.
         11   -1    0    0    0    0 -0.00000000000E+00 -0.00000000000E+00 -0.45593999997E+02  0.45594000000E+02  0.51100000000E-03 0. -1.
    9900012    2    1    2    0    0 -0.10863127626E+01 -0.34789969972E+00  0.30275328408E+00  0.90007843582E+02  0.90000106318E+02 0.  0.
        -12    1    1    2    0    0  0.10863127626E+01  0.34789969972E+00 -0.30275328408E+00  0.11801564177E+01  0.00000000000E+00 0.  1.
         11    1    3    3    0    0 -0.88056728196E+01  0.51438638346E+01  0.23500664561E+00  0.10200707688E+02  0.51100000000E-03 0. -1.
        -11    1    3    3    0    0 -0.34153114497E+02  0.34888173444E+01  0.10172894337E+02  0.35806352171E+02  0.51100000000E-03 0.  1.
         12    1    3    3    0    0  0.41872474554E+02 -0.89805808787E+01 -0.10105147699E+02  0.44000783723E+02  0.00000000000E+00 0. -1.
</event>
<event>
 7    1  0.2641103E-015  0.9000764E+02  0.7816164E-02  0.1186339E+00
        -11   -1    0    0    0    0  0.00000000000E+00  0.00000000000E+00  0.45593999997E+02  0.45594000000E+02  0.51100000000E-03 0.  1.
         11   -1    0    0    0    0 -0.00000000000E+00 -0.00000000000E+00 -0.45593999997E+02  0.45594000000E+02  0.51100000000E-03 0. -1.
    9900012    2    1    2    0    0 -0.12278412172E+00 -0.50004419875E+00  0.10621336096E+01  0.90007640756E+02  0.89999900813E+02 0.  0.
        -12    1    1    2    0    0  0.12278412172E+00  0.50004419875E+00 -0.10621336096E+01  0.11803592444E+01  0.00000000000E+00 0.  1.
         11    1    3    3    0    0 -0.36701700701E+02 -0.14546323507E+02  0.67834991038E+01  0.40057786038E+02  0.51100000000E-03 0. -1.
        -11    1    3    3    0    0 -0.32391005838E+01  0.64692426575E+01 -0.60267297097E+01  0.94161746165E+01  0.51100000000E-03 0.  1.
        -12    1    3    3    0    0  0.39818017163E+02  0.75770366509E+01  0.30536421551E+00  0.40533680101E+02  0.00000000000E+00 0.  1.
</event>
<event>
 7    1  0.2641103E-015  0.9000771E+02  0.7816164E-02  0.1186339E+00
        -11   -1    0    0    0    0  0.00000000000E+00  0.00000000000E+00  0.45593999997E+02  0.45594000000E+02  0.51100000000E-03 0.  1.
         11   -1    0    0    0    0 -0.00000000000E+00 -0.00000000000E+00 -0.45593999997E+02  0.45594000000E+02  0.51100000000E-03 0. -1.
    9900012    2    1    2    0    0  0.96937715235E+00 -0.66885389746E+00 -0.77693418976E-01  0.90007706025E+02  0.89999966945E+02 0.  0.
        -12    1    1    2    0    0 -0.96937715235E+00  0.66885389746E+00  0.77693418976E-01  0.11802939748E+01  0.00000000000E+00 0.  1.
         11    1    3    3    0    0  0.33128585832E+02 -0.11662174074E+02  0.50121318233E+01  0.35477189419E+02  0.51100000000E-03 0. -1.
        -11    1    3    3    0    0  0.61862784840E+01 -0.52669345017E+01  0.74602296298E+01  0.11030216087E+02  0.51100000000E-03 0.  1.
        -12    1    3    3    0    0 -0.38345487164E+02  0.16260254678E+02 -0.12550054872E+02  0.43500300520E+02  0.00000000000E+00 0.  1.
</event>
<event>
 7    1  0.2641103E-015  0.9000791E+02  0.7816164E-02  0.1186339E+00
        -11   -1    0    0    0    0  0.00000000000E+00  0.00000000000E+00  0.45593999997E+02  0.45594000000E+02  0.51100000000E-03 0.  1.
         11   -1    0    0    0    0 -0.00000000000E+00 -0.00000000000E+00 -0.45593999997E+02  0.45594000000E+02  0.51100000000E-03 0. -1.
    9900012    2    1    2    0    0 -0.79444871617E+00 -0.68862624779E+00 -0.53596228516E+00  0.90007910833E+02  0.90000174455E+02 0.  0.
        -12    1    1    2    0    0  0.79444871617E+00  0.68862624779E+00  0.53596228516E+00  0.11800891673E+01  0.00000000000E+00 0.  1.
         11    1    3    3    0    0  0.12571008561E+00 -0.84284163038E+01  0.39199811859E+01  0.92962496295E+01  0.51100000000E-03 0. -1.
        -11    1    3    3    0    0 -0.10687509463E+02 -0.28338458545E+02  0.19771810697E+02  0.36169263052E+02  0.51100000000E-03 0.  1.
         12    1    3    3    0    0  0.97673506613E+01  0.36078248601E+02 -0.24227754168E+02  0.44542398151E+02  0.00000000000E+00 0. -1.
</event>
<event>
 7    1  0.2641103E-015  0.9000774E+02  0.7816164E-02  0.1186339E+00
        -11   -1    0    0    0    0  0.00000000000E+00  0.00000000000E+00  0.45593999997E+02  0.45594000000E+02  0.51100000000E-03 0.  1.
         11   -1    0    0    0    0 -0.00000000000E+00 -0.00000000000E+00 -0.45593999997E+02  0.45594000000E+02  0.51100000000E-03 0. -1.
    9900012    2    1    2    0    0  0.33701203677E+00 -0.93039083766E+00 -0.64327348610E+00  0.90007743671E+02  0.90000005088E+02 0.  0.
        -12    1    1    2    0    0 -0.33701203677E+00  0.93039083766E+00  0.64327348610E+00  0.11802563288E+01  0.00000000000E+00 0.  1.
         11    1    3    3    0    0  0.18259345243E-04  0.49825510390E+01  0.71492760208E+01  0.87142390798E+01  0.51100000000E-03 0. -1.
        -11    1    3    3    0    0  0.19747940704E+02 -0.54518136682E+01  0.31436255600E+02  0.37522547897E+02  0.51100000000E-03 0.  1.
         12    1    3    3    0    0 -0.19410946927E+02 -0.46112820855E+00 -0.39228805107E+02  0.43770956694E+02  0.00000000000E+00 0. -1.
</event>
<event>
 7    1  0.2641103E-015  0.9000777E+02  0.7816164E-02  0.1186339E+00
        -11   -1    0    0    0    0  0.00000000000E+00  0.00000000000E+00  0.45593999997E+02  0.45594000000E+02  0.51100000000E-03 0.  1.
         11   -1    0    0    0    0 -0.00000000000E+00 -0.00000000000E+00 -0.45593999997E+02  0.45594000000E+02  0.51100000000E-03 0. -1.
    9900012    2    1    2    0    0 -0.51286054548E+00  0.31151790077E+00 -0.10163075577E+01  0.90007766806E+02  0.90000028527E+02 0.  0.
        -12    1    1    2    0    0  0.51286054548E+00 -0.31151790077E+00  0.10163075577E+01  0.11802331945E+01  0.00000000000E+00 0.  1.
         11    1    3    3    0    0 -0.15337652792E+00  0.94926658931E+01 -0.60468992186E+01  0.11256074828E+02  0.51100000000E-03 0. -1.
        -11    1    3    3    0    0  0.20350218126E+02 -0.22403989983E+02  0.30774423589E+02  0.43164050927E+02  0.51100000000E-03 0.  1.
         12    1    3    3    0    0 -0.20709702144E+02  0.13222841991E+02 -0.25743831928E+02  0.35587641050E+02  0.00000000000E+00 0. -1.
</event>
<event>
 7    1  0.2641103E-015  0.9000775E+02  0.7816164E-02  0.1186339E+00
        -11   -1    0    0    0    0  0.00000000000E+00  0.00000000000E+00  0.45593999997E+02  0.45594000000E+02  0.51100000000E-03 0. -1.
         11   -1    0    0    0    0 -0.00000000000E+00 -0.00000000000E+00 -0.45593999997E+02  0.45594000000E+02  0.51100000000E-03 0.  1.
    9900012    2    1    2    0    0 -0.11455709622E+01 -0.28292038447E+00  0.24977171531E-01  0.90007745522E+02  0.90000006963E+02 0.  0.
        -12    1    1    2    0    0  0.11455709622E+01  0.28292038447E+00 -0.24977171531E-01  0.11802544779E+01  0.00000000000E+00 0.  1.
         11    1    3    3    0    0  0.17310529007E+02  0.16518090680E+02  0.19981361708E+02  0.31173009964E+02  0.51100000000E-03 0. -1.
        -11    1    3    3    0    0 -0.40271876133E+01  0.45862507169E+01  0.14533548934E+02  0.15763120903E+02  0.51100000000E-03 0.  1.
        -12    1    3    3    0    0 -0.14428912356E+02 -0.21387261781E+02 -0.34489933470E+02  0.43071614656E+02  0.00000000000E+00 0.  1.
</event>
<event>
 7    1  0.2641103E-015  0.9000768E+02  0.7816164E-02  0.1186339E+00
        -11   -1    0    0    0    0  0.00000000000E+00  0.00000000000E+00  0.45593999997E+02  0.45594000000E+02  0.51100000000E-03 0.  1.
         11   -1    0    0    0    0 -0.00000000000E+00 -0.00000000000E+00 -0.45593999997E+02  0.45594000000E+02  0.51100000000E-03 0. -1.
    9900012    2    1    2    0    0  0.83775050608E+00  0.82406226595E+00  0.11066857199E+00  0.90007681373E+02  0.89999941967E+02 0.  0.
        -12    1    1    2    0    0 -0.83775050608E+00 -0.82406226595E+00 -0.11066857199E+00  0.11803186271E+01  0.00000000000E+00 0.  1.
         11    1    3    3    0    0 -0.12684122466E+01  0.79578956076E+01  0.53223392689E+01  0.96573426823E+01  0.51100000000E-03 0. -1.
        -11    1    3    3    0    0  0.10599572272E+00  0.26159872122E+02  0.24381779564E+02  0.35760611286E+02  0.51100000000E-03 0.  1.
         12    1    3    3    0    0  0.20001670299E+01 -0.33293705464E+02 -0.29593450261E+02  0.44589727405E+02  0.00000000000E+00 0. -1.
</event>
<event>
 7    1  0.2641103E-015  0.9000825E+02  0.7816164E-02  0.1186338E+00
        -11   -1    0    0    0    0  0.00000000000E+00  0.00000000000E+00  0.45593999997E+02  0.45594000000E+02  0.51100000000E-03 0.  1.
         11   -1    0    0    0    0 -0.00000000000E+00 -0.00000000000E+00 -0.45593999997E+02  0.45594000000E+02  0.51100000000E-03 0. -1.
    9900012    2    1    2    0    0 -0.12485048641E-01  0.11399826126E+01  0.30348458290E+00  0.90008246159E+02  0.90000514207E+02 0.  0.
        -12    1    1    2    0    0  0.12485048641E-01 -0.11399826126E+01 -0.30348458290E+00  0.11797538410E+01  0.00000000000E+00 0.  1.
         11    1    3    3    0    0  0.52808364903E+01 -0.75405056257E+01 -0.26675277038E+01  0.95844751260E+01  0.51100000000E-03 0. -1.
        -11    1    3    3    0    0  0.24983108940E+02 -0.23544137292E+01  0.29467574040E+02  0.38704481864E+02  0.51100000000E-03 0.  1.
         12    1    3    3    0    0 -0.30276430479E+02  0.11034901967E+02 -0.26496561754E+02  0.41719289169E+02  0.00000000000E+00 0. -1.
</event>
<event>
 7    1  0.2641103E-015  0.9000773E+02  0.7816164E-02  0.1186339E+00
        -11   -1    0    0    0    0  0.00000000000E+00  0.00000000000E+00  0.45593999997E+02  0.45594000000E+02  0.51100000000E-03 0. -1.
         11   -1    0    0    0    0 -0.00000000000E+00 -0.00000000000E+00 -0.45593999997E+02  0.45594000000E+02  0.51100000000E-03 0.  1.
    9900012    2    1    2    0    0  0.31009123664E+00  0.11330053318E+01 -0.11479108731E+00  0.90007731111E+02  0.89999992362E+02 0.  0.
        -12    1    1    2    0    0 -0.31009123664E+00 -0.11330053318E+01  0.11479108731E+00  0.11802688891E+01  0.00000000000E+00 0.  1.
         11    1    3    3    0    0  0.25731892970E+01 -0.91460200559E+01 -0.50211211999E+00  0.95143629773E+01  0.51100000000E-03 0. -1.
        -11    1    3    3    0    0  0.28244533304E+02  0.32172812207E+02 -0.20755891449E+01  0.42862006223E+02  0.51100000000E-03 0.  1.
         12    1    3    3    0    0 -0.30507631364E+02 -0.21893786819E+02  0.24629101776E+01  0.37631361911E+02  0.00000000000E+00 0. -1.
</event>
<event>
 7    1  0.2641103E-015  0.9000774E+02  0.7816164E-02  0.1186339E+00
        -11   -1    0    0    0    0  0.00000000000E+00  0.00000000000E+00  0.45593999997E+02  0.45594000000E+02  0.51100000000E-03 0. -1.
         11   -1    0    0    0    0 -0.00000000000E+00 -0.00000000000E+00 -0.45593999997E+02  0.45594000000E+02  0.51100000000E-03 0.  1.
    9900012    2    1    2    0    0 -0.10078483682E+01 -0.16813647670E+00  0.59074925846E+00  0.90007740328E+02  0.90000001700E+02 0.  0.
        -12    1    1    2    0    0  0.10078483682E+01  0.16813647670E+00 -0.59074925846E+00  0.11802596725E+01  0.00000000000E+00 0.  1.
         11    1    3    3    0    0  0.80933204565E+01 -0.23774824072E+01  0.30275537212E+01  0.89621615922E+01  0.51100000000E-03 0. -1.
        -11    1    3    3    0    0  0.30697740721E+02  0.17669006996E+02  0.95770228843E+01  0.36691476683E+02  0.51100000000E-03 0.  1.
         12    1    3    3    0    0 -0.39798909546E+02 -0.15459661066E+02 -0.12013827347E+02  0.44354102052E+02  0.00000000000E+00 0. -1.
</event>
<event>
 7    1  0.2641103E-015  0.9000774E+02  0.7816164E-02  0.1186339E+00
        -11   -1    0    0    0    0  0.00000000000E+00  0.00000000000E+00  0.45593999997E+02  0.45594000000E+02  0.51100000000E-03 0. -1.
         11   -1    0    0    0    0 -0.00000000000E+00 -0.00000000000E+00 -0.45593999997E+02  0.45594000000E+02  0.51100000000E-03 0.  1.
    9900012    2    1    2    0    0  0.10781327318E+01 -0.35271128867E+00  0.32593144919E+00  0.90007742930E+02  0.90000004337E+02 0.  0.
        -12    1    1    2    0    0 -0.10781327318E+01  0.35271128867E+00 -0.32593144919E+00  0.11802570695E+01  0.00000000000E+00 0.  1.
         11    1    3    3    0    0 -0.24359316166E+02  0.59020047539E+01  0.28724125625E+02  0.38121979715E+02  0.51100000000E-03 0. -1.
        -11    1    3    3    0    0 -0.53202677806E+01 -0.10507578639E+02 -0.11823220640E+02  0.16688409291E+02  0.51100000000E-03 0.  1.
        -12    1    3    3    0    0  0.30757716679E+02  0.42528625965E+01 -0.16574973536E+02  0.35197353924E+02  0.00000000000E+00 0.  1.
</event>
<event>
 7    1  0.2641103E-015  0.9000779E+02  0.7816164E-02  0.1186339E+00
        -11   -1    0    0    0    0  0.00000000000E+00  0.00000000000E+00  0.45593999997E+02  0.45594000000E+02  0.51100000000E-03 0.  1.
         11   -1    0    0    0    0 -0.00000000000E+00 -0.00000000000E+00 -0.45593999997E+02  0.45594000000E+02  0.51100000000E-03 0. -1.
    9900012    2    1    2    0    0 -0.33029695318E+00  0.92071439560E+00 -0.66035845779E+00  0.90007794777E+02  0.90000056868E+02 0.  0.
        -12    1    1    2    0    0  0.33029695318E+00 -0.92071439560E+00  0.66035845779E+00  0.11802052230E+01  0.00000000000E+00 0.  1.
         11    1    3    3    0    0  0.69770883985E+01  0.21827259125E+01 -0.74014110500E+00  0.73479156260E+01  0.51100000000E-03 0. -1.
        -11    1    3    3    0    0  0.29035522330E+02 -0.54293248307E+01  0.24750320357E+02  0.38537222047E+02  0.51100000000E-03 0.  1.
         12    1    3    3    0    0 -0.36342907682E+02  0.41673133137E+01 -0.24670537709E+02  0.44122657104E+02  0.00000000000E+00 0. -1.
</event>
<event>
 7    1  0.2641103E-015  0.9000788E+02  0.7816164E-02  0.1186339E+00
        -11   -1    0    0    0    0  0.00000000000E+00  0.00000000000E+00  0.45593999997E+02  0.45594000000E+02  0.51100000000E-03 0.  1.
         11   -1    0    0    0    0 -0.00000000000E+00 -0.00000000000E+00 -0.45593999997E+02  0.45594000000E+02  0.51100000000E-03 0. -1.
    9900012    2    1    2    0    0  0.17942992890E+00  0.11658366135E+01 -0.36279197293E-01  0.90007878697E+02  0.90000141896E+02 0.  0.
        -12    1    1    2    0    0 -0.17942992890E+00 -0.11658366135E+01  0.36279197293E-01  0.11801213026E+01  0.00000000000E+00 0.  1.
         11    1    3    3    0    0 -0.76859093625E+01 -0.11255860381E+02 -0.43744429527E+00  0.13636676774E+02  0.51100000000E-03 0. -1.
        -11    1    3    3    0    0  0.88999872710E+01 -0.57235927124E+01  0.35392960671E+02  0.36940911633E+02  0.51100000000E-03 0.  1.
         12    1    3    3    0    0 -0.10346479795E+01  0.18145289707E+02 -0.34991795573E+02  0.39430290291E+02  0.00000000000E+00 0. -1.
</event>
<event>
 7    1  0.2641103E-015  0.9000775E+02  0.7816164E-02  0.1186339E+00
        -11   -1    0    0    0    0  0.00000000000E+00  0.00000000000E+00  0.45593999997E+02  0.45594000000E+02  0.51100000000E-03 0. -1.
         11   -1    0    0    0    0 -0.00000000000E+00 -0.00000000000E+00 -0.45593999997E+02  0.45594000000E+02  0.51100000000E-03 0.  1.
    9900012    2    1    2    0    0 -0.10057034373E+01 -0.36775584843E+00  0.49629064943E+00  0.90007750799E+02  0.90000012310E+02 0.  0.
        -12    1    1    2    0    0  0.10057034373E+01  0.36775584843E+00 -0.49629064943E+00  0.11802492010E+01  0.00000000000E+00 0.  1.
         11    1    3    3    0    0  0.32661938591E+02  0.23663889426E+01  0.20773969981E+02  0.38780921317E+02  0.51100000000E-03 0. -1.
        -11    1    3    3    0    0 -0.87619590886E+00 -0.58422545034E+01  0.64953065270E+01  0.87800150395E+01  0.51100000000E-03 0.  1.
        -12    1    3    3    0    0 -0.32791446119E+02  0.31081097124E+01 -0.26772985858E+02  0.42446814443E+02  0.00000000000E+00 0.  1.
</event>
<event>
 7    1  0.2641103E-015  0.9000772E+02  0.7816164E-02  0.1186339E+00
        -11   -1    0    0    0    0  0.00000000000E+00  0.00000000000E+00  0.45593999997E+02  0.45594000000E+02  0.51100000000E-03 0. -1.
         11   -1    0    0    0    0 -0.00000000000E+00 -0.00000000000E+00 -0.45593999997E+02  0.45594000000E+02  0.51100000000E-03 0.  1.
    9900012    2    1    2    0    0  0.52154563737E+00 -0.10223566754E+01  0.27537810778E+00  0.90007722013E+02  0.89999983144E+02 0.  0.
        -12    1    1    2    0    0 -0.52154563737E+00  0.10223566754E+01 -0.27537810778E+00  0.11802779867E+01  0.00000000000E+00 0.  1.
         11    1    3    3    0    0 -0.37660579564E+01  0.42936300126E+01  0.34243563395E+02  0.34716567882E+02  0.51100000000E-03 0. -1.
        -11    1    3    3    0    0  0.25060879806E+00  0.11817466034E+01  0.10298121977E+02  0.10368734075E+02  0.51100000000E-03 0.  1.
        -12    1    3    3    0    0  0.40369947958E+01 -0.64977332914E+01 -0.44266307264E+02  0.44922420057E+02  0.00000000000E+00 0.  1.
</event>
<event>
 7    1  0.2641103E-015  0.9000780E+02  0.7816164E-02  0.1186339E+00
        -11   -1    0    0    0    0  0.00000000000E+00  0.00000000000E+00  0.45593999997E+02  0.45594000000E+02  0.51100000000E-03 0.  1.
         11   -1    0    0    0    0 -0.00000000000E+00 -0.00000000000E+00 -0.45593999997E+02  0.45594000000E+02  0.51100000000E-03 0. -1.
    9900012    2    1    2    0    0  0.13652891907E+00 -0.89930878533E+00  0.75198774411E+00  0.90007795779E+02  0.90000057883E+02 0.  0.
        -12    1    1    2    0    0 -0.13652891907E+00  0.89930878533E+00 -0.75198774411E+00  0.11802042215E+01  0.00000000000E+00 0.  1.
         11    1    3    3    0    0 -0.23244180394E+02  0.38070568053E+01 -0.31092373389E+02  0.39006682593E+02  0.51100000000E-03 0. -1.
        -11    1    3    3    0    0  0.35834976045E+01  0.48275091061E+01 -0.51875510646E+01  0.79408428746E+01  0.51100000000E-03 0.  1.
        -12    1    3    3    0    0  0.19797211709E+02 -0.95338746967E+01  0.37031912198E+02  0.43060270310E+02  0.00000000000E+00 0.  1.
</event>
<event>
 8    1  0.2641103E-015  0.9000791E+02  0.7816164E-02  0.1186339E+00
        -11   -1    0    0    0    0  0.00000000000E+00  0.00000000000E+00  0.45593999997E+02  0.45594000000E+02  0.51100000000E-03 0.  1.
         11   -1    0    0    0    0 -0.00000000000E+00 -0.00000000000E+00 -0.45593999997E+02  0.45594000000E+02  0.51100000000E-03 0. -1.
    9900012    2    1    2    0    0  0.87527994311E+00 -0.70044077343E-01 -0.78841389991E+00  0.90007907788E+02  0.90000171370E+02 0.  0.
         23    2    3    3    0    0 -0.48650661991E+01 -0.51480047892E+00  0.26435040912E+02  0.62182274390E+02  0.56070401922E+02 0.  0.
        -12    1    1    2    0    0 -0.87527994311E+00  0.70044077343E-01  0.78841389991E+00  0.11800922121E+01  0.00000000000E+00 0.  1.
         11    1    4    4    0    0 -0.24447629987E+02  0.94533377818E+01 -0.19520403166E+01  0.26284266565E+02  0.51100000000E-03 0. -1.
        -11    1    4    4    0    0  0.19582563788E+02 -0.99681382607E+01  0.28387081228E+02  0.35898007825E+02  0.51100000000E-03 0.  1.
         12    1    3    3    0    0  0.57403461422E+01  0.44475640158E+00 -0.27223454812E+02  0.27825633398E+02  0.00000000000E+00 0. -1.
</event>
<event>
 7    1  0.2641103E-015  0.9000780E+02  0.7816164E-02  0.1186339E+00
        -11   -1    0    0    0    0  0.00000000000E+00  0.00000000000E+00  0.45593999997E+02  0.45594000000E+02  0.51100000000E-03 0.  1.
         11   -1    0    0    0    0 -0.00000000000E+00 -0.00000000000E+00 -0.45593999997E+02  0.45594000000E+02  0.51100000000E-03 0. -1.
    9900012    2    1    2    0    0  0.15961484437E+00  0.96007623345E+00 -0.66757776205E+00  0.90007795212E+02  0.90000057309E+02 0.  0.
        -12    1    1    2    0    0 -0.15961484437E+00 -0.96007623345E+00  0.66757776205E+00  0.11802047877E+01  0.00000000000E+00 0.  1.
         11    1    3    3    0    0  0.31797097062E+02  0.21209033844E+02 -0.13940849884E+00  0.38221694535E+02  0.51100000000E-03 0. -1.
        -11    1    3    3    0    0  0.65965752772E+01 -0.28880506410E+01  0.58955196252E+01  0.93065994759E+01  0.51100000000E-03 0.  1.
        -12    1    3    3    0    0 -0.38234057495E+02 -0.17360906969E+02 -0.64236888884E+01  0.42479501201E+02  0.00000000000E+00 0.  1.
</event>
<event>
 7    1  0.2641103E-015  0.9000772E+02  0.7816164E-02  0.1186339E+00
        -11   -1    0    0    0    0  0.00000000000E+00  0.00000000000E+00  0.45593999997E+02  0.45594000000E+02  0.51100000000E-03 0.  1.
         11   -1    0    0    0    0 -0.00000000000E+00 -0.00000000000E+00 -0.45593999997E+02  0.45594000000E+02  0.51100000000E-03 0. -1.
    9900012    2    1    2    0    0  0.22702906298E+00 -0.11509967110E+01  0.12935405520E+00  0.90007716942E+02  0.89999978006E+02 0.  0.
        -12    1    1    2    0    0 -0.22702906298E+00  0.11509967110E+01 -0.12935405520E+00  0.11802830575E+01  0.00000000000E+00 0.  1.
         11    1    3    3    0    0 -0.24632576246E+02  0.96817878293E+01 -0.21012909227E+01  0.26550258980E+02  0.51100000000E-03 0. -1.
        -11    1    3    3    0    0 -0.61391589078E+01  0.13571460192E+02  0.15821242932E+02  0.21729830464E+02  0.51100000000E-03 0.  1.
        -12    1    3    3    0    0  0.30998764217E+02 -0.24404244732E+02 -0.13590597954E+02  0.41727627499E+02  0.00000000000E+00 0.  1.
</event>
<event>
 7    1  0.2641103E-015  0.9000784E+02  0.7816164E-02  0.1186339E+00
        -11   -1    0    0    0    0  0.00000000000E+00  0.00000000000E+00  0.45593999997E+02  0.45594000000E+02  0.51100000000E-03 0.  1.
         11   -1    0    0    0    0 -0.00000000000E+00 -0.00000000000E+00 -0.45593999997E+02  0.45594000000E+02  0.51100000000E-03 0. -1.
    9900012    2    1    2    0    0 -0.73265146307E+00 -0.64014318403E+00 -0.66798986640E+00  0.90007842416E+02  0.90000105135E+02 0.  0.
        -12    1    1    2    0    0  0.73265146307E+00  0.64014318403E+00  0.66798986640E+00  0.11801575844E+01  0.00000000000E+00 0.  1.
         11    1    3    3    0    0  0.29024041562E+02  0.25136721646E+02  0.26292278034E+01  0.38485875368E+02  0.51100000000E-03 0. -1.
        -11    1    3    3    0    0  0.67159912262E+01 -0.21416823449E+01  0.28975069664E+01  0.76214754673E+01  0.51100000000E-03 0.  1.
        -12    1    3    3    0    0 -0.36472684252E+02 -0.23635182486E+02 -0.61947246361E+01  0.43900491580E+02  0.00000000000E+00 0.  1.
</event>
<event>
 7    1  0.2641103E-015  0.9000782E+02  0.7816164E-02  0.1186339E+00
        -11   -1    0    0    0    0  0.00000000000E+00  0.00000000000E+00  0.45593999997E+02  0.45594000000E+02  0.51100000000E-03 0.  1.
         11   -1    0    0    0    0 -0.00000000000E+00 -0.00000000000E+00 -0.45593999997E+02  0.45594000000E+02  0.51100000000E-03 0. -1.
    9900012    2    1    2    0    0 -0.93819426278E+00 -0.34641130554E+00  0.62659645865E+00  0.90007816798E+02  0.90000079180E+02 0.  0.
        -12    1    1    2    0    0  0.93819426278E+00  0.34641130554E+00 -0.62659645865E+00  0.11801832016E+01  0.00000000000E+00 0.  1.
         11    1    3    3    0    0  0.39677163575E+01  0.31014683271E+01  0.91738844776E+01  0.10465277614E+02  0.51100000000E-03 0. -1.
        -11    1    3    3    0    0  0.23818678456E+02 -0.16473995792E+02  0.21431395194E+02  0.36028137350E+02  0.51100000000E-03 0.  1.
         12    1    3    3    0    0 -0.28724589076E+02  0.13026116159E+02 -0.29978683213E+02  0.43514401834E+02  0.00000000000E+00 0. -1.
</event>
<event>
 7    1  0.2641103E-015  0.9000772E+02  0.7816164E-02  0.1186339E+00
        -11   -1    0    0    0    0  0.00000000000E+00  0.00000000000E+00  0.45593999997E+02  0.45594000000E+02  0.51100000000E-03 0. -1.
         11   -1    0    0    0    0 -0.00000000000E+00 -0.00000000000E+00 -0.45593999997E+02  0.45594000000E+02  0.51100000000E-03 0.  1.
    9900012    2    1    2    0    0  0.38251474103E+00 -0.41288730116E+00  0.10374330582E+01  0.90007720033E+02  0.89999981137E+02 0.  0.
        -12    1    1    2    0    0 -0.38251474103E+00  0.41288730116E+00 -0.10374330582E+01  0.11802799671E+01  0.00000000000E+00 0.  1.
         11    1    3    3    0    0  0.52800771589E+00  0.75878249773E+01  0.75293262737E+01  0.10702552706E+02  0.51100000000E-03 0. -1.
        -11    1    3    3    0    0 -0.29015794225E+02  0.15676204233E+01  0.22909389034E+02  0.37002889812E+02  0.51100000000E-03 0.  1.
         12    1    3    3    0    0  0.28870301250E+02 -0.95683327018E+01 -0.29401282250E+02  0.42302277514E+02  0.00000000000E+00 0. -1.
</event>
<event>
 7    1  0.2641103E-015  0.9000779E+02  0.7816164E-02  0.1186339E+00
        -11   -1    0    0    0    0  0.00000000000E+00  0.00000000000E+00  0.45593999997E+02  0.45594000000E+02  0.51100000000E-03 0.  1.
         11   -1    0    0    0    0 -0.00000000000E+00 -0.00000000000E+00 -0.45593999997E+02  0.45594000000E+02  0.51100000000E-03 0. -1.
    9900012    2    1    2    0    0 -0.10752331275E+01  0.48420786583E+00 -0.48000832580E-01  0.90007793401E+02  0.90000055474E+02 0.  0.
        -12    1    1    2    0    0  0.10752331275E+01 -0.48420786583E+00  0.48000832580E-01  0.11802065987E+01  0.00000000000E+00 0.  1.
         11    1    3    3    0    0 -0.32625949926E+02  0.14779491042E+02 -0.13604171782E+02  0.38313958998E+02  0.51100000000E-03 0. -1.
        -11    1    3    3    0    0 -0.57364474761E+01  0.10217556220E+01  0.95466339379E+01  0.11184320900E+02  0.51100000000E-03 0.  1.
        -12    1    3    3    0    0  0.37287164274E+02 -0.15317038798E+02  0.40095370113E+01  0.40509513502E+02  0.00000000000E+00 0.  1.
</event>
<event>
 7    1  0.2641103E-015  0.9000776E+02  0.7816164E-02  0.1186339E+00
        -11   -1    0    0    0    0  0.00000000000E+00  0.00000000000E+00  0.45593999997E+02  0.45594000000E+02  0.51100000000E-03 0. -1.
         11   -1    0    0    0    0 -0.00000000000E+00 -0.00000000000E+00 -0.45593999997E+02  0.45594000000E+02  0.51100000000E-03 0.  1.
    9900012    2    1    2    0    0  0.83816502593E-01  0.11660950892E+01  0.16175634641E+00  0.90007759313E+02  0.90000020936E+02 0.  0.
        -12    1    1    2    0    0 -0.83816502593E-01 -0.11660950892E+01 -0.16175634641E+00  0.11802406868E+01  0.00000000000E+00 0.  1.
         11    1    3    3    0    0 -0.58964925448E+01 -0.66862599713E+01  0.43616697075E+01  0.99246591696E+01  0.51100000000E-03 0. -1.
        -11    1    3    3    0    0 -0.82927529907E+01 -0.33942019211E+02  0.39843399145E+01  0.35166822221E+02  0.51100000000E-03 0.  1.
         12    1    3    3    0    0  0.14273062038E+02  0.41794374272E+02 -0.81842532756E+01  0.44916277922E+02  0.00000000000E+00 0. -1.
</event>
<event>
 7    1  0.2641103E-015  0.9000775E+02  0.7816164E-02  0.1186339E+00
        -11   -1    0    0    0    0  0.00000000000E+00  0.00000000000E+00  0.45593999997E+02  0.45594000000E+02  0.51100000000E-03 0. -1.
         11   -1    0    0    0    0 -0.00000000000E+00 -0.00000000000E+00 -0.45593999997E+02  0.45594000000E+02  0.51100000000E-03 0.  1.
    9900012    2    1    2    0    0  0.90873692361E+00  0.63725382688E+00  0.40137216812E+00  0.90007747970E+02  0.90000009444E+02 0.  0.
        -12    1    1    2    0    0 -0.90873692361E+00 -0.63725382688E+00 -0.40137216812E+00  0.11802520297E+01  0.00000000000E+00 0.  1.
         11    1    3    3    0    0  0.77101389564E+01 -0.23655342058E+01  0.59305196095E+01  0.10010647227E+02  0.51100000000E-03 0. -1.
        -11    1    3    3    0    0  0.34205956629E+02  0.14178975820E+02  0.73118438952E+00  0.37035462128E+02  0.51100000000E-03 0.  1.
         12    1    3    3    0    0 -0.41007358661E+02 -0.11176187787E+02 -0.62603318309E+01  0.42961638615E+02  0.00000000000E+00 0. -1.
</event>
<event>
 7    1  0.2641103E-015  0.9000777E+02  0.7816164E-02  0.1186339E+00
        -11   -1    0    0    0    0  0.00000000000E+00  0.00000000000E+00  0.45593999997E+02  0.45594000000E+02  0.51100000000E-03 0.  1.
         11   -1    0    0    0    0 -0.00000000000E+00 -0.00000000000E+00 -0.45593999997E+02  0.45594000000E+02  0.51100000000E-03 0. -1.
    9900012    2    1    2    0    0 -0.65146380971E-01  0.84082941134E+00 -0.82565553719E+00  0.90007768999E+02  0.90000030750E+02 0.  0.
        -12    1    1    2    0    0  0.65146380971E-01 -0.84082941134E+00  0.82565553719E+00  0.11802310011E+01  0.00000000000E+00 0.  1.
         11    1    3    3    0    0  0.13534066457E+02  0.64655053037E+01 -0.11116616628E+02  0.18669570943E+02  0.51100000000E-03 0. -1.
        -11    1    3    3    0    0 -0.16161680997E+02  0.30161349256E+02  0.80624087811E+00  0.34228014056E+02  0.51100000000E-03 0.  1.
         12    1    3    3    0    0  0.25624681585E+01 -0.35786025148E+02  0.94847202123E+01  0.37110184000E+02  0.00000000000E+00 0. -1.
</event>
<event>
 7    1  0.2641103E-015  0.9000770E+02  0.7816164E-02  0.1186339E+00
        -11   -1    0    0    0    0  0.00000000000E+00  0.00000000000E+00  0.45593999997E+02  0.45594000000E+02  0.51100000000E-03 0. -1.
         11   -1    0    0    0    0 -0.00000000000E+00 -0.00000000000E+00 -0.45593999997E+02  0.45594000000E+02  0.51100000000E-03 0.  1.
    9900012    2    1    2    0    0 -0.22487869182E+00  0.11416715794E+01 -0.19778404396E+00  0.90007702178E+02  0.89999963046E+02 0.  0.
        -12    1    1    2    0    0  0.22487869182E+00 -0.11416715794E+01  0.19778404396E+00  0.11802978223E+01  0.00000000000E+00 0.  1.
         11    1    3    3    0    0 -0.37969961554E+02 -0.86184271260E+01 -0.17594283775E+02  0.42726503348E+02  0.51100000000E-03 0. -1.
        -11    1    3    3    0    0  0.40850963135E+01 -0.86269960921E+00  0.10523941134E+02  0.11321907955E+02  0.51100000000E-03 0.  1.
        -12    1    3    3    0    0  0.33659986549E+02  0.10622798315E+02  0.68725585976E+01  0.35959290874E+02  0.00000000000E+00 0.  1.
</event>
<event>
 7    1  0.2641103E-015  0.9000779E+02  0.7816164E-02  0.1186339E+00
        -11   -1    0    0    0    0  0.00000000000E+00  0.00000000000E+00  0.45593999997E+02  0.45594000000E+02  0.51100000000E-03 0.  1.
         11   -1    0    0    0    0 -0.00000000000E+00 -0.00000000000E+00 -0.45593999997E+02  0.45594000000E+02  0.51100000000E-03 0. -1.
    9900012    2    1    2    0    0  0.66741408319E-01 -0.10313973903E+01  0.56977998064E+00  0.90007794840E+02  0.90000056932E+02 0.  0.
        -12    1    1    2    0    0 -0.66741408319E-01  0.10313973903E+01 -0.56977998064E+00  0.11802051596E+01  0.00000000000E+00 0.  1.
         11    1    3    3    0    0  0.65719660653E+01  0.65264199879E+01 -0.34015369016E+01  0.98668814413E+01  0.51100000000E-03 0. -1.
        -11    1    3    3    0    0  0.25179362573E+02 -0.11431187346E+02  0.28631016919E+02  0.39804616237E+02  0.51100000000E-03 0.  1.
         12    1    3    3    0    0 -0.31684587230E+02  0.38733699674E+01 -0.24659700037E+02  0.40336297162E+02  0.00000000000E+00 0. -1.
</event>
<event>
 7    1  0.2641103E-015  0.9000773E+02  0.7816164E-02  0.1186339E+00
        -11   -1    0    0    0    0  0.00000000000E+00  0.00000000000E+00  0.45593999997E+02  0.45594000000E+02  0.51100000000E-03 0. -1.
         11   -1    0    0    0    0 -0.00000000000E+00 -0.00000000000E+00 -0.45593999997E+02  0.45594000000E+02  0.51100000000E-03 0.  1.
    9900012    2    1    2    0    0 -0.96101680668E+00 -0.68235957054E+00 -0.62120615082E-01  0.90007734412E+02  0.89999995707E+02 0.  0.
        -12    1    1    2    0    0  0.96101680668E+00  0.68235957054E+00  0.62120615082E-01  0.11802655875E+01  0.00000000000E+00 0.  1.
         11    1    3    3    0    0  0.11747886097E+01 -0.34868232803E+02 -0.21404212502E+01  0.34953614842E+02  0.51100000000E-03 0. -1.
        -11    1    3    3    0    0 -0.12895946991E+02 -0.52233285051E+01 -0.17506594609E+01  0.14023316950E+02  0.51100000000E-03 0.  1.
        -12    1    3    3    0    0  0.10760141574E+02  0.39409201738E+02  0.38289600960E+01  0.41030802621E+02  0.00000000000E+00 0.  1.
</event>
<event>
 7    1  0.2641103E-015  0.9000774E+02  0.7816164E-02  0.1186339E+00
        -11   -1    0    0    0    0  0.00000000000E+00  0.00000000000E+00  0.45593999997E+02  0.45594000000E+02  0.51100000000E-03 0.  1.
         11   -1    0    0    0    0 -0.00000000000E+00 -0.00000000000E+00 -0.45593999997E+02  0.45594000000E+02  0.51100000000E-03 0. -1.
    9900012    2    1    2    0    0 -0.10979944916E+01 -0.31594436053E+00 -0.29595528837E+00  0.90007744826E+02  0.90000006258E+02 0.  0.
        -12    1    1    2    0    0  0.10979944916E+01  0.31594436053E+00  0.29595528837E+00  0.11802551737E+01  0.00000000000E+00 0.  1.
         11    1    3    3    0    0 -0.34482894234E+01 -0.56733695255E+01  0.86698224620E+01  0.10919873786E+02  0.51100000000E-03 0. -1.
        -11    1    3    3    0    0 -0.33246747026E+01  0.10020484587E+02  0.33947100495E+02  0.35550938181E+02  0.51100000000E-03 0.  1.
         12    1    3    3    0    0  0.56749696345E+01 -0.46630594219E+01 -0.42912878245E+02  0.43536932860E+02  0.00000000000E+00 0. -1.
</event>
<event>
 7    1  0.2864192E-015  0.9000767E+02  0.7816164E-02  0.1186339E+00
        -11   -1    0    0    0    0  0.00000000000E+00  0.00000000000E+00  0.45593999997E+02  0.45594000000E+02  0.51100000000E-03 0.  1.
         11   -1    0    0    0    0 -0.00000000000E+00 -0.00000000000E+00 -0.45593999997E+02  0.45594000000E+02  0.51100000000E-03 0. -1.
    9900012    2    1    2    0    0  0.84951620025E+00  0.27421898275E+00 -0.77220210531E+00  0.90007673809E+02  0.89999934304E+02 0.  0.
        -12    1    1    2    0    0 -0.84951620025E+00 -0.27421898275E+00  0.77220210531E+00  0.11803261907E+01  0.00000000000E+00 0.  1.
         11    1    3    3    0    0  0.15462187326E+01 -0.72003994299E+01  0.59818515491E+01  0.94878391921E+01  0.51100000000E-03 0. -1.
        -11    1    3    3    0    0  0.20525430674E+02  0.23042421171E+02  0.24685704845E+02  0.39517470843E+02  0.51100000000E-03 0.  1.
         12    1    3    3    0    0 -0.21222133207E+02 -0.15567802759E+02 -0.31439758500E+02  0.41002363775E+02  0.00000000000E+00 0. -1.
</event>
<event>
 7    1  0.2641103E-015  0.9000771E+02  0.7816164E-02  0.1186339E+00
        -11   -1    0    0    0    0  0.00000000000E+00  0.00000000000E+00  0.45593999997E+02  0.45594000000E+02  0.51100000000E-03 0.  1.
         11   -1    0    0    0    0 -0.00000000000E+00 -0.00000000000E+00 -0.45593999997E+02  0.45594000000E+02  0.51100000000E-03 0. -1.
    9900012    2    1    2    0    0  0.11155131598E+01 -0.25280633050E+00  0.29122434554E+00  0.90007706702E+02  0.89999967630E+02 0.  0.
        -12    1    1    2    0    0 -0.11155131598E+01  0.25280633050E+00 -0.29122434554E+00  0.11802932983E+01  0.00000000000E+00 0.  1.
         11    1    3    3    0    0  0.36541557032E+01  0.94574944590E-02  0.54130415441E+01  0.65310001046E+01  0.51100000000E-03 0. -1.
        -11    1    3    3    0    0 -0.11532631107E+02 -0.35969433030E+02  0.16005042803E+02  0.41023933114E+02  0.51100000000E-03 0.  1.
         12    1    3    3    0    0  0.89939885638E+01  0.35707169205E+02 -0.21126860002E+02  0.42452773483E+02  0.00000000000E+00 0. -1.
</event>
<event>
 7    1  0.2641103E-015  0.9000845E+02  0.7816164E-02  0.1186338E+00
        -11   -1    0    0    0    0  0.00000000000E+00  0.00000000000E+00  0.45593999997E+02  0.45594000000E+02  0.51100000000E-03 0.  1.
         11   -1    0    0    0    0 -0.00000000000E+00 -0.00000000000E+00 -0.45593999997E+02  0.45594000000E+02  0.51100000000E-03 0. -1.
    9900012    2    1    2    0    0 -0.56449239699E+00  0.93785585273E+00  0.43944680677E+00  0.90008449763E+02  0.90000720496E+02 0.  0.
        -12    1    1    2    0    0  0.56449239699E+00 -0.93785585273E+00 -0.43944680677E+00  0.11795502375E+01  0.00000000000E+00 0.  1.
         11    1    3    3    0    0 -0.66502633314E+00  0.96289076091E+00  0.99824714006E+01  0.10050828531E+02  0.51100000000E-03 0. -1.
        -11    1    3    3    0    0 -0.34577453289E+02 -0.11416192100E+02  0.11043921753E+02  0.38051253934E+02  0.51100000000E-03 0.  1.
         12    1    3    3    0    0  0.34677987225E+02  0.11391157192E+02 -0.20586946347E+02  0.41906367297E+02  0.00000000000E+00 0. -1.
</event>
<event>
 7    1  0.2641103E-015  0.9000806E+02  0.7816164E-02  0.1186338E+00
        -11   -1    0    0    0    0  0.00000000000E+00  0.00000000000E+00  0.45593999997E+02  0.45594000000E+02  0.51100000000E-03 0.  1.
         11   -1    0    0    0    0 -0.00000000000E+00 -0.00000000000E+00 -0.45593999997E+02  0.45594000000E+02  0.51100000000E-03 0. -1.
    9900012    2    1    2    0    0  0.10157144272E+01  0.55482112402E+00  0.22966303739E+00  0.90008064668E+02  0.90000330321E+02 0.  0.
        -12    1    1    2    0    0 -0.10157144272E+01 -0.55482112402E+00 -0.22966303739E+00  0.11799353322E+01  0.00000000000E+00 0.  1.
         11    1    3    3    0    0  0.21286935513E+02 -0.11685619764E+02 -0.16650724363E+02  0.29443742203E+02  0.51100000000E-03 0. -1.
        -11    1    3    3    0    0 -0.98633501877E+01 -0.18161657887E+02  0.19380969734E+02  0.28332904585E+02  0.51100000000E-03 0.  1.
        -12    1    3    3    0    0 -0.10407870898E+02  0.30402098775E+02 -0.25005823331E+01  0.32231417880E+02  0.00000000000E+00 0.  1.
</event>
<event>
 7    1  0.2641103E-015  0.9000768E+02  0.7816164E-02  0.1186339E+00
        -11   -1    0    0    0    0  0.00000000000E+00  0.00000000000E+00  0.45593999997E+02  0.45594000000E+02  0.51100000000E-03 0. -1.
         11   -1    0    0    0    0 -0.00000000000E+00 -0.00000000000E+00 -0.45593999997E+02  0.45594000000E+02  0.51100000000E-03 0.  1.
    9900012    2    1    2    0    0 -0.63892712777E+00 -0.16863281747E+00  0.97800106459E+00  0.90007681829E+02  0.89999942429E+02 0.  0.
        -12    1    1    2    0    0  0.63892712777E+00  0.16863281747E+00 -0.97800106459E+00  0.11803181707E+01  0.00000000000E+00 0.  1.
         11    1    3    3    0    0 -0.10328403757E+01 -0.55166210462E+01  0.79854985514E-01  0.56130423202E+01  0.51100000000E-03 0. -1.
        -11    1    3    3    0    0  0.28971354859E+02 -0.19338363806E+02 -0.21066781825E+02  0.40707751274E+02  0.51100000000E-03 0.  1.
         12    1    3    3    0    0 -0.28577441611E+02  0.24686352035E+02  0.21964927904E+02  0.43686888235E+02  0.00000000000E+00 0. -1.
</event>
<event>
 7    1  0.2641103E-015  0.9000692E+02  0.7816164E-02  0.1186341E+00
        -11   -1    0    0    0    0  0.00000000000E+00  0.00000000000E+00  0.45593999997E+02  0.45594000000E+02  0.51100000000E-03 0. -1.
         11   -1    0    0    0    0 -0.00000000000E+00 -0.00000000000E+00 -0.45593999997E+02  0.45594000000E+02  0.51100000000E-03 0.  1.
    9900012    2    1    2    0    0 -0.58426592276E+00  0.37041402056E+00  0.95727801052E+00  0.90006918121E+02  0.89999168637E+02 0.  0.
        -12    1    1    2    0    0  0.58426592276E+00 -0.37041402056E+00 -0.95727801052E+00  0.11810818789E+01  0.00000000000E+00 0.  1.
         11    1    3    3    0    0  0.88535629550E+01 -0.41269693420E+01  0.26927137059E+01  0.10132529808E+02  0.51100000000E-03 0. -1.
        -11    1    3    3    0    0 -0.22623442696E+02  0.18481830936E+02 -0.32437002682E+02  0.43652690380E+02  0.51100000000E-03 0.  1.
         12    1    3    3    0    0  0.13185613819E+02 -0.13984447573E+02  0.30701566986E+02  0.36221697933E+02  0.00000000000E+00 0. -1.
</event>
<event>
 7    1  0.2641103E-015  0.9000776E+02  0.7816164E-02  0.1186339E+00
        -11   -1    0    0    0    0  0.00000000000E+00  0.00000000000E+00  0.45593999997E+02  0.45594000000E+02  0.51100000000E-03 0. -1.
         11   -1    0    0    0    0 -0.00000000000E+00 -0.00000000000E+00 -0.45593999997E+02  0.45594000000E+02  0.51100000000E-03 0.  1.
    9900012    2    1    2    0    0 -0.84452033314E+00  0.52571294954E+00  0.63511111958E+00  0.90007764925E+02  0.90000026622E+02 0.  0.
        -12    1    1    2    0    0  0.84452033314E+00 -0.52571294954E+00 -0.63511111958E+00  0.11802350752E+01  0.00000000000E+00 0.  1.
         11    1    3    3    0    0 -0.32301850843E+01  0.63261654556E+01  0.39187957971E+01  0.81124241636E+01  0.51100000000E-03 0. -1.
        -11    1    3    3    0    0 -0.30845127227E+02  0.35015459282E+01 -0.26074076505E+02  0.40540598953E+02  0.51100000000E-03 0.  1.
         12    1    3    3    0    0  0.33230791979E+02 -0.93019984343E+01  0.22790391828E+02  0.41354741809E+02  0.00000000000E+00 0. -1.
</event>
<event>
 7    1  0.2641103E-015  0.9000775E+02  0.7816164E-02  0.1186339E+00
        -11   -1    0    0    0    0  0.00000000000E+00  0.00000000000E+00  0.45593999997E+02  0.45594000000E+02  0.51100000000E-03 0.  1.
         11   -1    0    0    0    0 -0.00000000000E+00 -0.00000000000E+00 -0.45593999997E+02  0.45594000000E+02  0.51100000000E-03 0. -1.
    9900012    2    1    2    0    0 -0.28247600628E+00  0.97151101650E+00 -0.60775747717E+00  0.90007747696E+02  0.90000009166E+02 0.  0.
        -12    1    1    2    0    0  0.28247600628E+00 -0.97151101650E+00  0.60775747717E+00  0.11802523037E+01  0.00000000000E+00 0.  1.
         11    1    3    3    0    0 -0.66630239165E+01  0.45957524251E+01  0.56462208768E+01  0.98689735290E+01  0.51100000000E-03 0. -1.
        -11    1    3    3    0    0 -0.14205149426E+01  0.30647372587E+02  0.19687698242E+02  0.36453871831E+02  0.51100000000E-03 0.  1.
         12    1    3    3    0    0  0.78010628529E+01 -0.34271613995E+02 -0.25941676596E+02  0.43684902336E+02  0.00000000000E+00 0. -1.
</event>
<event>
 7    1  0.2641103E-015  0.9000772E+02  0.7816164E-02  0.1186339E+00
        -11   -1    0    0    0    0  0.00000000000E+00  0.00000000000E+00  0.45593999997E+02  0.45594000000E+02  0.51100000000E-03 0.  1.
         11   -1    0    0    0    0 -0.00000000000E+00 -0.00000000000E+00 -0.45593999997E+02  0.45594000000E+02  0.51100000000E-03 0. -1.
    9900012    2    1    2    0    0  0.11230869413E+01  0.30849347885E+00 -0.19125331128E+00  0.90007715995E+02  0.89999977046E+02 0.  0.
        -12    1    1    2    0    0 -0.11230869413E+01 -0.30849347885E+00  0.19125331128E+00  0.11802840053E+01  0.00000000000E+00 0.  1.
         11    1    3    3    0    0 -0.28766503413E+02  0.20312287441E+02 -0.18982446672E+02  0.40005424902E+02  0.51100000000E-03 0. -1.
        -11    1    3    3    0    0  0.57062352212E+01  0.69205365159E+01 -0.51455502053E+00  0.89844150170E+01  0.51100000000E-03 0.  1.
        -12    1    3    3    0    0  0.24183355133E+02 -0.26924330478E+02  0.19305748382E+02  0.41017876075E+02  0.00000000000E+00 0.  1.
</event>
<event>
 7    1  0.2641103E-015  0.9000779E+02  0.7816164E-02  0.1186339E+00
        -11   -1    0    0    0    0  0.00000000000E+00  0.00000000000E+00  0.45593999997E+02  0.45594000000E+02  0.51100000000E-03 0.  1.
         11   -1    0    0    0    0 -0.00000000000E+00 -0.00000000000E+00 -0.45593999997E+02  0.45594000000E+02  0.51100000000E-03 0. -1.
    9900012    2    1    2    0    0 -0.10311322254E+01  0.24228802161E+00 -0.52053716142E+00  0.90007789812E+02  0.90000051837E+02 0.  0.
        -12    1    1    2    0    0  0.10311322254E+01 -0.24228802161E+00  0.52053716142E+00  0.11802101881E+01  0.00000000000E+00 0.  1.
         11    1    3    3    0    0  0.90047502418E+01  0.24573668600E+02 -0.29084895426E+02  0.39126485372E+02  0.51100000000E-03 0. -1.
        -11    1    3    3    0    0  0.98692167776E+00 -0.67644660818E+01 -0.69541170179E+01  0.97515003733E+01  0.51100000000E-03 0.  1.
        -12    1    3    3    0    0 -0.11022804145E+02 -0.17566914497E+02  0.35518475282E+02  0.41129804066E+02  0.00000000000E+00 0.  1.
</event>
<event>
 7    1  0.2641103E-015  0.9000776E+02  0.7816164E-02  0.1186339E+00
        -11   -1    0    0    0    0  0.00000000000E+00  0.00000000000E+00  0.45593999997E+02  0.45594000000E+02  0.51100000000E-03 0. -1.
         11   -1    0    0    0    0 -0.00000000000E+00 -0.00000000000E+00 -0.45593999997E+02  0.45594000000E+02  0.51100000000E-03 0.  1.
    9900012    2    1    2    0    0  0.32399387732E+00  0.19398984698E+00  0.11181992294E+01  0.90007756970E+02  0.90000018562E+02 0.  0.
        -12    1    1    2    0    0 -0.32399387732E+00 -0.19398984698E+00 -0.11181992294E+01  0.11802430300E+01  0.00000000000E+00 0.  1.
         11    1    3    3    0    0 -0.52868739100E+01  0.32909073134E+02  0.16966596091E+02  0.37400849100E+02  0.51100000000E-03 0. -1.
        -11    1    3    3    0    0  0.12054147063E+01  0.79924875319E+01  0.13527054349E+01  0.81952848527E+01  0.51100000000E-03 0.  1.
        -12    1    3    3    0    0  0.44054530810E+01 -0.40707570819E+02 -0.17201102296E+02  0.44411623017E+02  0.00000000000E+00 0.  1.
</event>
<event>
 7    1  0.2641103E-015  0.9000779E+02  0.7816164E-02  0.1186339E+00
        -11   -1    0    0    0    0  0.00000000000E+00  0.00000000000E+00  0.45593999997E+02  0.45594000000E+02  0.51100000000E-03 0. -1.
         11   -1    0    0    0    0 -0.00000000000E+00 -0.00000000000E+00 -0.45593999997E+02  0.45594000000E+02  0.51100000000E-03 0.  1.
    9900012    2    1    2    0    0 -0.57808029500E+00 -0.43546781757E+00  0.93224873417E+00  0.90007789531E+02  0.90000051553E+02 0.  0.
        -12    1    1    2    0    0  0.57808029500E+00  0.43546781757E+00 -0.93224873417E+00  0.11802104685E+01  0.00000000000E+00 0.  1.
         11    1    3    3    0    0  0.27238004371E+02 -0.13543139847E+02  0.24973198600E+02  0.39357161580E+02  0.51100000000E-03 0. -1.
        -11    1    3    3    0    0 -0.19821483220E+00 -0.91145305797E+01 -0.43634724258E+01  0.10107118713E+02  0.51100000000E-03 0.  1.
        -12    1    3    3    0    0 -0.27617869834E+02  0.22222202609E+02 -0.19677477440E+02  0.40543509239E+02  0.00000000000E+00 0.  1.
</event>
<event>
 7    1  0.2641103E-015  0.9000770E+02  0.7816164E-02  0.1186339E+00
        -11   -1    0    0    0    0  0.00000000000E+00  0.00000000000E+00  0.45593999997E+02  0.45594000000E+02  0.51100000000E-03 0.  1.
         11   -1    0    0    0    0 -0.00000000000E+00 -0.00000000000E+00 -0.45593999997E+02  0.45594000000E+02  0.51100000000E-03 0. -1.
    9900012    2    1    2    0    0  0.17483647119E+00  0.11637760082E+01  0.90426047772E-01  0.90007695269E+02  0.89999956046E+02 0.  0.
        -12    1    1    2    0    0 -0.17483647119E+00 -0.11637760082E+01 -0.90426047772E-01  0.11803047315E+01  0.00000000000E+00 0.  1.
         11    1    3    3    0    0  0.33188445557E+01 -0.43668321030E+01 -0.48935406249E+01  0.73505572516E+01  0.51100000000E-03 0. -1.
        -11    1    3    3    0    0  0.38641495925E+02 -0.50601384716E+01  0.65694648007E+01  0.39521235769E+02  0.51100000000E-03 0.  1.
         12    1    3    3    0    0 -0.41785504009E+02  0.10590746583E+02 -0.15854981280E+01  0.43135902248E+02  0.00000000000E+00 0. -1.
</event>
<event>
 7    1  0.2641103E-015  0.9000775E+02  0.7816164E-02  0.1186339E+00
        -11   -1    0    0    0    0  0.00000000000E+00  0.00000000000E+00  0.45593999997E+02  0.45594000000E+02  0.51100000000E-03 0.  1.
         11   -1    0    0    0    0 -0.00000000000E+00 -0.00000000000E+00 -0.45593999997E+02  0.45594000000E+02  0.51100000000E-03 0. -1.
    9900012    2    1    2    0    0 -0.90034648845E+00 -0.60117021043E+00  0.47006618094E+00  0.90007749334E+02  0.90000010825E+02 0.  0.
        -12    1    1    2    0    0  0.90034648845E+00  0.60117021043E+00 -0.47006618094E+00  0.11802506664E+01  0.00000000000E+00 0.  1.
         11    1    3    3    0    0  0.30361651048E+02 -0.15025063171E+02 -0.11005143936E+02  0.35618753080E+02  0.51100000000E-03 0. -1.
        -11    1    3    3    0    0 -0.19981882664E+02 -0.12774878074E+02  0.54091427569E+01  0.24325541520E+02  0.51100000000E-03 0.  1.
        -12    1    3    3    0    0 -0.11280114872E+02  0.27198771035E+02  0.60660673601E+01  0.30063454734E+02  0.00000000000E+00 0.  1.
</event>
<event>
 7    1  0.2641103E-015  0.9000656E+02  0.7816164E-02  0.1186341E+00
        -11   -1    0    0    0    0  0.00000000000E+00  0.00000000000E+00  0.45593999997E+02  0.45594000000E+02  0.51100000000E-03 0. -1.
         11   -1    0    0    0    0 -0.00000000000E+00 -0.00000000000E+00 -0.45593999997E+02  0.45594000000E+02  0.51100000000E-03 0.  1.
    9900012    2    1    2    0    0  0.54882063417E+00 -0.89280806317E+00  0.54543468588E+00  0.90006556255E+02  0.89998801990E+02 0.  0.
        -12    1    1    2    0    0 -0.54882063417E+00  0.89280806317E+00 -0.54543468588E+00  0.11814437451E+01  0.00000000000E+00 0.  1.
         11    1    3    3    0    0 -0.33931442908E+02  0.13755404089E+02  0.19057529552E+01  0.36663140265E+02  0.51100000000E-03 0. -1.
        -11    1    3    3    0    0 -0.33081984254E+01  0.40745615810E+01 -0.90633261803E+01  0.10473304665E+02  0.51100000000E-03 0.  1.
        -12    1    3    3    0    0  0.37788461968E+02 -0.18722773733E+02  0.77030079111E+01  0.42870111325E+02  0.00000000000E+00 0.  1.
</event>
<event>
 7    1  0.2641103E-015  0.9000775E+02  0.7816164E-02  0.1186339E+00
        -11   -1    0    0    0    0  0.00000000000E+00  0.00000000000E+00  0.45593999997E+02  0.45594000000E+02  0.51100000000E-03 0.  1.
         11   -1    0    0    0    0 -0.00000000000E+00 -0.00000000000E+00 -0.45593999997E+02  0.45594000000E+02  0.51100000000E-03 0. -1.
    9900012    2    1    2    0    0 -0.26710148434E+00  0.11428303293E+01 -0.12488006393E+00  0.90007746046E+02  0.90000007494E+02 0.  0.
        -12    1    1    2    0    0  0.26710148434E+00 -0.11428303293E+01  0.12488006393E+00  0.11802539536E+01  0.00000000000E+00 0.  1.
         11    1    3    3    0    0  0.37242825875E+02  0.91398372744E+01  0.19966497659E+02  0.43234543291E+02  0.51100000000E-03 0. -1.
        -11    1    3    3    0    0 -0.86795437990E+01 -0.23853369087E-01  0.27852345165E+01  0.91155132119E+01  0.51100000000E-03 0.  1.
        -12    1    3    3    0    0 -0.28830383561E+02 -0.79731535760E+01 -0.22876612239E+02  0.37657689543E+02  0.00000000000E+00 0.  1.
</event>
<event>
 7    1  0.2641103E-015  0.9000779E+02  0.7816164E-02  0.1186339E+00
        -11   -1    0    0    0    0  0.00000000000E+00  0.00000000000E+00  0.45593999997E+02  0.45594000000E+02  0.51100000000E-03 0. -1.
         11   -1    0    0    0    0 -0.00000000000E+00 -0.00000000000E+00 -0.45593999997E+02  0.45594000000E+02  0.51100000000E-03 0.  1.
    9900012    2    1    2    0    0  0.35318337780E+00 -0.35391267795E+00  0.10690691361E+01  0.90007787519E+02  0.90000049514E+02 0.  0.
        -12    1    1    2    0    0 -0.35318337780E+00  0.35391267795E+00 -0.10690691361E+01  0.11802124808E+01  0.00000000000E+00 0.  1.
         11    1    3    3    0    0 -0.25315298671E+01  0.65991147264E+01 -0.76862416138E+01  0.10441995453E+02  0.51100000000E-03 0. -1.
        -11    1    3    3    0    0  0.40083242151E+01  0.14922552513E+02 -0.30738894775E+02  0.34403908045E+02  0.51100000000E-03 0.  1.
         12    1    3    3    0    0 -0.11236109702E+01 -0.21875579917E+02  0.39494205525E+02  0.45161884021E+02  0.00000000000E+00 0. -1.
</event>
<event>
 7    1  0.2641103E-015  0.9000753E+02  0.7816164E-02  0.1186339E+00
        -11   -1    0    0    0    0  0.00000000000E+00  0.00000000000E+00  0.45593999997E+02  0.45594000000E+02  0.51100000000E-03 0.  1.
         11   -1    0    0    0    0 -0.00000000000E+00 -0.00000000000E+00 -0.45593999997E+02  0.45594000000E+02  0.51100000000E-03 0. -1.
    9900012    2    1    2    0    0  0.93128134172E+00 -0.72539201138E+00 -0.52994102393E-02  0.90007531198E+02  0.89999789810E+02 0.  0.
        -12    1    1    2    0    0 -0.93128134172E+00  0.72539201138E+00  0.52994102393E-02  0.11804688015E+01  0.00000000000E+00 0.  1.
         11    1    3    3    0    0  0.21742101455E+01  0.87459880041E+01  0.43494520682E+01  0.10006859122E+02  0.51100000000E-03 0. -1.
        -11    1    3    3    0    0  0.19202580897E+02 -0.15803573220E+00  0.31967340730E+02  0.37291754612E+02  0.51100000000E-03 0.  1.
         12    1    3    3    0    0 -0.20445509700E+02 -0.93133442832E+01 -0.36322092209E+02  0.42708917465E+02  0.00000000000E+00 0. -1.
</event>
<event>
 7    1  0.2641103E-015  0.9000775E+02  0.7816164E-02  0.1186339E+00
        -11   -1    0    0    0    0  0.00000000000E+00  0.00000000000E+00  0.45593999997E+02  0.45594000000E+02  0.51100000000E-03 0. -1.
         11   -1    0    0    0    0 -0.00000000000E+00 -0.00000000000E+00 -0.45593999997E+02  0.45594000000E+02  0.51100000000E-03 0.  1.
    9900012    2    1    2    0    0  0.36521836114E+00  0.15521082494E+00  0.11115378171E+01  0.90007749531E+02  0.90000011024E+02 0.  0.
        -12    1    1    2    0    0 -0.36521836114E+00 -0.15521082494E+00 -0.11115378171E+01  0.11802504694E+01  0.00000000000E+00 0.  1.
         11    1    3    3    0    0  0.10637326991E+02 -0.46775201894E+01  0.70494502738E+01  0.13591418986E+02  0.51100000000E-03 0. -1.
        -11    1    3    3    0    0  0.30804652845E+02  0.73303451221E+01 -0.13762706429E+02  0.34526405620E+02  0.51100000000E-03 0.  1.
         12    1    3    3    0    0 -0.41076761475E+02 -0.24976141078E+01  0.78247939728E+01  0.41889924925E+02  0.00000000000E+00 0. -1.
</event>
<event>
 7    1  0.2641103E-015  0.9000772E+02  0.7816164E-02  0.1186339E+00
        -11   -1    0    0    0    0  0.00000000000E+00  0.00000000000E+00  0.45593999997E+02  0.45594000000E+02  0.51100000000E-03 0. -1.
         11   -1    0    0    0    0 -0.00000000000E+00 -0.00000000000E+00 -0.45593999997E+02  0.45594000000E+02  0.51100000000E-03 0.  1.
    9900012    2    1    2    0    0 -0.67862049768E+00 -0.96366123614E+00 -0.62424191754E-01  0.90007718026E+02  0.89999979104E+02 0.  0.
        -12    1    1    2    0    0  0.67862049768E+00  0.96366123614E+00  0.62424191754E-01  0.11802819738E+01  0.00000000000E+00 0.  1.
         11    1    3    3    0    0  0.83689404662E+01  0.53439878325E+00  0.68228544013E+01  0.10810924522E+02  0.51100000000E-03 0. -1.
        -11    1    3    3    0    0  0.84713564261E+01  0.19247094534E+02 -0.34541580229E+02  0.40439279082E+02  0.51100000000E-03 0.  1.
         12    1    3    3    0    0 -0.17518917390E+02 -0.20745154554E+02  0.27656301636E+02  0.38757514422E+02  0.00000000000E+00 0. -1.
</event>
<event>
 7    1  0.2641103E-015  0.9000771E+02  0.7816164E-02  0.1186339E+00
        -11   -1    0    0    0    0  0.00000000000E+00  0.00000000000E+00  0.45593999997E+02  0.45594000000E+02  0.51100000000E-03 0.  1.
         11   -1    0    0    0    0 -0.00000000000E+00 -0.00000000000E+00 -0.45593999997E+02  0.45594000000E+02  0.51100000000E-03 0. -1.
    9900012    2    1    2    0    0 -0.52450182719E-01 -0.10157804908E+01 -0.59877420841E+00  0.90007706994E+02  0.89999967926E+02 0.  0.
        -12    1    1    2    0    0  0.52450182719E-01  0.10157804908E+01  0.59877420841E+00  0.11802930059E+01  0.00000000000E+00 0.  1.
         11    1    3    3    0    0 -0.21339319667E+02 -0.27177493872E+02 -0.14918853551E+02  0.37637148252E+02  0.51100000000E-03 0. -1.
        -11    1    3    3    0    0  0.20502394538E+00 -0.89528530079E+01 -0.80779383303E-01  0.89555646036E+01  0.51100000000E-03 0.  1.
        -12    1    3    3    0    0  0.21081845539E+02  0.35114566389E+02  0.14400858725E+02  0.43414994139E+02  0.00000000000E+00 0.  1.
</event>
<event>
 7    1  0.2641103E-015  0.9000768E+02  0.7816164E-02  0.1186339E+00
        -11   -1    0    0    0    0  0.00000000000E+00  0.00000000000E+00  0.45593999997E+02  0.45594000000E+02  0.51100000000E-03 0.  1.
         11   -1    0    0    0    0 -0.00000000000E+00 -0.00000000000E+00 -0.45593999997E+02  0.45594000000E+02  0.51100000000E-03 0. -1.
    9900012    2    1    2    0    0 -0.22363849318E+00  0.10482926991E+01 -0.49419459706E+00  0.90007677985E+02  0.89999938535E+02 0.  0.
        -12    1    1    2    0    0  0.22363849318E+00 -0.10482926991E+01  0.49419459706E+00  0.11803220147E+01  0.00000000000E+00 0.  1.
         11    1    3    3    0    0 -0.27752991132E+02  0.30328737312E+02 -0.51037372044E+01  0.41425945462E+02  0.51100000000E-03 0. -1.
        -11    1    3    3    0    0  0.85333125220E+01  0.42995095995E+01  0.28070243472E+01  0.99590457043E+01  0.51100000000E-03 0.  1.
        -12    1    3    3    0    0  0.18996040116E+02 -0.33579954213E+02  0.18025182601E+01  0.38622686819E+02  0.00000000000E+00 0.  1.
</event>
<event>
 7    1  0.2641103E-015  0.9000770E+02  0.7816164E-02  0.1186339E+00
        -11   -1    0    0    0    0  0.00000000000E+00  0.00000000000E+00  0.45593999997E+02  0.45594000000E+02  0.51100000000E-03 0.  1.
         11   -1    0    0    0    0 -0.00000000000E+00 -0.00000000000E+00 -0.45593999997E+02  0.45594000000E+02  0.51100000000E-03 0. -1.
    9900012    2    1    2    0    0  0.26720889281E+00  0.26254296300E+00 -0.11192794460E+01  0.90007696701E+02  0.89999957497E+02 0.  0.
        -12    1    1    2    0    0 -0.26720889281E+00 -0.26254296300E+00  0.11192794460E+01  0.11803032992E+01  0.00000000000E+00 0.  1.
         11    1    3    3    0    0 -0.87976455325E+01  0.22591124509E+01 -0.36520801013E+01  0.97897826998E+01  0.51100000000E-03 0. -1.
        -11    1    3    3    0    0 -0.23498132348E+02  0.25606526497E+02  0.11481934681E+02  0.36601792952E+02  0.51100000000E-03 0.  1.
         12    1    3    3    0    0  0.32562986773E+02 -0.27603095985E+02 -0.89491340253E+01  0.43616121049E+02  0.00000000000E+00 0. -1.
</event>
<event>
 7    1  0.2641103E-015  0.9000774E+02  0.7816164E-02  0.1186339E+00
        -11   -1    0    0    0    0  0.00000000000E+00  0.00000000000E+00  0.45593999997E+02  0.45594000000E+02  0.51100000000E-03 0. -1.
         11   -1    0    0    0    0 -0.00000000000E+00 -0.00000000000E+00 -0.45593999997E+02  0.45594000000E+02  0.51100000000E-03 0.  1.
    9900012    2    1    2    0    0 -0.97249775011E+00 -0.29236536884E+00  0.60148546703E+00  0.90007739796E+02  0.90000001161E+02 0.  0.
        -12    1    1    2    0    0  0.97249775011E+00  0.29236536884E+00 -0.60148546703E+00  0.11802602043E+01  0.00000000000E+00 0.  1.
         11    1    3    3    0    0 -0.90224096147E+01 -0.44347977666E+01 -0.48265014831E+00  0.10065001635E+02  0.51100000000E-03 0. -1.
        -11    1    3    3    0    0  0.13642378670E+02 -0.29618353017E+02 -0.21392966624E+02  0.39000260928E+02  0.51100000000E-03 0.  1.
         12    1    3    3    0    0 -0.55924668056E+01  0.33760785415E+02  0.22477102240E+02  0.40942477232E+02  0.00000000000E+00 0. -1.
</event>
<event>
 7    1  0.2641103E-015  0.9000779E+02  0.7816164E-02  0.1186339E+00
        -11   -1    0    0    0    0  0.00000000000E+00  0.00000000000E+00  0.45593999997E+02  0.45594000000E+02  0.51100000000E-03 0.  1.
         11   -1    0    0    0    0 -0.00000000000E+00 -0.00000000000E+00 -0.45593999997E+02  0.45594000000E+02  0.51100000000E-03 0. -1.
    9900012    2    1    2    0    0  0.78768064541E+00 -0.39413375869E+00 -0.78556112062E+00  0.90007793030E+02  0.90000055098E+02 0.  0.
        -12    1    1    2    0    0 -0.78768064541E+00  0.39413375869E+00  0.78556112062E+00  0.11802069705E+01  0.00000000000E+00 0.  1.
         11    1    3    3    0    0  0.74785240631E+01  0.34992864802E+02 -0.11675105801E+02  0.37639567013E+02  0.51100000000E-03 0. -1.
        -11    1    3    3    0    0  0.91381224331E+01  0.30237528746E+01  0.29926355794E+01  0.10079892411E+02  0.51100000000E-03 0.  1.
        -12    1    3    3    0    0 -0.15828965851E+02 -0.38410751435E+02  0.78969091009E+01  0.42288333605E+02  0.00000000000E+00 0.  1.
</event>
<event>
 7    1  0.2641103E-015  0.9000769E+02  0.7816164E-02  0.1186339E+00
        -11   -1    0    0    0    0  0.00000000000E+00  0.00000000000E+00  0.45593999997E+02  0.45594000000E+02  0.51100000000E-03 0.  1.
         11   -1    0    0    0    0 -0.00000000000E+00 -0.00000000000E+00 -0.45593999997E+02  0.45594000000E+02  0.51100000000E-03 0. -1.
    9900012    2    1    2    0    0 -0.83170813894E-01 -0.11671460128E+01  0.15485963625E+00  0.90007691267E+02  0.89999951991E+02 0.  0.
        -12    1    1    2    0    0  0.83170813894E-01  0.11671460128E+01 -0.15485963625E+00  0.11803087335E+01  0.00000000000E+00 0.  1.
         11    1    3    3    0    0 -0.13917687202E+02 -0.19812559665E+02 -0.33344586006E+02  0.41208020502E+02  0.51100000000E-03 0. -1.
        -11    1    3    3    0    0 -0.36786655526E+01  0.85014824598E+01 -0.45124382921E+00  0.92742334194E+01  0.51100000000E-03 0.  1.
        -12    1    3    3    0    0  0.17513181941E+02  0.10143931192E+02  0.33950689472E+02  0.39525437345E+02  0.00000000000E+00 0.  1.
</event>
<event>
 7    1  0.2641103E-015  0.9000778E+02  0.7816164E-02  0.1186339E+00
        -11   -1    0    0    0    0  0.00000000000E+00  0.00000000000E+00  0.45593999997E+02  0.45594000000E+02  0.51100000000E-03 0.  1.
         11   -1    0    0    0    0 -0.00000000000E+00 -0.00000000000E+00 -0.45593999997E+02  0.45594000000E+02  0.51100000000E-03 0. -1.
    9900012    2    1    2    0    0  0.78993260443E+00  0.83221828016E+00 -0.27631510317E+00  0.90007775097E+02  0.90000036928E+02 0.  0.
        -12    1    1    2    0    0 -0.78993260443E+00 -0.83221828016E+00  0.27631510317E+00  0.11802249030E+01  0.00000000000E+00 0.  1.
         11    1    3    3    0    0  0.64958923366E+01 -0.36726571973E+02  0.61959868395E+01  0.37807776440E+02  0.51100000000E-03 0. -1.
        -11    1    3    3    0    0 -0.60946098196E+01 -0.33944413162E+01  0.61959495598E+01  0.93303961283E+01  0.51100000000E-03 0.  1.
        -12    1    3    3    0    0  0.38865008739E+00  0.40953231569E+02 -0.12668251502E+02  0.42869602529E+02  0.00000000000E+00 0.  1.
</event>
<event>
 7    1  0.2641103E-015  0.9000768E+02  0.7816164E-02  0.1186339E+00
        -11   -1    0    0    0    0  0.00000000000E+00  0.00000000000E+00  0.45593999997E+02  0.45594000000E+02  0.51100000000E-03 0. -1.
         11   -1    0    0    0    0 -0.00000000000E+00 -0.00000000000E+00 -0.45593999997E+02  0.45594000000E+02  0.51100000000E-03 0.  1.
    9900012    2    1    2    0    0  0.25774143544E-01  0.23117207032E+00  0.11571686147E+01  0.90007684773E+02  0.89999945412E+02 0.  0.
        -12    1    1    2    0    0 -0.25774143544E-01 -0.23117207032E+00 -0.11571686147E+01  0.11803152271E+01  0.00000000000E+00 0.  1.
         11    1    3    3    0    0 -0.14696747578E+01  0.39891409253E+01 -0.53936658400E+01  0.68676648630E+01  0.51100000000E-03 0. -1.
        -11    1    3    3    0    0 -0.14373840421E+02 -0.35029609403E+02 -0.16364468419E+02  0.41248959384E+02  0.51100000000E-03 0.  1.
         12    1    3    3    0    0  0.15869289323E+02  0.31271640548E+02  0.22915302874E+02  0.41891060526E+02  0.00000000000E+00 0. -1.
</event>
<event>
 7    1  0.2641103E-015  0.9000771E+02  0.7816164E-02  0.1186339E+00
        -11   -1    0    0    0    0  0.00000000000E+00  0.00000000000E+00  0.45593999997E+02  0.45594000000E+02  0.51100000000E-03 0.  1.
         11   -1    0    0    0    0 -0.00000000000E+00 -0.00000000000E+00 -0.45593999997E+02  0.45594000000E+02  0.51100000000E-03 0. -1.
    9900012    2    1    2    0    0  0.33907780467E+00 -0.45244614173E+00 -0.10360518704E+01  0.90007709889E+02  0.89999970859E+02 0.  0.
        -12    1    1    2    0    0 -0.33907780467E+00  0.45244614173E+00  0.10360518704E+01  0.11802901113E+01  0.00000000000E+00 0.  1.
         11    1    3    3    0    0  0.57634743451E+01 -0.10793804883E+01 -0.97615561454E+01  0.11387303342E+02  0.51100000000E-03 0. -1.
        -11    1    3    3    0    0  0.22938325641E+02 -0.29092805199E+02  0.45796452546E+01  0.37330031455E+02  0.51100000000E-03 0.  1.
         12    1    3    3    0    0 -0.28362722181E+02  0.29719739545E+02  0.41458590203E+01  0.41290375091E+02  0.00000000000E+00 0. -1.
</event>
<event>
 7    1  0.2641103E-015  0.9000779E+02  0.7816164E-02  0.1186339E+00
        -11   -1    0    0    0    0  0.00000000000E+00  0.00000000000E+00  0.45593999997E+02  0.45594000000E+02  0.51100000000E-03 0.  1.
         11   -1    0    0    0    0 -0.00000000000E+00 -0.00000000000E+00 -0.45593999997E+02  0.45594000000E+02  0.51100000000E-03 0. -1.
    9900012    2    1    2    0    0  0.14269183470E+00 -0.15140628782E+00 -0.11617323203E+01  0.90007785270E+02  0.90000047236E+02 0.  0.
        -12    1    1    2    0    0 -0.14269183470E+00  0.15140628782E+00  0.11617323203E+01  0.11802147295E+01  0.00000000000E+00 0.  1.
         11    1    3    3    0    0  0.16789378019E+01 -0.30010761432E+01 -0.90751029145E+01  0.97047814674E+01  0.51100000000E-03 0. -1.
        -11    1    3    3    0    0  0.24458205591E+01 -0.38317610585E+02  0.12952624874E+01  0.38417431256E+02  0.51100000000E-03 0.  1.
         12    1    3    3    0    0 -0.39820665263E+01  0.41167280440E+02  0.66181081068E+01  0.41885572547E+02  0.00000000000E+00 0. -1.
</event>
<event>
 7    1  0.2641103E-015  0.9000775E+02  0.7816164E-02  0.1186339E+00
        -11   -1    0    0    0    0  0.00000000000E+00  0.00000000000E+00  0.45593999997E+02  0.45594000000E+02  0.51100000000E-03 0. -1.
         11   -1    0    0    0    0 -0.00000000000E+00 -0.00000000000E+00 -0.45593999997E+02  0.45594000000E+02  0.51100000000E-03 0.  1.
    9900012    2    1    2    0    0 -0.68057195293E+00 -0.78881226536E+00 -0.55459550765E+00  0.90007754623E+02  0.90000016184E+02 0.  0.
        -12    1    1    2    0    0  0.68057195293E+00  0.78881226536E+00  0.55459550765E+00  0.11802453771E+01  0.00000000000E+00 0.  1.
         11    1    3    3    0    0 -0.27041959702E+02 -0.30895650443E+02 -0.79657566697E+01  0.41824180570E+02  0.51100000000E-03 0. -1.
        -11    1    3    3    0    0  0.56854561473E+01 -0.38280413485E+01 -0.23836115850E+01  0.72567152775E+01  0.51100000000E-03 0.  1.
        -12    1    3    3    0    0  0.20675931602E+02  0.33934879526E+02  0.97947727471E+01  0.40926858775E+02  0.00000000000E+00 0.  1.
</event>
<event>
 7    1  0.2641103E-015  0.9000769E+02  0.7816164E-02  0.1186339E+00
        -11   -1    0    0    0    0  0.00000000000E+00  0.00000000000E+00  0.45593999997E+02  0.45594000000E+02  0.51100000000E-03 0. -1.
         11   -1    0    0    0    0 -0.00000000000E+00 -0.00000000000E+00 -0.45593999997E+02  0.45594000000E+02  0.51100000000E-03 0.  1.
    9900012    2    1    2    0    0 -0.34395356984E+00 -0.77175044644E+00  0.82414966430E+00  0.90007692634E+02  0.89999953376E+02 0.  0.
        -12    1    1    2    0    0  0.34395356984E+00  0.77175044644E+00 -0.82414966430E+00  0.11803073663E+01  0.00000000000E+00 0.  1.
         11    1    3    3    0    0 -0.44545893558E+01  0.58551202542E+01 -0.78199354806E+01  0.10736721599E+02  0.51100000000E-03 0. -1.
        -11    1    3    3    0    0 -0.22700980771E+02  0.21358637414E+02 -0.14234281962E+02  0.34265736580E+02  0.51100000000E-03 0.  1.
         12    1    3    3    0    0  0.26811616557E+02 -0.27985508114E+02  0.22878367107E+02  0.45005234454E+02  0.00000000000E+00 0. -1.
</event>
<event>
 7    1  0.2641103E-015  0.9000777E+02  0.7816164E-02  0.1186339E+00
        -11   -1    0    0    0    0  0.00000000000E+00  0.00000000000E+00  0.45593999997E+02  0.45594000000E+02  0.51100000000E-03 0.  1.
         11   -1    0    0    0    0 -0.00000000000E+00 -0.00000000000E+00 -0.45593999997E+02  0.45594000000E+02  0.51100000000E-03 0. -1.
    9900012    2    1    2    0    0  0.95486523956E+00 -0.67646326393E+00 -0.15349887636E+00  0.90007774565E+02  0.90000036389E+02 0.  0.
        -12    1    1    2    0    0 -0.95486523956E+00  0.67646326393E+00  0.15349887636E+00  0.11802254353E+01  0.00000000000E+00 0.  1.
         11    1    3    3    0    0 -0.51305468798E+01 -0.21869567506E+02 -0.33274361436E+02  0.40147025088E+02  0.51100000000E-03 0. -1.
        -11    1    3    3    0    0 -0.17770031962E+01 -0.68297788500E+01  0.21895119654E+01  0.73890176889E+01  0.51100000000E-03 0.  1.
        -12    1    3    3    0    0  0.78624153155E+01  0.28022883092E+02  0.30931350595E+02  0.42471731787E+02  0.00000000000E+00 0.  1.
</event>
<event>
 7    1  0.2641103E-015  0.9000778E+02  0.7816164E-02  0.1186339E+00
        -11   -1    0    0    0    0  0.00000000000E+00  0.00000000000E+00  0.45593999997E+02  0.45594000000E+02  0.51100000000E-03 0. -1.
         11   -1    0    0    0    0 -0.00000000000E+00 -0.00000000000E+00 -0.45593999997E+02  0.45594000000E+02  0.51100000000E-03 0.  1.
    9900012    2    1    2    0    0  0.88788426604E+00  0.20453111781E-01  0.77728076225E+00  0.90007778757E+02  0.90000040636E+02 0.  0.
        -12    1    1    2    0    0 -0.88788426604E+00 -0.20453111781E-01 -0.77728076225E+00  0.11802212432E+01  0.00000000000E+00 0.  1.
         11    1    3    3    0    0  0.38554106750E+02 -0.38026977220E+01 -0.26076339029E+01  0.38828847679E+02  0.51100000000E-03 0. -1.
        -11    1    3    3    0    0  0.11065341791E+01 -0.98565094739E+01 -0.71679791919E-01  0.99186861606E+01  0.51100000000E-03 0.  1.
        -12    1    3    3    0    0 -0.38772756663E+02  0.13679660308E+02  0.34565944570E+01  0.41260244917E+02  0.00000000000E+00 0.  1.
</event>
<event>
 7    1  0.2641103E-015  0.9000775E+02  0.7816164E-02  0.1186339E+00
        -11   -1    0    0    0    0  0.00000000000E+00  0.00000000000E+00  0.45593999997E+02  0.45594000000E+02  0.51100000000E-03 0. -1.
         11   -1    0    0    0    0 -0.00000000000E+00 -0.00000000000E+00 -0.45593999997E+02  0.45594000000E+02  0.51100000000E-03 0.  1.
    9900012    2    1    2    0    0 -0.31816586546E+00  0.39924427134E+00  0.10641232224E+01  0.90007752679E+02  0.90000014214E+02 0.  0.
        -12    1    1    2    0    0  0.31816586546E+00 -0.39924427134E+00 -0.10641232224E+01  0.11802473209E+01  0.00000000000E+00 0.  1.
         11    1    3    3    0    0 -0.33480261207E+02 -0.38720812457E+01  0.17568127128E+02  0.38007367638E+02  0.51100000000E-03 0. -1.
        -11    1    3    3    0    0 -0.48065539162E+01 -0.50295954746E+01 -0.10285859766E+02  0.12417677020E+02  0.51100000000E-03 0.  1.
        -12    1    3    3    0    0  0.37968649258E+02  0.93009209916E+01 -0.62181441398E+01  0.39582708021E+02  0.00000000000E+00 0.  1.
</event>
<event>
 7    1  0.2641103E-015  0.9000792E+02  0.7816164E-02  0.1186339E+00
        -11   -1    0    0    0    0  0.00000000000E+00  0.00000000000E+00  0.45593999997E+02  0.45594000000E+02  0.51100000000E-03 0. -1.
         11   -1    0    0    0    0 -0.00000000000E+00 -0.00000000000E+00 -0.45593999997E+02  0.45594000000E+02  0.51100000000E-03 0.  1.
    9900012    2    1    2    0    0 -0.10535788760E+01  0.17958937416E+00 -0.50031785712E+00  0.90007915787E+02  0.90000179475E+02 0.  0.
        -12    1    1    2    0    0  0.10535788760E+01 -0.17958937416E+00  0.50031785712E+00  0.11800842128E+01  0.00000000000E+00 0.  1.
         11    1    3    3    0    0 -0.22736009570E+00 -0.82913262966E+01 -0.27877125467E+01  0.87503786131E+01  0.51100000000E-03 0. -1.
        -11    1    3    3    0    0 -0.40285948755E+02 -0.22064498754E+01  0.10444096595E+01  0.40359842417E+02  0.51100000000E-03 0.  1.
         12    1    3    3    0    0  0.39459729974E+02  0.10677365546E+02  0.12429850300E+01  0.40897694757E+02  0.00000000000E+00 0. -1.
</event>
<event>
 7    1  0.2641103E-015  0.9000854E+02  0.7816164E-02  0.1186337E+00
        -11   -1    0    0    0    0  0.00000000000E+00  0.00000000000E+00  0.45593999997E+02  0.45594000000E+02  0.51100000000E-03 0.  1.
         11   -1    0    0    0    0 -0.00000000000E+00 -0.00000000000E+00 -0.45593999997E+02  0.45594000000E+02  0.51100000000E-03 0. -1.
    9900012    2    1    2    0    0 -0.10004788668E+01  0.32022298141E+00 -0.53631539641E+00  0.90008536170E+02  0.90000808044E+02 0.  0.
        -12    1    1    2    0    0  0.10004788668E+01 -0.32022298141E+00  0.53631539641E+00  0.11794638295E+01  0.00000000000E+00 0.  1.
         11    1    3    3    0    0 -0.53011106418E+01  0.33282970596E+02 -0.10643756184E+02  0.35343280150E+02  0.51100000000E-03 0. -1.
        -11    1    3    3    0    0 -0.40037857951E+01  0.59673745149E+00 -0.12645806455E+02  0.13277907118E+02  0.51100000000E-03 0.  1.
        -12    1    3    3    0    0  0.83044175702E+01 -0.33559485067E+02  0.22753247243E+02  0.41387348903E+02  0.00000000000E+00 0.  1.
</event>
<event>
 7    1  0.2641103E-015  0.9000777E+02  0.7816164E-02  0.1186339E+00
        -11   -1    0    0    0    0  0.00000000000E+00  0.00000000000E+00  0.45593999997E+02  0.45594000000E+02  0.51100000000E-03 0. -1.
         11   -1    0    0    0    0 -0.00000000000E+00 -0.00000000000E+00 -0.45593999997E+02  0.45594000000E+02  0.51100000000E-03 0.  1.
    9900012    2    1    2    0    0  0.10364821873E+01 -0.17828492757E+00 -0.53558752401E+00  0.90007773396E+02  0.90000035205E+02 0.  0.
        -12    1    1    2    0    0 -0.10364821873E+01  0.17828492757E+00  0.53558752401E+00  0.11802266036E+01  0.00000000000E+00 0.  1.
         11    1    3    3    0    0 -0.80501732445E+01 -0.63418817713E+01 -0.16876782771E+01  0.10386193330E+02  0.51100000000E-03 0. -1.
        -11    1    3    3    0    0 -0.24378966399E+02  0.26991917954E+02 -0.11625591567E+02  0.38184447319E+02  0.51100000000E-03 0.  1.
         12    1    3    3    0    0  0.33465621831E+02 -0.20828321111E+02  0.12777682320E+02  0.41437132747E+02  0.00000000000E+00 0. -1.
</event>
<event>
 7    1  0.2641103E-015  0.9000766E+02  0.7816164E-02  0.1186339E+00
        -11   -1    0    0    0    0  0.00000000000E+00  0.00000000000E+00  0.45593999997E+02  0.45594000000E+02  0.51100000000E-03 0.  1.
         11   -1    0    0    0    0 -0.00000000000E+00 -0.00000000000E+00 -0.45593999997E+02  0.45594000000E+02  0.51100000000E-03 0. -1.
    9900012    2    1    2    0    0 -0.70504558833E-01 -0.38873136702E+00 -0.11122611058E+01  0.90007657789E+02  0.89999918071E+02 0.  0.
        -12    1    1    2    0    0  0.70504558833E-01  0.38873136702E+00  0.11122611058E+01  0.11803422114E+01  0.00000000000E+00 0.  1.
         11    1    3    3    0    0 -0.70144078326E+01  0.47508139136E+01 -0.33815648181E+01  0.91217942842E+01  0.51100000000E-03 0. -1.
        -11    1    3    3    0    0 -0.23811148081E+01 -0.32624693192E+02  0.27263358929E+02  0.42583225030E+02  0.51100000000E-03 0.  1.
         12    1    3    3    0    0  0.93250180819E+01  0.27485147911E+02 -0.24994055217E+02  0.38302638474E+02  0.00000000000E+00 0. -1.
</event>
<event>
 7    1  0.2641103E-015  0.9000778E+02  0.7816164E-02  0.1186339E+00
        -11   -1    0    0    0    0  0.00000000000E+00  0.00000000000E+00  0.45593999997E+02  0.45594000000E+02  0.51100000000E-03 0.  1.
         11   -1    0    0    0    0 -0.00000000000E+00 -0.00000000000E+00 -0.45593999997E+02  0.45594000000E+02  0.51100000000E-03 0. -1.
    9900012    2    1    2    0    0 -0.10777985350E+01  0.47808535289E+00 -0.51968411958E-01  0.90007781375E+02  0.90000043289E+02 0.  0.
        -12    1    1    2    0    0  0.10777985350E+01 -0.47808535289E+00  0.51968411958E-01  0.11802186249E+01  0.00000000000E+00 0.  1.
         11    1    3    3    0    0 -0.15752091080E+02  0.32430173465E+02  0.13092822879E+02  0.38357092376E+02  0.51100000000E-03 0. -1.
        -11    1    3    3    0    0 -0.92310996544E+01 -0.57511659529E+00  0.18836980798E+01  0.94388706234E+01  0.51100000000E-03 0.  1.
        -12    1    3    3    0    0  0.23905392199E+02 -0.31376971517E+02 -0.15028489371E+02  0.42211818375E+02  0.00000000000E+00 0.  1.
</event>
<event>
 7    1  0.2641103E-015  0.9000772E+02  0.7816164E-02  0.1186339E+00
        -11   -1    0    0    0    0  0.00000000000E+00  0.00000000000E+00  0.45593999997E+02  0.45594000000E+02  0.51100000000E-03 0.  1.
         11   -1    0    0    0    0 -0.00000000000E+00 -0.00000000000E+00 -0.45593999997E+02  0.45594000000E+02  0.51100000000E-03 0. -1.
    9900012    2    1    2    0    0  0.74923909718E+00  0.78415376906E+00  0.46562013749E+00  0.90007721020E+02  0.89999982137E+02 0.  0.
        -12    1    1    2    0    0 -0.74923909718E+00 -0.78415376906E+00 -0.46562013749E+00  0.11802789800E+01  0.00000000000E+00 0.  1.
         11    1    3    3    0    0  0.18336998564E+01  0.28922836763E+02 -0.29726167322E+02  0.41515514757E+02  0.51100000000E-03 0. -1.
        -11    1    3    3    0    0 -0.52708674043E+01 -0.71026248891E+01 -0.26799390118E+01  0.92418286543E+01  0.51100000000E-03 0.  1.
        -12    1    3    3    0    0  0.41864066450E+01 -0.21036058105E+02  0.32871726472E+02  0.39250377609E+02  0.00000000000E+00 0.  1.
</event>
<event>
 7    1  0.2641103E-015  0.9000772E+02  0.7816164E-02  0.1186339E+00
        -11   -1    0    0    0    0  0.00000000000E+00  0.00000000000E+00  0.45593999997E+02  0.45594000000E+02  0.51100000000E-03 0. -1.
         11   -1    0    0    0    0 -0.00000000000E+00 -0.00000000000E+00 -0.45593999997E+02  0.45594000000E+02  0.51100000000E-03 0.  1.
    9900012    2    1    2    0    0  0.13538178225E+00  0.10107573168E+01 -0.59422884928E+00  0.90007717616E+02  0.89999978689E+02 0.  0.
        -12    1    1    2    0    0 -0.13538178225E+00 -0.10107573168E+01  0.59422884928E+00  0.11802823839E+01  0.00000000000E+00 0.  1.
         11    1    3    3    0    0 -0.81548389791E+01 -0.80932991810E+00 -0.44600064337E+01  0.93299555915E+01  0.51100000000E-03 0. -1.
        -11    1    3    3    0    0  0.17116767187E+02 -0.28696507831E+02 -0.21750187068E+02  0.39869084745E+02  0.51100000000E-03 0.  1.
         12    1    3    3    0    0 -0.88265464262E+01  0.30516595066E+02  0.25615964652E+02  0.40808677280E+02  0.00000000000E+00 0. -1.
</event>
<event>
 7    1  0.2641103E-015  0.9000757E+02  0.7816164E-02  0.1186339E+00
        -11   -1    0    0    0    0  0.00000000000E+00  0.00000000000E+00  0.45593999997E+02  0.45594000000E+02  0.51100000000E-03 0. -1.
         11   -1    0    0    0    0 -0.00000000000E+00 -0.00000000000E+00 -0.45593999997E+02  0.45594000000E+02  0.51100000000E-03 0.  1.
    9900012    2    1    2    0    0  0.77967489593E+00  0.73310469272E+00  0.49807867747E+00  0.90007568806E+02  0.89999827914E+02 0.  0.
        -12    1    1    2    0    0 -0.77967489593E+00 -0.73310469272E+00 -0.49807867747E+00  0.11804311936E+01  0.00000000000E+00 0.  1.
         11    1    3    3    0    0  0.22104620865E+01 -0.80091303181E+01  0.33876490583E+01  0.89726516421E+01  0.51100000000E-03 0. -1.
        -11    1    3    3    0    0  0.37714606865E+02 -0.76777803816E+01 -0.18014608924E-01  0.38488182697E+02  0.51100000000E-03 0.  1.
         12    1    3    3    0    0 -0.39145394055E+02  0.16420015392E+02 -0.28715557719E+01  0.42546734467E+02  0.00000000000E+00 0. -1.
</event>
<event>
 7    1  0.2641103E-015  0.9000767E+02  0.7816164E-02  0.1186339E+00
        -11   -1    0    0    0    0  0.00000000000E+00  0.00000000000E+00  0.45593999997E+02  0.45594000000E+02  0.51100000000E-03 0. -1.
         11   -1    0    0    0    0 -0.00000000000E+00 -0.00000000000E+00 -0.45593999997E+02  0.45594000000E+02  0.51100000000E-03 0.  1.
    9900012    2    1    2    0    0 -0.98872580188E+00 -0.59073482753E+00 -0.25813415322E+00  0.90007669712E+02  0.89999930152E+02 0.  0.
        -12    1    1    2    0    0  0.98872580188E+00  0.59073482753E+00  0.25813415322E+00  0.11803302880E+01  0.00000000000E+00 0.  1.
         11    1    3    3    0    0 -0.23558605377E+02  0.31638786595E+02  0.11506404634E+02  0.41090364471E+02  0.51100000000E-03 0. -1.
        -11    1    3    3    0    0  0.53587671211E+01 -0.21352618836E+01  0.73385070605E+01  0.93343138209E+01  0.51100000000E-03 0.  1.
        -12    1    3    3    0    0  0.17211112454E+02 -0.30094259539E+02 -0.19103045847E+02  0.39582991420E+02  0.00000000000E+00 0.  1.
</event>
<event>
 7    1  0.2796230E-015  0.9000775E+02  0.7816164E-02  0.1186339E+00
        -11   -1    0    0    0    0  0.00000000000E+00  0.00000000000E+00  0.45593999997E+02  0.45594000000E+02  0.51100000000E-03 0.  1.
         11   -1    0    0    0    0 -0.00000000000E+00 -0.00000000000E+00 -0.45593999997E+02  0.45594000000E+02  0.51100000000E-03 0. -1.
    9900012    2    1    2    0    0  0.13016868603E+00 -0.11609826091E+01  0.16784825379E+00  0.90007746832E+02  0.90000008290E+02 0.  0.
        -12    1    1    2    0    0 -0.13016868603E+00  0.11609826091E+01 -0.16784825379E+00  0.11802531685E+01  0.00000000000E+00 0.  1.
         11    1    3    3    0    0 -0.30339417163E+01  0.60130564443E+01  0.68245900809E+01  0.95883617044E+01  0.51100000000E-03 0. -1.
        -11    1    3    3    0    0  0.25946438125E+02  0.22688951737E+02  0.14404734420E+02  0.37356425903E+02  0.51100000000E-03 0.  1.
         12    1    3    3    0    0 -0.22782327722E+02 -0.29862990790E+02 -0.21061476247E+02  0.43062959224E+02  0.00000000000E+00 0. -1.
</event>
<event>
 7    1  0.2641103E-015  0.9000850E+02  0.7816164E-02  0.1186338E+00
        -11   -1    0    0    0    0  0.00000000000E+00  0.00000000000E+00  0.45593999997E+02  0.45594000000E+02  0.51100000000E-03 0. -1.
         11   -1    0    0    0    0 -0.00000000000E+00 -0.00000000000E+00 -0.45593999997E+02  0.45594000000E+02  0.51100000000E-03 0.  1.
    9900012    2    1    2    0    0  0.56309241031E+00 -0.79022094143E+00  0.67060153058E+00  0.90008496455E+02  0.90000767805E+02 0.  0.
        -12    1    1    2    0    0 -0.56309241031E+00  0.79022094143E+00 -0.67060153058E+00  0.11795035446E+01  0.00000000000E+00 0.  1.
         11    1    3    3    0    0 -0.35708634366E+02  0.20511708662E+02 -0.75522867588E+01  0.41867335669E+02  0.51100000000E-03 0. -1.
        -11    1    3    3    0    0  0.13521828798E+02  0.22329670983E+01 -0.19973100173E+01  0.13849738036E+02  0.51100000000E-03 0.  1.
        -12    1    3    3    0    0  0.22749897978E+02 -0.23534896702E+02  0.10220198307E+02  0.34291422750E+02  0.00000000000E+00 0.  1.
</event>
<event>
 7    1  0.2641103E-015  0.9000775E+02  0.7816164E-02  0.1186339E+00
        -11   -1    0    0    0    0  0.00000000000E+00  0.00000000000E+00  0.45593999997E+02  0.45594000000E+02  0.51100000000E-03 0.  1.
         11   -1    0    0    0    0 -0.00000000000E+00 -0.00000000000E+00 -0.45593999997E+02  0.45594000000E+02  0.51100000000E-03 0. -1.
    9900012    2    1    2    0    0  0.73456956077E-01  0.18599036666E+00 -0.11631875993E+01  0.90007748445E+02  0.90000009925E+02 0.  0.
        -12    1    1    2    0    0 -0.73456956077E-01 -0.18599036666E+00  0.11631875993E+01  0.11802515546E+01  0.00000000000E+00 0.  1.
         11    1    3    3    0    0  0.51601419970E+01  0.57919532505E+01  0.61084867742E+01  0.98735707227E+01  0.51100000000E-03 0. -1.
        -11    1    3    3    0    0 -0.23943008515E+02  0.18855242506E+02  0.21995513852E+02  0.37584444343E+02  0.51100000000E-03 0.  1.
         12    1    3    3    0    0  0.18856323474E+02 -0.24461205390E+02 -0.29267188225E+02  0.42549733380E+02  0.00000000000E+00 0. -1.
</event>
<event>
 7    1  0.2641103E-015  0.9000785E+02  0.7816164E-02  0.1186339E+00
        -11   -1    0    0    0    0  0.00000000000E+00  0.00000000000E+00  0.45593999997E+02  0.45594000000E+02  0.51100000000E-03 0. -1.
         11   -1    0    0    0    0 -0.00000000000E+00 -0.00000000000E+00 -0.45593999997E+02  0.45594000000E+02  0.51100000000E-03 0.  1.
    9900012    2    1    2    0    0 -0.18941855662E+00 -0.11349339242E+01 -0.26228516420E+00  0.90007852590E+02  0.90000115444E+02 0.  0.
        -12    1    1    2    0    0  0.18941855662E+00  0.11349339242E+01  0.26228516420E+00  0.11801474099E+01  0.00000000000E+00 0.  1.
         11    1    3    3    0    0  0.87160397112E+01 -0.44667784321E+01 -0.26791383917E+01  0.10153779621E+02  0.51100000000E-03 0. -1.
        -11    1    3    3    0    0 -0.26789966716E+02 -0.95231836002E+01 -0.29567403712E+02  0.41019808691E+02  0.51100000000E-03 0.  1.
         12    1    3    3    0    0  0.17884508448E+02  0.12855028108E+02  0.31984256939E+02  0.38834264278E+02  0.00000000000E+00 0. -1.
</event>
<event>
 7    1  0.2641103E-015  0.9000783E+02  0.7816164E-02  0.1186339E+00
        -11   -1    0    0    0    0  0.00000000000E+00  0.00000000000E+00  0.45593999997E+02  0.45594000000E+02  0.51100000000E-03 0. -1.
         11   -1    0    0    0    0 -0.00000000000E+00 -0.00000000000E+00 -0.45593999997E+02  0.45594000000E+02  0.51100000000E-03 0.  1.
    9900012    2    1    2    0    0  0.61232406454E+00 -0.50383485374E+00  0.87407605422E+00  0.90007830831E+02  0.90000093398E+02 0.  0.
        -12    1    1    2    0    0 -0.61232406454E+00  0.50383485374E+00 -0.87407605422E+00  0.11801691694E+01  0.00000000000E+00 0.  1.
         11    1    3    3    0    0 -0.25180461510E+02 -0.16037548617E+02  0.23553176496E+02  0.38026447781E+02  0.51100000000E-03 0. -1.
        -11    1    3    3    0    0  0.33135172556E+01 -0.10154519069E+02  0.54449116365E+00  0.10695331927E+02  0.51100000000E-03 0.  1.
        -12    1    3    3    0    0  0.22479268319E+02  0.25688232833E+02 -0.23223591606E+02  0.41286051123E+02  0.00000000000E+00 0.  1.
</event>
<event>
 7    1  0.2641103E-015  0.9000775E+02  0.7816164E-02  0.1186339E+00
        -11   -1    0    0    0    0  0.00000000000E+00  0.00000000000E+00  0.45593999997E+02  0.45594000000E+02  0.51100000000E-03 0. -1.
         11   -1    0    0    0    0 -0.00000000000E+00 -0.00000000000E+00 -0.45593999997E+02  0.45594000000E+02  0.51100000000E-03 0.  1.
    9900012    2    1    2    0    0 -0.50525058318E+00 -0.95205076543E+00  0.48095468667E+00  0.90007747390E+02  0.90000008856E+02 0.  0.
        -12    1    1    2    0    0  0.50525058318E+00  0.95205076543E+00 -0.48095468667E+00  0.11802526096E+01  0.00000000000E+00 0.  1.
         11    1    3    3    0    0 -0.29090850797E+02  0.17805154736E+02  0.12894341581E+02  0.36463203100E+02  0.51100000000E-03 0. -1.
        -11    1    3    3    0    0 -0.28307460948E+01  0.89510056937E+01  0.12774756344E+01  0.94744694120E+01  0.51100000000E-03 0.  1.
        -12    1    3    3    0    0  0.31416346309E+02 -0.27708211195E+02 -0.13690862528E+02  0.44070074878E+02  0.00000000000E+00 0.  1.
</event>
<event>
 7    1  0.2641103E-015  0.9000758E+02  0.7816164E-02  0.1186339E+00
        -11   -1    0    0    0    0  0.00000000000E+00  0.00000000000E+00  0.45593999997E+02  0.45594000000E+02  0.51100000000E-03 0.  1.
         11   -1    0    0    0    0 -0.00000000000E+00 -0.00000000000E+00 -0.45593999997E+02  0.45594000000E+02  0.51100000000E-03 0. -1.
    9900012    2    1    2    0    0  0.98152895095E+00 -0.18076793266E-01 -0.65549114421E+00  0.90007578680E+02  0.89999837919E+02 0.  0.
        -12    1    1    2    0    0 -0.98152895095E+00  0.18076793266E-01  0.65549114421E+00  0.11804213198E+01  0.00000000000E+00 0.  1.
         11    1    3    3    0    0  0.22818318358E+02 -0.30877127182E+02  0.20032077765E+02  0.43305389682E+02  0.51100000000E-03 0. -1.
        -11    1    3    3    0    0 -0.64899150349E+01  0.41442751715E+01 -0.12736935753E+02  0.14883667105E+02  0.51100000000E-03 0.  1.
        -12    1    3    3    0    0 -0.15346874372E+02  0.26714775217E+02 -0.79506331558E+01  0.31818521893E+02  0.00000000000E+00 0.  1.
</event>
<event>
 7    1  0.2641103E-015  0.9000777E+02  0.7816164E-02  0.1186339E+00
        -11   -1    0    0    0    0  0.00000000000E+00  0.00000000000E+00  0.45593999997E+02  0.45594000000E+02  0.51100000000E-03 0.  1.
         11   -1    0    0    0    0 -0.00000000000E+00 -0.00000000000E+00 -0.45593999997E+02  0.45594000000E+02  0.51100000000E-03 0. -1.
    9900012    2    1    2    0    0 -0.97125503703E+00  0.26960830987E+00 -0.61394320302E+00  0.90007766445E+02  0.90000028162E+02 0.  0.
        -12    1    1    2    0    0  0.97125503703E+00 -0.26960830987E+00  0.61394320302E+00  0.11802335550E+01  0.00000000000E+00 0.  1.
         11    1    3    3    0    0 -0.10238733916E+02  0.32838382900E+01  0.22952780171E+00  0.10754903504E+02  0.51100000000E-03 0. -1.
        -11    1    3    3    0    0 -0.23529089784E+02  0.26004478848E+02 -0.42660965251E+01  0.35327759143E+02  0.51100000000E-03 0.  1.
         12    1    3    3    0    0  0.32796568663E+02 -0.29018708828E+02  0.34226255204E+01  0.43925103797E+02  0.00000000000E+00 0. -1.
</event>
<event>
 7    1  0.2641103E-015  0.9000772E+02  0.7816164E-02  0.1186339E+00
        -11   -1    0    0    0    0  0.00000000000E+00  0.00000000000E+00  0.45593999997E+02  0.45594000000E+02  0.51100000000E-03 0.  1.
         11   -1    0    0    0    0 -0.00000000000E+00 -0.00000000000E+00 -0.45593999997E+02  0.45594000000E+02  0.51100000000E-03 0. -1.
    9900012    2    1    2    0    0 -0.30670414623E+00  0.86596737719E+00  0.74100824731E+00  0.90007720307E+02  0.89999981415E+02 0.  0.
        -12    1    1    2    0    0  0.30670414623E+00 -0.86596737719E+00 -0.74100824731E+00  0.11802796932E+01  0.00000000000E+00 0.  1.
         11    1    3    3    0    0  0.75588608236E+01 -0.14648064082E+02  0.21051928284E+01  0.16617280025E+02  0.51100000000E-03 0. -1.
        -11    1    3    3    0    0 -0.47157252001E+01 -0.22545472649E+02  0.19226759219E+02  0.30003410997E+02  0.51100000000E-03 0.  1.
         12    1    3    3    0    0 -0.31498397698E+01  0.38059504109E+02 -0.20590943801E+02  0.43387029285E+02  0.00000000000E+00 0. -1.
</event>
<event>
 7    1  0.2641103E-015  0.9000770E+02  0.7816164E-02  0.1186339E+00
        -11   -1    0    0    0    0  0.00000000000E+00  0.00000000000E+00  0.45593999997E+02  0.45594000000E+02  0.51100000000E-03 0. -1.
         11   -1    0    0    0    0 -0.00000000000E+00 -0.00000000000E+00 -0.45593999997E+02  0.45594000000E+02  0.51100000000E-03 0.  1.
    9900012    2    1    2    0    0  0.84273148253E+00  0.82255550828E+00  0.79437872182E-01  0.90007701609E+02  0.89999962470E+02 0.  0.
        -12    1    1    2    0    0 -0.84273148253E+00 -0.82255550828E+00 -0.79437872182E-01  0.11802983908E+01  0.00000000000E+00 0.  1.
         11    1    3    3    0    0 -0.29655590511E+02  0.11020759239E+02  0.22625988129E+02  0.38895327764E+02  0.51100000000E-03 0. -1.
        -11    1    3    3    0    0  0.42090760247E+00 -0.33633540645E+01  0.73892575064E+01  0.81296027289E+01  0.51100000000E-03 0.  1.
        -12    1    3    3    0    0  0.30077414391E+02 -0.68348496660E+01 -0.29935807764E+02  0.42982771117E+02  0.00000000000E+00 0.  1.
</event>
<event>
 7    1  0.2641103E-015  0.9000766E+02  0.7816164E-02  0.1186339E+00
        -11   -1    0    0    0    0  0.00000000000E+00  0.00000000000E+00  0.45593999997E+02  0.45594000000E+02  0.51100000000E-03 0. -1.
         11   -1    0    0    0    0 -0.00000000000E+00 -0.00000000000E+00 -0.45593999997E+02  0.45594000000E+02  0.51100000000E-03 0.  1.
    9900012    2    1    2    0    0  0.10089485142E+01 -0.44312337324E+00  0.42291759199E+00  0.90007663303E+02  0.89999923659E+02 0.  0.
        -12    1    1    2    0    0 -0.10089485142E+01  0.44312337324E+00 -0.42291759199E+00  0.11803366968E+01  0.00000000000E+00 0.  1.
         11    1    3    3    0    0  0.20197979409E+02 -0.72350144564E+01 -0.11724892154E+02  0.24449476532E+02  0.51100000000E-03 0. -1.
        -11    1    3    3    0    0  0.10876336643E+02 -0.58084700503E+01 -0.17557709989E+02  0.21454747806E+02  0.51100000000E-03 0.  1.
        -12    1    3    3    0    0 -0.30065367537E+02  0.12600361133E+02  0.29705519736E+02  0.44103438966E+02  0.00000000000E+00 0.  1.
</event>
<event>
 7    1  0.2641103E-015  0.9000775E+02  0.7816164E-02  0.1186339E+00
        -11   -1    0    0    0    0  0.00000000000E+00  0.00000000000E+00  0.45593999997E+02  0.45594000000E+02  0.51100000000E-03 0.  1.
         11   -1    0    0    0    0 -0.00000000000E+00 -0.00000000000E+00 -0.45593999997E+02  0.45594000000E+02  0.51100000000E-03 0. -1.
    9900012    2    1    2    0    0  0.11058839428E+01  0.40022171614E+00 -0.99185329836E-01  0.90007748143E+02  0.90000009618E+02 0.  0.
        -12    1    1    2    0    0 -0.11058839428E+01 -0.40022171614E+00  0.99185329836E-01  0.11802518573E+01  0.00000000000E+00 0.  1.
         11    1    3    3    0    0  0.18074447425E+02  0.27538079881E+01 -0.30233987337E+02  0.35332182195E+02  0.51100000000E-03 0. -1.
        -11    1    3    3    0    0  0.67841652134E+01 -0.13554487536E+01 -0.74729318883E+01  0.10183656035E+02  0.51100000000E-03 0.  1.
        -12    1    3    3    0    0 -0.23752728695E+02 -0.99813751837E+00  0.37607733895E+02  0.44491909913E+02  0.00000000000E+00 0.  1.
</event>
<event>
 7    1  0.2641103E-015  0.9000784E+02  0.7816164E-02  0.1186339E+00
        -11   -1    0    0    0    0  0.00000000000E+00  0.00000000000E+00  0.45593999997E+02  0.45594000000E+02  0.51100000000E-03 0. -1.
         11   -1    0    0    0    0 -0.00000000000E+00 -0.00000000000E+00 -0.45593999997E+02  0.45594000000E+02  0.51100000000E-03 0.  1.
    9900012    2    1    2    0    0  0.60551057074E+00 -0.89647024064E+00 -0.47168266945E+00  0.90007836247E+02  0.90000098885E+02 0.  0.
        -12    1    1    2    0    0 -0.60551057074E+00  0.89647024064E+00  0.47168266945E+00  0.11801637532E+01  0.00000000000E+00 0.  1.
         11    1    3    3    0    0  0.24386551639E+01  0.19497083454E+02  0.33355460649E+02  0.38712660172E+02  0.51100000000E-03 0. -1.
        -11    1    3    3    0    0 -0.18821551526E+01  0.87448069494E+01 -0.47393498464E+01  0.10123022959E+02  0.51100000000E-03 0.  1.
        -12    1    3    3    0    0  0.49010559427E-01 -0.29138360644E+02 -0.29087793472E+02  0.41172153116E+02  0.00000000000E+00 0.  1.
</event>
<event>
 7    1  0.2641103E-015  0.9000770E+02  0.7816164E-02  0.1186339E+00
        -11   -1    0    0    0    0  0.00000000000E+00  0.00000000000E+00  0.45593999997E+02  0.45594000000E+02  0.51100000000E-03 0.  1.
         11   -1    0    0    0    0 -0.00000000000E+00 -0.00000000000E+00 -0.45593999997E+02  0.45594000000E+02  0.51100000000E-03 0. -1.
    9900012    2    1    2    0    0 -0.98184749218E+00  0.41159889890E+00 -0.50957098744E+00  0.90007703112E+02  0.89999963994E+02 0.  0.
        -12    1    1    2    0    0  0.98184749218E+00 -0.41159889890E+00  0.50957098744E+00  0.11802968875E+01  0.00000000000E+00 0.  1.
         11    1    3    3    0    0 -0.23840999693E+02  0.27028727935E+02 -0.14979508699E+02  0.39029874216E+02  0.51100000000E-03 0. -1.
        -11    1    3    3    0    0 -0.74681216858E+01 -0.46211435667E+01 -0.34660911105E+01  0.94414827874E+01  0.51100000000E-03 0.  1.
        -12    1    3    3    0    0  0.30327273887E+02 -0.21995985470E+02  0.17936028822E+02  0.41536346109E+02  0.00000000000E+00 0.  1.
</event>
<event>
 7    1  0.2641103E-015  0.9000775E+02  0.7816164E-02  0.1186339E+00
        -11   -1    0    0    0    0  0.00000000000E+00  0.00000000000E+00  0.45593999997E+02  0.45594000000E+02  0.51100000000E-03 0.  1.
         11   -1    0    0    0    0 -0.00000000000E+00 -0.00000000000E+00 -0.45593999997E+02  0.45594000000E+02  0.51100000000E-03 0. -1.
    9900012    2    1    2    0    0 -0.10191650068E+01 -0.27801359282E+00 -0.52631720584E+00  0.90007746354E+02  0.90000007805E+02 0.  0.
        -12    1    1    2    0    0  0.10191650068E+01  0.27801359282E+00  0.52631720584E+00  0.11802536465E+01  0.00000000000E+00 0.  1.
         11    1    3    3    0    0  0.54014851628E+01  0.22255222206E+01 -0.77905771075E+01  0.97376631204E+01  0.51100000000E-03 0. -1.
        -11    1    3    3    0    0  0.28954662163E+02  0.22259824528E+02  0.64082790259E+01  0.37080160319E+02  0.51100000000E-03 0.  1.
         12    1    3    3    0    0 -0.35375312333E+02 -0.24763360341E+02  0.85598087568E+00  0.43189922914E+02  0.00000000000E+00 0. -1.
</event>
<event>
 7    1  0.2641103E-015  0.9000776E+02  0.7816164E-02  0.1186339E+00
        -11   -1    0    0    0    0  0.00000000000E+00  0.00000000000E+00  0.45593999997E+02  0.45594000000E+02  0.51100000000E-03 0. -1.
         11   -1    0    0    0    0 -0.00000000000E+00 -0.00000000000E+00 -0.45593999997E+02  0.45594000000E+02  0.51100000000E-03 0.  1.
    9900012    2    1    2    0    0  0.11093976255E+01 -0.36380710551E+00  0.17276427381E+00  0.90007760111E+02  0.90000021744E+02 0.  0.
        -12    1    1    2    0    0 -0.11093976255E+01  0.36380710551E+00 -0.17276427381E+00  0.11802398891E+01  0.00000000000E+00 0.  1.
         11    1    3    3    0    0 -0.17834320075E+02 -0.18346595661E+02 -0.32305586160E+02  0.41210574399E+02  0.51100000000E-03 0. -1.
        -11    1    3    3    0    0 -0.59132462295E+01  0.61162937187E+01  0.48902171139E+01  0.98127342523E+01  0.51100000000E-03 0.  1.
        -12    1    3    3    0    0  0.24856963930E+02  0.11866494837E+02  0.27588133320E+02  0.38984451460E+02  0.00000000000E+00 0.  1.
</event>
<event>
 7    1  0.2641103E-015  0.9000785E+02  0.7816164E-02  0.1186339E+00
        -11   -1    0    0    0    0  0.00000000000E+00  0.00000000000E+00  0.45593999997E+02  0.45594000000E+02  0.51100000000E-03 0.  1.
         11   -1    0    0    0    0 -0.00000000000E+00 -0.00000000000E+00 -0.45593999997E+02  0.45594000000E+02  0.51100000000E-03 0. -1.
    9900012    2    1    2    0    0  0.24549668243E+00  0.34792720726E+00 -0.11006456226E+01  0.90007854776E+02  0.90000117659E+02 0.  0.
        -12    1    1    2    0    0 -0.24549668243E+00 -0.34792720726E+00  0.11006456226E+01  0.11801452238E+01  0.00000000000E+00 0.  1.
         11    1    3    3    0    0 -0.22099010241E+02  0.13225854247E+02 -0.34489239166E+02  0.43044129596E+02  0.51100000000E-03 0. -1.
        -11    1    3    3    0    0  0.51782483342E+01 -0.82757846091E+01  0.73881275304E+00  0.97902355054E+01  0.51100000000E-03 0.  1.
        -12    1    3    3    0    0  0.17166258589E+02 -0.46021424310E+01  0.32649780790E+02  0.37173489674E+02  0.00000000000E+00 0.  1.
</event>
<event>
 7    1  0.2641103E-015  0.9000769E+02  0.7816164E-02  0.1186339E+00
        -11   -1    0    0    0    0  0.00000000000E+00  0.00000000000E+00  0.45593999997E+02  0.45594000000E+02  0.51100000000E-03 0.  1.
         11   -1    0    0    0    0 -0.00000000000E+00 -0.00000000000E+00 -0.45593999997E+02  0.45594000000E+02  0.51100000000E-03 0. -1.
    9900012    2    1    2    0    0  0.10148940131E+01 -0.49182600604E+00 -0.34818347871E+00  0.90007688849E+02  0.89999949542E+02 0.  0.
        -12    1    1    2    0    0 -0.10148940131E+01  0.49182600604E+00  0.34818347871E+00  0.11803111509E+01  0.00000000000E+00 0.  1.
         11    1    3    3    0    0  0.37176165272E+02 -0.57993988731E+01  0.17597136724E+01  0.37666920290E+02  0.51100000000E-03 0. -1.
        -11    1    3    3    0    0  0.62130446140E+01  0.66155108286E+01  0.31825226895E+01  0.96174506928E+01  0.51100000000E-03 0.  1.
        -12    1    3    3    0    0 -0.42374315873E+02 -0.13079379615E+01 -0.52904198406E+01  0.42723317867E+02  0.00000000000E+00 0.  1.
</event>
<event>
 7    1  0.2641103E-015  0.9000767E+02  0.7816164E-02  0.1186339E+00
        -11   -1    0    0    0    0  0.00000000000E+00  0.00000000000E+00  0.45593999997E+02  0.45594000000E+02  0.51100000000E-03 0.  1.
         11   -1    0    0    0    0 -0.00000000000E+00 -0.00000000000E+00 -0.45593999997E+02  0.45594000000E+02  0.51100000000E-03 0. -1.
    9900012    2    1    2    0    0 -0.10093017193E+01  0.43639901352E+00 -0.42900904673E+00  0.90007668342E+02  0.89999928765E+02 0.  0.
        -12    1    1    2    0    0  0.10093017193E+01 -0.43639901352E+00  0.42900904673E+00  0.11803316576E+01  0.00000000000E+00 0.  1.
         11    1    3    3    0    0  0.30164771765E+02 -0.22206803410E+02  0.11933083493E+01  0.37476386678E+02  0.51100000000E-03 0. -1.
        -11    1    3    3    0    0 -0.63573056238E+01  0.15246219696E+02 -0.15927874173E+02  0.22946889239E+02  0.51100000000E-03 0.  1.
        -12    1    3    3    0    0 -0.24816767861E+02  0.73969827283E+01  0.14305556777E+02  0.29584392426E+02  0.00000000000E+00 0.  1.
</event>
<event>
 7    1  0.2641103E-015  0.9000776E+02  0.7816164E-02  0.1186339E+00
        -11   -1    0    0    0    0  0.00000000000E+00  0.00000000000E+00  0.45593999997E+02  0.45594000000E+02  0.51100000000E-03 0.  1.
         11   -1    0    0    0    0 -0.00000000000E+00 -0.00000000000E+00 -0.45593999997E+02  0.45594000000E+02  0.51100000000E-03 0. -1.
    9900012    2    1    2    0    0 -0.47286883869E+00 -0.26720770807E+00 -0.10478341872E+01  0.90007762150E+02  0.90000023811E+02 0.  0.
        -12    1    1    2    0    0  0.47286883869E+00  0.26720770807E+00  0.10478341872E+01  0.11802378497E+01  0.00000000000E+00 0.  1.
         11    1    3    3    0    0 -0.34676328547E+02  0.19569381558E+02 -0.35277456556E+01  0.39973159067E+02  0.51100000000E-03 0. -1.
        -11    1    3    3    0    0  0.60377955821E+01  0.73442322157E+01 -0.40812010660E+01  0.10346445029E+02  0.51100000000E-03 0.  1.
        -12    1    3    3    0    0  0.28165664126E+02 -0.27180821482E+02  0.65611125344E+01  0.39688158055E+02  0.00000000000E+00 0.  1.
</event>
<event>
 7    1  0.2641103E-015  0.9000773E+02  0.7816164E-02  0.1186339E+00
        -11   -1    0    0    0    0  0.00000000000E+00  0.00000000000E+00  0.45593999997E+02  0.45594000000E+02  0.51100000000E-03 0.  1.
         11   -1    0    0    0    0 -0.00000000000E+00 -0.00000000000E+00 -0.45593999997E+02  0.45594000000E+02  0.51100000000E-03 0. -1.
    9900012    2    1    2    0    0 -0.96788667002E+00  0.63855270106E+00 -0.22020052455E+00  0.90007727816E+02  0.89999989023E+02 0.  0.
        -12    1    1    2    0    0  0.96788667002E+00 -0.63855270106E+00  0.22020052455E+00  0.11802721843E+01  0.00000000000E+00 0.  1.
         11    1    3    3    0    0  0.40097863849E+02 -0.45901343584E+01  0.76667159217E+01  0.41081462388E+02  0.51100000000E-03 0. -1.
        -11    1    3    3    0    0 -0.33322772170E+01 -0.73233642606E+01 -0.39566290174E+01  0.89660832578E+01  0.51100000000E-03 0.  1.
        -12    1    3    3    0    0 -0.37733473302E+02  0.12552051320E+02 -0.39302874289E+01  0.39960182170E+02  0.00000000000E+00 0.  1.
</event>
<event>
 7    1  0.2641103E-015  0.9000773E+02  0.7816164E-02  0.1186339E+00
        -11   -1    0    0    0    0  0.00000000000E+00  0.00000000000E+00  0.45593999997E+02  0.45594000000E+02  0.51100000000E-03 0. -1.
         11   -1    0    0    0    0 -0.00000000000E+00 -0.00000000000E+00 -0.45593999997E+02  0.45594000000E+02  0.51100000000E-03 0.  1.
    9900012    2    1    2    0    0 -0.88974646175E+00 -0.66111416360E+00  0.40535473353E+00  0.90007731741E+02  0.89999993000E+02 0.  0.
        -12    1    1    2    0    0  0.88974646175E+00  0.66111416360E+00 -0.40535473353E+00  0.11802682591E+01  0.00000000000E+00 0.  1.
         11    1    3    3    0    0 -0.85088439123E+01 -0.33993397363E+01  0.20688191639E+01  0.93933991909E+01  0.51100000000E-03 0. -1.
        -11    1    3    3    0    0 -0.12944057480E+02  0.33793767289E+02 -0.17431933093E+02  0.40167643984E+02  0.51100000000E-03 0.  1.
         12    1    3    3    0    0  0.20563154931E+02 -0.31055541716E+02  0.15768468663E+02  0.40446688566E+02  0.00000000000E+00 0. -1.
</event>
<event>
 7    1  0.2641103E-015  0.9000774E+02  0.7816164E-02  0.1186339E+00
        -11   -1    0    0    0    0  0.00000000000E+00  0.00000000000E+00  0.45593999997E+02  0.45594000000E+02  0.51100000000E-03 0.  1.
         11   -1    0    0    0    0 -0.00000000000E+00 -0.00000000000E+00 -0.45593999997E+02  0.45594000000E+02  0.51100000000E-03 0. -1.
    9900012    2    1    2    0    0  0.12714418177E+00  0.11704767941E+01 -0.82707223495E-01  0.90007736448E+02  0.89999997769E+02 0.  0.
        -12    1    1    2    0    0 -0.12714418177E+00 -0.11704767941E+01  0.82707223495E-01  0.11802635524E+01  0.00000000000E+00 0.  1.
         11    1    3    3    0    0  0.74330781074E+01 -0.61385692519E+01  0.53939477113E+01  0.11046599241E+02  0.51100000000E-03 0. -1.
        -11    1    3    3    0    0  0.25174704016E+02  0.10311281041E+02  0.23027971906E+02  0.35642330582E+02  0.51100000000E-03 0.  1.
         12    1    3    3    0    0 -0.32480637941E+02 -0.30022349952E+01 -0.28504626841E+02  0.43318806624E+02  0.00000000000E+00 0. -1.
</event>
<event>
 7    1  0.2641103E-015  0.9000792E+02  0.7816164E-02  0.1186339E+00
        -11   -1    0    0    0    0  0.00000000000E+00  0.00000000000E+00  0.45593999997E+02  0.45594000000E+02  0.51100000000E-03 0.  1.
         11   -1    0    0    0    0 -0.00000000000E+00 -0.00000000000E+00 -0.45593999997E+02  0.45594000000E+02  0.51100000000E-03 0. -1.
    9900012    2    1    2    0    0 -0.76494793930E+00 -0.87604788187E+00 -0.19998469465E+00  0.90007915630E+02  0.90000179317E+02 0.  0.
        -12    1    1    2    0    0  0.76494793930E+00  0.87604788187E+00  0.19998469465E+00  0.11800843695E+01  0.00000000000E+00 0.  1.
         11    1    3    3    0    0  0.70565773491E+01  0.10805493071E+02  0.13482850573E+01  0.12975817402E+02  0.51100000000E-03 0. -1.
        -11    1    3    3    0    0  0.10109973972E+02  0.26353659374E+02 -0.16148672586E+02  0.32519325987E+02  0.51100000000E-03 0.  1.
         12    1    3    3    0    0 -0.17931499260E+02 -0.38035200327E+02  0.14600402834E+02  0.44512772241E+02  0.00000000000E+00 0. -1.
</event>
<event>
 7    1  0.2641103E-015  0.9000769E+02  0.7816164E-02  0.1186339E+00
        -11   -1    0    0    0    0  0.00000000000E+00  0.00000000000E+00  0.45593999997E+02  0.45594000000E+02  0.51100000000E-03 0. -1.
         11   -1    0    0    0    0 -0.00000000000E+00 -0.00000000000E+00 -0.45593999997E+02  0.45594000000E+02  0.51100000000E-03 0.  1.
    9900012    2    1    2    0    0 -0.91343710531E+00  0.48152219620E+00  0.57174358776E+00  0.90007694234E+02  0.89999954998E+02 0.  0.
        -12    1    1    2    0    0  0.91343710531E+00 -0.48152219620E+00 -0.57174358776E+00  0.11803057659E+01  0.00000000000E+00 0.  1.
         11    1    3    3    0    0 -0.27700673307E+01  0.27796347067E+02  0.26421329329E+02  0.38449926230E+02  0.51100000000E-03 0. -1.
        -11    1    3    3    0    0  0.50356827872E+01  0.15106294331E+01  0.63367336042E+01  0.82337291339E+01  0.51100000000E-03 0.  1.
        -12    1    3    3    0    0 -0.31790525618E+01 -0.28825454304E+02 -0.32186319345E+02  0.43324038870E+02  0.00000000000E+00 0.  1.
</event>
<event>
 7    1  0.2641103E-015  0.9000774E+02  0.7816164E-02  0.1186339E+00
        -11   -1    0    0    0    0  0.00000000000E+00  0.00000000000E+00  0.45593999997E+02  0.45594000000E+02  0.51100000000E-03 0.  1.
         11   -1    0    0    0    0 -0.00000000000E+00 -0.00000000000E+00 -0.45593999997E+02  0.45594000000E+02  0.51100000000E-03 0. -1.
    9900012    2    1    2    0    0 -0.14973167077E+00  0.17746505526E+00 -0.11571952222E+01  0.90007739774E+02  0.90000001139E+02 0.  0.
        -12    1    1    2    0    0  0.14973167077E+00 -0.17746505526E+00  0.11571952222E+01  0.11802602261E+01  0.00000000000E+00 0.  1.
         11    1    3    3    0    0  0.24694290031E+01 -0.82622498140E+01 -0.49736578886E+01  0.99549045523E+01  0.51100000000E-03 0. -1.
        -11    1    3    3    0    0  0.34888963216E+02 -0.10266215536E+02 -0.63631819699E+01  0.36920523030E+02  0.51100000000E-03 0.  1.
         12    1    3    3    0    0 -0.37508123890E+02  0.18705930406E+02  0.10179644636E+02  0.43132312192E+02  0.00000000000E+00 0. -1.
</event>
<event>
 7    1  0.2641103E-015  0.9000775E+02  0.7816164E-02  0.1186339E+00
        -11   -1    0    0    0    0  0.00000000000E+00  0.00000000000E+00  0.45593999997E+02  0.45594000000E+02  0.51100000000E-03 0. -1.
         11   -1    0    0    0    0 -0.00000000000E+00 -0.00000000000E+00 -0.45593999997E+02  0.45594000000E+02  0.51100000000E-03 0.  1.
    9900012    2    1    2    0    0 -0.78032070296E+00 -0.84819165642E+00  0.25428252168E+00  0.90007750414E+02  0.90000011919E+02 0.  0.
        -12    1    1    2    0    0  0.78032070296E+00  0.84819165642E+00 -0.25428252168E+00  0.11802495865E+01  0.00000000000E+00 0.  1.
         11    1    3    3    0    0 -0.13973583855E+01 -0.48896987948E+00  0.91345489598E+01  0.92537390800E+01  0.51100000000E-03 0. -1.
        -11    1    3    3    0    0  0.34611827238E+02 -0.13428994921E+02  0.11693958390E+02  0.38923837843E+02  0.51100000000E-03 0.  1.
         12    1    3    3    0    0 -0.33994789556E+02  0.13069773144E+02 -0.20574224828E+02  0.41830173490E+02  0.00000000000E+00 0. -1.
</event>
<event>
 7    1  0.2641103E-015  0.9000772E+02  0.7816164E-02  0.1186339E+00
        -11   -1    0    0    0    0  0.00000000000E+00  0.00000000000E+00  0.45593999997E+02  0.45594000000E+02  0.51100000000E-03 0.  1.
         11   -1    0    0    0    0 -0.00000000000E+00 -0.00000000000E+00 -0.45593999997E+02  0.45594000000E+02  0.51100000000E-03 0. -1.
    9900012    2    1    2    0    0  0.61850313307E+00 -0.84223480813E+00 -0.54878313698E+00  0.90007716759E+02  0.89999977820E+02 0.  0.
        -12    1    1    2    0    0 -0.61850313307E+00  0.84223480813E+00  0.54878313698E+00  0.11802832410E+01  0.00000000000E+00 0.  1.
         11    1    3    3    0    0  0.73649834441E+01  0.52301577452E+01 -0.24253312097E+01  0.93530616864E+01  0.51100000000E-03 0. -1.
        -11    1    3    3    0    0 -0.26193749760E+02  0.26671448102E+02  0.15133201436E+02  0.40329796135E+02  0.51100000000E-03 0.  1.
         12    1    3    3    0    0  0.19447269449E+02 -0.32743840655E+02 -0.13256653363E+02  0.40324858937E+02  0.00000000000E+00 0. -1.
</event>
<event>
 7    1  0.2641103E-015  0.9000792E+02  0.7816164E-02  0.1186339E+00
        -11   -1    0    0    0    0  0.00000000000E+00  0.00000000000E+00  0.45593999997E+02  0.45594000000E+02  0.51100000000E-03 0. -1.
         11   -1    0    0    0    0 -0.00000000000E+00 -0.00000000000E+00 -0.45593999997E+02  0.45594000000E+02  0.51100000000E-03 0.  1.
    9900012    2    1    2    0    0  0.45594788146E+00 -0.10302898844E+01  0.35100972914E+00  0.90007917992E+02  0.90000181709E+02 0.  0.
        -12    1    1    2    0    0 -0.45594788146E+00  0.10302898844E+01 -0.35100972914E+00  0.11800820084E+01  0.00000000000E+00 0.  1.
         11    1    3    3    0    0  0.70162063840E+01  0.14336503760E+02  0.35750787021E+02  0.39152027598E+02  0.51100000000E-03 0. -1.
        -11    1    3    3    0    0 -0.25812387981E+01 -0.99614477651E+01  0.38868454575E+01  0.11000036508E+02  0.51100000000E-03 0.  1.
        -12    1    3    3    0    0 -0.39790197045E+01 -0.54053458796E+01 -0.39286622750E+02  0.39855853886E+02  0.00000000000E+00 0.  1.
</event>
<event>
 7    1  0.2641103E-015  0.9000755E+02  0.7816164E-02  0.1186339E+00
        -11   -1    0    0    0    0  0.00000000000E+00  0.00000000000E+00  0.45593999997E+02  0.45594000000E+02  0.51100000000E-03 0.  1.
         11   -1    0    0    0    0 -0.00000000000E+00 -0.00000000000E+00 -0.45593999997E+02  0.45594000000E+02  0.51100000000E-03 0. -1.
    9900012    2    1    2    0    0  0.99096791779E+00  0.59228447441E+00 -0.24626950990E+00  0.90007547975E+02  0.89999806808E+02 0.  0.
        -12    1    1    2    0    0 -0.99096791779E+00 -0.59228447441E+00  0.24626950990E+00  0.11804520254E+01  0.00000000000E+00 0.  1.
         11    1    3    3    0    0  0.37944110093E+02 -0.57367391404E+01 -0.12095341757E+02  0.40236338790E+02  0.51100000000E-03 0. -1.
        -11    1    3    3    0    0  0.13859886370E+01  0.71394583031E+01 -0.39735589082E+01  0.82874604084E+01  0.51100000000E-03 0.  1.
        -12    1    3    3    0    0 -0.38339130813E+02 -0.81043468823E+00  0.15822631156E+02  0.41483748776E+02  0.00000000000E+00 0.  1.
</event>
<event>
 7    1  0.2641103E-015  0.9000774E+02  0.7816164E-02  0.1186339E+00
        -11   -1    0    0    0    0  0.00000000000E+00  0.00000000000E+00  0.45593999997E+02  0.45594000000E+02  0.51100000000E-03 0.  1.
         11   -1    0    0    0    0 -0.00000000000E+00 -0.00000000000E+00 -0.45593999997E+02  0.45594000000E+02  0.51100000000E-03 0. -1.
    9900012    2    1    2    0    0  0.31592857655E+00 -0.10859101011E+00 -0.11319922105E+01  0.90007741877E+02  0.90000003269E+02 0.  0.
        -12    1    1    2    0    0 -0.31592857655E+00  0.10859101011E+00  0.11319922105E+01  0.11802581233E+01  0.00000000000E+00 0.  1.
         11    1    3    3    0    0  0.32261734779E+01  0.75965531762E+01  0.53461402387E+01  0.98334648614E+01  0.51100000000E-03 0. -1.
        -11    1    3    3    0    0  0.34298177416E+02 -0.30698040716E+01  0.14322587460E+02  0.37295109369E+02  0.51100000000E-03 0.  1.
         12    1    3    3    0    0 -0.37208422317E+02 -0.46353401147E+01 -0.20800719909E+02  0.42879167646E+02  0.00000000000E+00 0. -1.
</event>
<event>
 7    1  0.2641103E-015  0.9000772E+02  0.7816164E-02  0.1186339E+00
        -11   -1    0    0    0    0  0.00000000000E+00  0.00000000000E+00  0.45593999997E+02  0.45594000000E+02  0.51100000000E-03 0.  1.
         11   -1    0    0    0    0 -0.00000000000E+00 -0.00000000000E+00 -0.45593999997E+02  0.45594000000E+02  0.51100000000E-03 0. -1.
    9900012    2    1    2    0    0  0.10992436403E+00  0.10942717768E+01 -0.42842833013E+00  0.90007718287E+02  0.89999979369E+02 0.  0.
        -12    1    1    2    0    0 -0.10992436403E+00 -0.10942717768E+01  0.42842833013E+00  0.11802817128E+01  0.00000000000E+00 0.  1.
         11    1    3    3    0    0  0.26467534785E+00 -0.47025619313E+01  0.84658794546E+01  0.96878922867E+01  0.51100000000E-03 0. -1.
        -11    1    3    3    0    0 -0.10293331492E+02 -0.33212023495E+02 -0.17771539619E+02  0.39048928263E+02  0.51100000000E-03 0.  1.
         12    1    3    3    0    0  0.10138580508E+02  0.39008857203E+02  0.88772318342E+01  0.41270897737E+02  0.00000000000E+00 0. -1.
</event>
<event>
 7    1  0.2641103E-015  0.9000756E+02  0.7816164E-02  0.1186339E+00
        -11   -1    0    0    0    0  0.00000000000E+00  0.00000000000E+00  0.45593999997E+02  0.45594000000E+02  0.51100000000E-03 0.  1.
         11   -1    0    0    0    0 -0.00000000000E+00 -0.00000000000E+00 -0.45593999997E+02  0.45594000000E+02  0.51100000000E-03 0. -1.
    9900012    2    1    2    0    0 -0.79571386933E+00 -0.81970347351E+00 -0.29727275096E+00  0.90007557102E+02  0.89999816056E+02 0.  0.
        -12    1    1    2    0    0  0.79571386933E+00  0.81970347351E+00  0.29727275096E+00  0.11804428977E+01  0.00000000000E+00 0.  1.
         11    1    3    3    0    0  0.30696126040E+02 -0.36175996110E+00 -0.22063176371E+02  0.37804322186E+02  0.51100000000E-03 0. -1.
        -11    1    3    3    0    0 -0.20874888939E+01  0.18501556117E+01 -0.90957408305E+01  0.95138418731E+01  0.51100000000E-03 0.  1.
        -12    1    3    3    0    0 -0.29404351015E+02 -0.23080991241E+01  0.30861644450E+02  0.42689393043E+02  0.00000000000E+00 0.  1.
</event>
<event>
 7    1  0.2641103E-015  0.9000782E+02  0.7816164E-02  0.1186339E+00
        -11   -1    0    0    0    0  0.00000000000E+00  0.00000000000E+00  0.45593999997E+02  0.45594000000E+02  0.51100000000E-03 0. -1.
         11   -1    0    0    0    0 -0.00000000000E+00 -0.00000000000E+00 -0.45593999997E+02  0.45594000000E+02  0.51100000000E-03 0.  1.
    9900012    2    1    2    0    0 -0.94289596097E+00  0.68078675581E+00 -0.20076832661E+00  0.90007817251E+02  0.90000079639E+02 0.  0.
        -12    1    1    2    0    0  0.94289596097E+00 -0.68078675581E+00  0.20076832661E+00  0.11801827490E+01  0.00000000000E+00 0.  1.
         11    1    3    3    0    0 -0.13632305862E+01 -0.62784560930E+01  0.67176769385E+01  0.92954070516E+01  0.51100000000E-03 0. -1.
        -11    1    3    3    0    0 -0.12300142665E+02  0.20900558956E+02 -0.37569699924E+02  0.44716990360E+02  0.51100000000E-03 0.  1.
         12    1    3    3    0    0  0.12720477290E+02 -0.13941316107E+02  0.30651254658E+02  0.35995419839E+02  0.00000000000E+00 0. -1.
</event>
<event>
 7    1  0.2641103E-015  0.9000770E+02  0.7816164E-02  0.1186339E+00
        -11   -1    0    0    0    0  0.00000000000E+00  0.00000000000E+00  0.45593999997E+02  0.45594000000E+02  0.51100000000E-03 0.  1.
         11   -1    0    0    0    0 -0.00000000000E+00 -0.00000000000E+00 -0.45593999997E+02  0.45594000000E+02  0.51100000000E-03 0. -1.
    9900012    2    1    2    0    0 -0.11341597526E+01  0.29470587786E+00  0.14118650096E+00  0.90007701933E+02  0.89999962798E+02 0.  0.
        -12    1    1    2    0    0  0.11341597526E+01 -0.29470587786E+00 -0.14118650096E+00  0.11802980670E+01  0.00000000000E+00 0.  1.
         11    1    3    3    0    0 -0.23520101713E+01 -0.26811926152E+01 -0.83962931493E+01  0.91224165984E+01  0.51100000000E-03 0. -1.
        -11    1    3    3    0    0  0.42930071939E+01 -0.23577355558E+02  0.35555971925E+02  0.42878301572E+02  0.51100000000E-03 0.  1.
         12    1    3    3    0    0 -0.30751567753E+01  0.26553254051E+02 -0.27018492275E+02  0.38006983762E+02  0.00000000000E+00 0. -1.
</event>
<event>
 7    1  0.2641103E-015  0.9000776E+02  0.7816164E-02  0.1186339E+00
        -11   -1    0    0    0    0  0.00000000000E+00  0.00000000000E+00  0.45593999997E+02  0.45594000000E+02  0.51100000000E-03 0. -1.
         11   -1    0    0    0    0 -0.00000000000E+00 -0.00000000000E+00 -0.45593999997E+02  0.45594000000E+02  0.51100000000E-03 0.  1.
    9900012    2    1    2    0    0 -0.94833288962E+00 -0.58139217091E-01  0.70017939689E+00  0.90007759929E+02  0.90000021560E+02 0.  0.
        -12    1    1    2    0    0  0.94833288962E+00  0.58139217091E-01 -0.70017939689E+00  0.11802400713E+01  0.00000000000E+00 0.  1.
         11    1    3    3    0    0 -0.20457181207E+02  0.34009911199E+02 -0.89999707892E+01  0.40696066115E+02  0.51100000000E-03 0. -1.
        -11    1    3    3    0    0  0.16986025964E+01 -0.42181204868E+01 -0.88221777073E+01  0.99251504261E+01  0.51100000000E-03 0.  1.
        -12    1    3    3    0    0  0.17810245721E+02 -0.29849929930E+02  0.18522327893E+02  0.39386543388E+02  0.00000000000E+00 0.  1.
</event>
<event>
 7    1  0.2641103E-015  0.9000767E+02  0.7816164E-02  0.1186339E+00
        -11   -1    0    0    0    0  0.00000000000E+00  0.00000000000E+00  0.45593999997E+02  0.45594000000E+02  0.51100000000E-03 0.  1.
         11   -1    0    0    0    0 -0.00000000000E+00 -0.00000000000E+00 -0.45593999997E+02  0.45594000000E+02  0.51100000000E-03 0. -1.
    9900012    2    1    2    0    0  0.10386139740E+01 -0.21916136854E-01 -0.56032875246E+00  0.90007674784E+02  0.89999935291E+02 0.  0.
        -12    1    1    2    0    0 -0.10386139740E+01  0.21916136854E-01  0.56032875246E+00  0.11803252158E+01  0.00000000000E+00 0.  1.
         11    1    3    3    0    0 -0.60403773918E+01  0.35600132249E-01  0.70289643385E+01  0.92678889903E+01  0.51100000000E-03 0. -1.
        -11    1    3    3    0    0  0.26896476077E+02  0.32134747850E+02  0.12226498312E+01  0.41923231240E+02  0.51100000000E-03 0.  1.
         12    1    3    3    0    0 -0.19817484711E+02 -0.32192264119E+02 -0.88119429221E+01  0.38816554554E+02  0.00000000000E+00 0. -1.
</event>
<event>
 7    1  0.2641103E-015  0.9000767E+02  0.7816164E-02  0.1186339E+00
        -11   -1    0    0    0    0  0.00000000000E+00  0.00000000000E+00  0.45593999997E+02  0.45594000000E+02  0.51100000000E-03 0. -1.
         11   -1    0    0    0    0 -0.00000000000E+00 -0.00000000000E+00 -0.45593999997E+02  0.45594000000E+02  0.51100000000E-03 0.  1.
    9900012    2    1    2    0    0 -0.57669471808E+00  0.73913380636E+00 -0.71713020092E+00  0.90007673220E+02  0.89999933707E+02 0.  0.
        -12    1    1    2    0    0  0.57669471808E+00 -0.73913380636E+00  0.71713020092E+00  0.11803267796E+01  0.00000000000E+00 0.  1.
         11    1    3    3    0    0  0.30683604873E+02 -0.13058233267E+02  0.17549026181E+02  0.37682481132E+02  0.51100000000E-03 0. -1.
        -11    1    3    3    0    0 -0.20094049554E+01 -0.81774384995E+01  0.41816992592E+01  0.94018518199E+01  0.51100000000E-03 0.  1.
        -12    1    3    3    0    0 -0.29250894636E+02  0.21974805573E+02 -0.22447855641E+02  0.42923340269E+02  0.00000000000E+00 0.  1.
</event>
<event>
 7    1  0.2641103E-015  0.9000777E+02  0.7816164E-02  0.1186339E+00
        -11   -1    0    0    0    0  0.00000000000E+00  0.00000000000E+00  0.45593999997E+02  0.45594000000E+02  0.51100000000E-03 0.  1.
         11   -1    0    0    0    0 -0.00000000000E+00 -0.00000000000E+00 -0.45593999997E+02  0.45594000000E+02  0.51100000000E-03 0. -1.
    9900012    2    1    2    0    0 -0.26884218346E+00  0.92799308819E+00 -0.67786136741E+00  0.90007769800E+02  0.90000031561E+02 0.  0.
        -12    1    1    2    0    0  0.26884218346E+00 -0.92799308819E+00  0.67786136741E+00  0.11802301999E+01  0.00000000000E+00 0.  1.
         11    1    3    3    0    0 -0.13630700400E+02 -0.28568444634E+02 -0.20310159006E+02  0.37609235319E+02  0.51100000000E-03 0. -1.
        -11    1    3    3    0    0  0.69271281967E+01 -0.73729806306E+01 -0.39868090089E-01  0.10116696010E+02  0.51100000000E-03 0.  1.
        -12    1    3    3    0    0  0.64347300196E+01  0.36869418352E+02  0.19672165728E+02  0.42281838471E+02  0.00000000000E+00 0.  1.
</event>
<event>
 7    1  0.2641103E-015  0.9000767E+02  0.7816164E-02  0.1186339E+00
        -11   -1    0    0    0    0  0.00000000000E+00  0.00000000000E+00  0.45593999997E+02  0.45594000000E+02  0.51100000000E-03 0.  1.
         11   -1    0    0    0    0 -0.00000000000E+00 -0.00000000000E+00 -0.45593999997E+02  0.45594000000E+02  0.51100000000E-03 0. -1.
    9900012    2    1    2    0    0  0.11482079624E+01 -0.20582756212E+00 -0.18007357456E+00  0.90007672502E+02  0.89999932979E+02 0.  0.
        -12    1    1    2    0    0 -0.11482079624E+01  0.20582756212E+00  0.18007357456E+00  0.11803274980E+01  0.00000000000E+00 0.  1.
         11    1    3    3    0    0 -0.12371258077E+02  0.37609180229E+02 -0.98361456529E+01  0.40795198559E+02  0.51100000000E-03 0. -1.
        -11    1    3    3    0    0  0.25900541672E+01 -0.56372223010E+00 -0.66094567660E+01  0.71211714165E+01  0.51100000000E-03 0.  1.
        -12    1    3    3    0    0  0.10929411872E+02 -0.37251285561E+02  0.16265528844E+02  0.42091302527E+02  0.00000000000E+00 0.  1.
</event>
<event>
 7    1  0.2641103E-015  0.9000777E+02  0.7816164E-02  0.1186339E+00
        -11   -1    0    0    0    0  0.00000000000E+00  0.00000000000E+00  0.45593999997E+02  0.45594000000E+02  0.51100000000E-03 0.  1.
         11   -1    0    0    0    0 -0.00000000000E+00 -0.00000000000E+00 -0.45593999997E+02  0.45594000000E+02  0.51100000000E-03 0. -1.
    9900012    2    1    2    0    0  0.33826817292E+00  0.11305883808E+01  0.16613768215E-01  0.90007774826E+02  0.90000036654E+02 0.  0.
        -12    1    1    2    0    0 -0.33826817292E+00 -0.11305883808E+01 -0.16613768215E-01  0.11802251738E+01  0.00000000000E+00 0.  1.
         11    1    3    3    0    0 -0.34682438287E+02 -0.44797562095E+01 -0.27964000017E+01  0.35082183433E+02  0.51100000000E-03 0. -1.
        -11    1    3    3    0    0 -0.88505297434E+01 -0.28457541861E+01 -0.32259141039E+01  0.98405648056E+01  0.51100000000E-03 0.  1.
        -12    1    3    3    0    0  0.43871236203E+02  0.84560987764E+01  0.60389278738E+01  0.45085026587E+02  0.00000000000E+00 0.  1.
</event>
<event>
 7    1  0.2641103E-015  0.9000766E+02  0.7816164E-02  0.1186339E+00
        -11   -1    0    0    0    0  0.00000000000E+00  0.00000000000E+00  0.45593999997E+02  0.45594000000E+02  0.51100000000E-03 0. -1.
         11   -1    0    0    0    0 -0.00000000000E+00 -0.00000000000E+00 -0.45593999997E+02  0.45594000000E+02  0.51100000000E-03 0.  1.
    9900012    2    1    2    0    0  0.11474487212E+00 -0.85021517678E+00  0.81066647032E+00  0.90007655830E+02  0.89999916087E+02 0.  0.
        -12    1    1    2    0    0 -0.11474487212E+00  0.85021517678E+00 -0.81066647032E+00  0.11803441696E+01  0.00000000000E+00 0.  1.
         11    1    3    3    0    0  0.44911906350E+01  0.76846547330E+01  0.26690078904E+01  0.92923794082E+01  0.51100000000E-03 0. -1.
        -11    1    3    3    0    0  0.25712819576E+02 -0.23418842728E+02 -0.22391802064E+02  0.41364043386E+02  0.51100000000E-03 0.  1.
         12    1    3    3    0    0 -0.30089265338E+02  0.14883972819E+02  0.20533460644E+02  0.39351233037E+02  0.00000000000E+00 0. -1.
</event>
<event>
 7    1  0.2641103E-015  0.9000782E+02  0.7816164E-02  0.1186339E+00
        -11   -1    0    0    0    0  0.00000000000E+00  0.00000000000E+00  0.45593999997E+02  0.45594000000E+02  0.51100000000E-03 0.  1.
         11   -1    0    0    0    0 -0.00000000000E+00 -0.00000000000E+00 -0.45593999997E+02  0.45594000000E+02  0.51100000000E-03 0. -1.
    9900012    2    1    2    0    0  0.20227781622E+00  0.92643658380E+00  0.70258650417E+00  0.90007818296E+02  0.90000080697E+02 0.  0.
        -12    1    1    2    0    0 -0.20227781622E+00 -0.92643658380E+00 -0.70258650417E+00  0.11801817041E+01  0.00000000000E+00 0.  1.
         11    1    3    3    0    0 -0.26562696728E+02  0.19616302927E+02 -0.22751876956E+02  0.40100175850E+02  0.51100000000E-03 0. -1.
        -11    1    3    3    0    0  0.10877906141E+01  0.16798227373E+01 -0.57003353794E+01  0.60414333190E+01  0.51100000000E-03 0.  1.
        -12    1    3    3    0    0  0.25677183930E+02 -0.20369689080E+02  0.29154798839E+02  0.43866209127E+02  0.00000000000E+00 0.  1.
</event>
<event>
 7    1  0.2641103E-015  0.9000778E+02  0.7816164E-02  0.1186339E+00
        -11   -1    0    0    0    0  0.00000000000E+00  0.00000000000E+00  0.45593999997E+02  0.45594000000E+02  0.51100000000E-03 0. -1.
         11   -1    0    0    0    0 -0.00000000000E+00 -0.00000000000E+00 -0.45593999997E+02  0.45594000000E+02  0.51100000000E-03 0.  1.
    9900012    2    1    2    0    0  0.57971298361E+00 -0.56691093353E+00 -0.85759459047E+00  0.90007778143E+02  0.90000040015E+02 0.  0.
        -12    1    1    2    0    0 -0.57971298361E+00  0.56691093353E+00  0.85759459047E+00  0.11802218569E+01  0.00000000000E+00 0.  1.
         11    1    3    3    0    0 -0.18516754543E+02 -0.46301135682E+01  0.33954495703E-02  0.19086858365E+02  0.51100000000E-03 0. -1.
        -11    1    3    3    0    0 -0.10450926664E+02 -0.26434464146E+02 -0.12993413145E+01  0.28455070742E+02  0.51100000000E-03 0.  1.
         12    1    3    3    0    0  0.29547394190E+02  0.30497666781E+02  0.43835127444E+00  0.42465849036E+02  0.00000000000E+00 0. -1.
</event>
<event>
 7    1  0.2641103E-015  0.9000772E+02  0.7816164E-02  0.1186339E+00
        -11   -1    0    0    0    0  0.00000000000E+00  0.00000000000E+00  0.45593999997E+02  0.45594000000E+02  0.51100000000E-03 0. -1.
         11   -1    0    0    0    0 -0.00000000000E+00 -0.00000000000E+00 -0.45593999997E+02  0.45594000000E+02  0.51100000000E-03 0.  1.
    9900012    2    1    2    0    0  0.82309378870E+00 -0.84495657122E+00 -0.40452371641E-01  0.90007715548E+02  0.89999976594E+02 0.  0.
        -12    1    1    2    0    0 -0.82309378870E+00  0.84495657122E+00  0.40452371641E-01  0.11802844516E+01  0.00000000000E+00 0.  1.
         11    1    3    3    0    0  0.24424239357E+01 -0.39999392447E+01 -0.75039558145E+01  0.88472765171E+01  0.51100000000E-03 0. -1.
        -11    1    3    3    0    0  0.19275182693E+02  0.19435995305E+01 -0.31471672037E+02  0.36956412002E+02  0.51100000000E-03 0.  1.
         12    1    3    3    0    0 -0.20894512840E+02  0.12113831429E+01  0.38935175480E+02  0.44204027029E+02  0.00000000000E+00 0. -1.
</event>
<event>
 7    1  0.2641103E-015  0.9000771E+02  0.7816164E-02  0.1186339E+00
        -11   -1    0    0    0    0  0.00000000000E+00  0.00000000000E+00  0.45593999997E+02  0.45594000000E+02  0.51100000000E-03 0. -1.
         11   -1    0    0    0    0 -0.00000000000E+00 -0.00000000000E+00 -0.45593999997E+02  0.45594000000E+02  0.51100000000E-03 0.  1.
    9900012    2    1    2    0    0 -0.11015504098E+01  0.13685342826E+00  0.40116629702E+00  0.90007713355E+02  0.89999974371E+02 0.  0.
        -12    1    1    2    0    0  0.11015504098E+01 -0.13685342826E+00 -0.40116629702E+00  0.11802866449E+01  0.00000000000E+00 0.  1.
         11    1    3    3    0    0 -0.17910802601E+02  0.31795102773E+02 -0.31049757373E+00  0.36494134038E+02  0.51100000000E-03 0. -1.
        -11    1    3    3    0    0 -0.31659672596E+01  0.82315116321E+01  0.11903284384E+01  0.88993266313E+01  0.51100000000E-03 0.  1.
        -12    1    3    3    0    0  0.19975219451E+02 -0.39889760977E+02 -0.47866456765E+00  0.44614252686E+02  0.00000000000E+00 0.  1.
</event>
<event>
 7    1  0.2641103E-015  0.9000776E+02  0.7816164E-02  0.1186339E+00
        -11   -1    0    0    0    0  0.00000000000E+00  0.00000000000E+00  0.45593999997E+02  0.45594000000E+02  0.51100000000E-03 0.  1.
         11   -1    0    0    0    0 -0.00000000000E+00 -0.00000000000E+00 -0.45593999997E+02  0.45594000000E+02  0.51100000000E-03 0. -1.
    9900012    2    1    2    0    0 -0.11342996241E+01 -0.68604153504E-01  0.31877103532E+00  0.90007763947E+02  0.90000025631E+02 0.  0.
        -12    1    1    2    0    0  0.11342996241E+01  0.68604153504E-01 -0.31877103532E+00  0.11802360527E+01  0.00000000000E+00 0.  1.
         11    1    3    3    0    0 -0.32812272973E+02  0.24962061204E+02 -0.74664164607E+01  0.41898653108E+02  0.51100000000E-03 0. -1.
        -11    1    3    3    0    0 -0.15012950511E+01 -0.92939724280E+01 -0.29228188873E+01  0.98577218886E+01  0.51100000000E-03 0.  1.
        -12    1    3    3    0    0  0.33179268400E+02 -0.15736692930E+02  0.10708006383E+02  0.38251388951E+02  0.00000000000E+00 0.  1.
</event>
<event>
 7    1  0.2641103E-015  0.9000772E+02  0.7816164E-02  0.1186339E+00
        -11   -1    0    0    0    0  0.00000000000E+00  0.00000000000E+00  0.45593999997E+02  0.45594000000E+02  0.51100000000E-03 0.  1.
         11   -1    0    0    0    0 -0.00000000000E+00 -0.00000000000E+00 -0.45593999997E+02  0.45594000000E+02  0.51100000000E-03 0. -1.
    9900012    2    1    2    0    0  0.10493416497E+01 -0.71691548104E-01 -0.53553008215E+00  0.90007724589E+02  0.89999985754E+02 0.  0.
        -12    1    1    2    0    0 -0.10493416497E+01  0.71691548104E-01  0.53553008215E+00  0.11802754106E+01  0.00000000000E+00 0.  1.
         11    1    3    3    0    0  0.81457775264E+01 -0.37507353465E+01  0.15405189467E+01  0.90991706235E+01  0.51100000000E-03 0. -1.
        -11    1    3    3    0    0 -0.64540434974E+01 -0.30732224615E+02  0.22488201947E+02  0.38624390408E+02  0.51100000000E-03 0.  1.
         12    1    3    3    0    0 -0.64239237921E+00  0.34411268414E+02 -0.24564250976E+02  0.42284163558E+02  0.00000000000E+00 0. -1.
</event>
<event>
 7    1  0.2641103E-015  0.9000771E+02  0.7816164E-02  0.1186339E+00
        -11   -1    0    0    0    0  0.00000000000E+00  0.00000000000E+00  0.45593999997E+02  0.45594000000E+02  0.51100000000E-03 0.  1.
         11   -1    0    0    0    0 -0.00000000000E+00 -0.00000000000E+00 -0.45593999997E+02  0.45594000000E+02  0.51100000000E-03 0. -1.
    9900012    2    1    2    0    0 -0.50017688035E+00  0.75092179487E+00  0.76093505387E+00  0.90007710794E+02  0.89999971776E+02 0.  0.
        -12    1    1    2    0    0  0.50017688035E+00 -0.75092179487E+00 -0.76093505387E+00  0.11802892060E+01  0.00000000000E+00 0.  1.
         11    1    3    3    0    0 -0.37177065578E+01 -0.90147067793E+01  0.30966744833E+01  0.10231113013E+02  0.51100000000E-03 0. -1.
        -11    1    3    3    0    0 -0.25024700241E+02 -0.11351287640E+02  0.23422655451E+02  0.36106898813E+02  0.51100000000E-03 0.  1.
         12    1    3    3    0    0  0.28242229919E+02  0.21116916214E+02 -0.25758394880E+02  0.43669698968E+02  0.00000000000E+00 0. -1.
</event>
<event>
 7    1  0.2641103E-015  0.9000773E+02  0.7816164E-02  0.1186339E+00
        -11   -1    0    0    0    0  0.00000000000E+00  0.00000000000E+00  0.45593999997E+02  0.45594000000E+02  0.51100000000E-03 0. -1.
         11   -1    0    0    0    0 -0.00000000000E+00 -0.00000000000E+00 -0.45593999997E+02  0.45594000000E+02  0.51100000000E-03 0.  1.
    9900012    2    1    2    0    0 -0.83244922945E+00 -0.20299287280E-01  0.83645868173E+00  0.90007725919E+02  0.89999987101E+02 0.  0.
        -12    1    1    2    0    0  0.83244922945E+00  0.20299287280E-01 -0.83645868173E+00  0.11802740813E+01  0.00000000000E+00 0.  1.
         11    1    3    3    0    0  0.65484482874E+01 -0.65399331744E+01 -0.13067220497E-01  0.92548944841E+01  0.51100000000E-03 0. -1.
        -11    1    3    3    0    0  0.52994505270E+01  0.42170857714E+02  0.44896280794E+01  0.42739000653E+02  0.51100000000E-03 0.  1.
         12    1    3    3    0    0 -0.12680348044E+02 -0.35651223827E+02 -0.36401021771E+01  0.38013830782E+02  0.00000000000E+00 0. -1.
</event>
<event>
 7    1  0.2641103E-015  0.9000775E+02  0.7816164E-02  0.1186339E+00
        -11   -1    0    0    0    0  0.00000000000E+00  0.00000000000E+00  0.45593999997E+02  0.45594000000E+02  0.51100000000E-03 0.  1.
         11   -1    0    0    0    0 -0.00000000000E+00 -0.00000000000E+00 -0.45593999997E+02  0.45594000000E+02  0.51100000000E-03 0. -1.
    9900012    2    1    2    0    0  0.11786271509E+01  0.33679873852E-01 -0.51973940665E-01  0.90007746813E+02  0.90000008271E+02 0.  0.
        -12    1    1    2    0    0 -0.11786271509E+01 -0.33679873852E-01  0.51973940665E-01  0.11802531869E+01  0.00000000000E+00 0.  1.
         11    1    3    3    0    0 -0.25636188903E+02 -0.24424209899E+02 -0.12539711317E+02  0.37563287540E+02  0.51100000000E-03 0. -1.
        -11    1    3    3    0    0  0.89874081024E+01 -0.53562952734E+01 -0.70245335418E+01  0.12601883795E+02  0.51100000000E-03 0.  1.
        -12    1    3    3    0    0  0.17827407951E+02  0.29814185046E+02  0.19512270919E+02  0.39842575477E+02  0.00000000000E+00 0.  1.
</event>
<event>
 7    1  0.2641103E-015  0.9000770E+02  0.7816164E-02  0.1186339E+00
        -11   -1    0    0    0    0  0.00000000000E+00  0.00000000000E+00  0.45593999997E+02  0.45594000000E+02  0.51100000000E-03 0.  1.
         11   -1    0    0    0    0 -0.00000000000E+00 -0.00000000000E+00 -0.45593999997E+02  0.45594000000E+02  0.51100000000E-03 0. -1.
    9900012    2    1    2    0    0  0.48857282660E+00 -0.10678851996E+01 -0.11847644764E+00  0.90007695431E+02  0.89999956211E+02 0.  0.
        -12    1    1    2    0    0 -0.48857282660E+00  0.10678851996E+01  0.11847644764E+00  0.11803045688E+01  0.00000000000E+00 0.  1.
         11    1    3    3    0    0 -0.17277178704E+02  0.26970849106E+02 -0.10367322935E+02  0.33666140120E+02  0.51100000000E-03 0. -1.
        -11    1    3    3    0    0 -0.10962062760E+02 -0.78377162883E+00 -0.71258568295E+01  0.13098051524E+02  0.51100000000E-03 0.  1.
        -12    1    3    3    0    0  0.28727814291E+02 -0.27254962677E+02  0.17374703317E+02  0.43243503787E+02  0.00000000000E+00 0.  1.
</event>
<event>
 7    1  0.6296332E-015  0.9000776E+02  0.7816164E-02  0.1186339E+00
        -11   -1    0    0    0    0  0.00000000000E+00  0.00000000000E+00  0.45593999997E+02  0.45594000000E+02  0.51100000000E-03 0. -1.
         11   -1    0    0    0    0 -0.00000000000E+00 -0.00000000000E+00 -0.45593999997E+02  0.45594000000E+02  0.51100000000E-03 0.  1.
    9900012    2    1    2    0    0 -0.17594540993E+00 -0.45016642581E+00  0.10767367536E+01  0.90007759078E+02  0.90000020698E+02 0.  0.
        -12    1    1    2    0    0  0.17594540993E+00  0.45016642581E+00 -0.10767367536E+01  0.11802409223E+01  0.00000000000E+00 0.  1.
         11    1    3    3    0    0 -0.72924786608E+01  0.33030827261E+01  0.51710819264E+01  0.95305135782E+01  0.51100000000E-03 0. -1.
        -11    1    3    3    0    0 -0.21604673657E+02  0.23487732121E+01 -0.32844525582E+02  0.39383264471E+02  0.51100000000E-03 0.  1.
         12    1    3    3    0    0  0.28721206908E+02 -0.61020223640E+01  0.28750180409E+02  0.41093981028E+02  0.00000000000E+00 0. -1.
</event>
<event>
 7    1  0.2641103E-015  0.9000764E+02  0.7816164E-02  0.1186339E+00
        -11   -1    0    0    0    0  0.00000000000E+00  0.00000000000E+00  0.45593999997E+02  0.45594000000E+02  0.51100000000E-03 0.  1.
         11   -1    0    0    0    0 -0.00000000000E+00 -0.00000000000E+00 -0.45593999997E+02  0.45594000000E+02  0.51100000000E-03 0. -1.
    9900012    2    1    2    0    0 -0.77050727913E+00  0.77400895318E-01 -0.89082549997E+00  0.90007643089E+02  0.89999903178E+02 0.  0.
        -12    1    1    2    0    0  0.77050727913E+00 -0.77400895318E-01  0.89082549997E+00  0.11803569109E+01  0.00000000000E+00 0.  1.
         11    1    3    3    0    0  0.60445566860E+01  0.83167296305E+01 -0.17696288250E+01  0.10432461058E+02  0.51100000000E-03 0. -1.
        -11    1    3    3    0    0  0.21837499166E+02 -0.34410544884E+02  0.10640002047E+01  0.40768787886E+02  0.51100000000E-03 0.  1.
         12    1    3    3    0    0 -0.28652563131E+02  0.26171216149E+02 -0.18519687969E+00  0.38806394145E+02  0.00000000000E+00 0. -1.
</event>
<event>
 7    1  0.2641103E-015  0.9000770E+02  0.7816164E-02  0.1186339E+00
        -11   -1    0    0    0    0  0.00000000000E+00  0.00000000000E+00  0.45593999997E+02  0.45594000000E+02  0.51100000000E-03 0. -1.
         11   -1    0    0    0    0 -0.00000000000E+00 -0.00000000000E+00 -0.45593999997E+02  0.45594000000E+02  0.51100000000E-03 0.  1.
    9900012    2    1    2    0    0  0.66314257254E+00 -0.94453778714E+00  0.24740436300E+00  0.90007695539E+02  0.89999956320E+02 0.  0.
        -12    1    1    2    0    0 -0.66314257254E+00  0.94453778714E+00 -0.24740436300E+00  0.11803044614E+01  0.00000000000E+00 0.  1.
         11    1    3    3    0    0 -0.32323231054E+02 -0.18360427607E+02  0.18580456747E+01  0.37220275411E+02  0.51100000000E-03 0. -1.
        -11    1    3    3    0    0 -0.35864169407E+01 -0.65714791960E+01 -0.48662276209E+01  0.89289919260E+01  0.51100000000E-03 0.  1.
        -12    1    3    3    0    0  0.36572790567E+02  0.23987369015E+02  0.32555863092E+01  0.43858428202E+02  0.00000000000E+00 0.  1.
</event>
<event>
 7    1  0.2641103E-015  0.9000766E+02  0.7816164E-02  0.1186339E+00
        -11   -1    0    0    0    0  0.00000000000E+00  0.00000000000E+00  0.45593999997E+02  0.45594000000E+02  0.51100000000E-03 0.  1.
         11   -1    0    0    0    0 -0.00000000000E+00 -0.00000000000E+00 -0.45593999997E+02  0.45594000000E+02  0.51100000000E-03 0. -1.
    9900012    2    1    2    0    0 -0.44904162947E+00 -0.64149724207E+00 -0.88320322072E+00  0.90007658937E+02  0.89999919235E+02 0.  0.
        -12    1    1    2    0    0  0.44904162947E+00  0.64149724207E+00  0.88320322072E+00  0.11803410633E+01  0.00000000000E+00 0.  1.
         11    1    3    3    0    0 -0.42953994785E+01  0.67543527653E+01 -0.33034915410E+01  0.86593761081E+01  0.51100000000E-03 0. -1.
        -11    1    3    3    0    0  0.27565778218E+02  0.27296527810E+02  0.56284797332E+01  0.39200157444E+02  0.51100000000E-03 0.  1.
         12    1    3    3    0    0 -0.23719420369E+02 -0.34692377818E+02 -0.32081914129E+01  0.42148125385E+02  0.00000000000E+00 0. -1.
</event>
<event>
 7    1  0.2641103E-015  0.9000772E+02  0.7816164E-02  0.1186339E+00
        -11   -1    0    0    0    0  0.00000000000E+00  0.00000000000E+00  0.45593999997E+02  0.45594000000E+02  0.51100000000E-03 0.  1.
         11   -1    0    0    0    0 -0.00000000000E+00 -0.00000000000E+00 -0.45593999997E+02  0.45594000000E+02  0.51100000000E-03 0. -1.
    9900012    2    1    2    0    0  0.10050382847E+01 -0.40967718153E+00 -0.46382356830E+00  0.90007716284E+02  0.89999977339E+02 0.  0.
        -12    1    1    2    0    0 -0.10050382847E+01  0.40967718153E+00  0.46382356830E+00  0.11802837156E+01  0.00000000000E+00 0.  1.
         11    1    3    3    0    0 -0.29092040079E+02 -0.94965722438E+01 -0.25118595225E+02  0.39591356464E+02  0.51100000000E-03 0. -1.
        -11    1    3    3    0    0 -0.51140684106E+01 -0.31865523880E+01  0.67607812981E+01  0.90562672140E+01  0.51100000000E-03 0.  1.
        -12    1    3    3    0    0  0.35211146774E+02  0.12273447450E+02  0.17893990358E+02  0.41360092606E+02  0.00000000000E+00 0.  1.
</event>
<event>
 7    1  0.2641103E-015  0.9000769E+02  0.7816164E-02  0.1186339E+00
        -11   -1    0    0    0    0  0.00000000000E+00  0.00000000000E+00  0.45593999997E+02  0.45594000000E+02  0.51100000000E-03 0. -1.
         11   -1    0    0    0    0 -0.00000000000E+00 -0.00000000000E+00 -0.45593999997E+02  0.45594000000E+02  0.51100000000E-03 0.  1.
    9900012    2    1    2    0    0 -0.55719459644E+00 -0.52833869128E+00  0.89638920574E+00  0.90007694447E+02  0.89999955213E+02 0.  0.
        -12    1    1    2    0    0  0.55719459644E+00  0.52833869128E+00 -0.89638920574E+00  0.11803055533E+01  0.00000000000E+00 0.  1.
         11    1    3    3    0    0  0.17860630276E+02 -0.15342428353E+01  0.37110351464E+02  0.41213276999E+02  0.51100000000E-03 0. -1.
        -11    1    3    3    0    0  0.40057122257E+01 -0.56208957976E+01 -0.17045661887E+01  0.71095531614E+01  0.51100000000E-03 0.  1.
        -12    1    3    3    0    0 -0.22423537098E+02  0.66267999416E+01 -0.34509396070E+02  0.41684864286E+02  0.00000000000E+00 0.  1.
</event>
<event>
 7    1  0.2641103E-015  0.9000776E+02  0.7816164E-02  0.1186339E+00
        -11   -1    0    0    0    0  0.00000000000E+00  0.00000000000E+00  0.45593999997E+02  0.45594000000E+02  0.51100000000E-03 0. -1.
         11   -1    0    0    0    0 -0.00000000000E+00 -0.00000000000E+00 -0.45593999997E+02  0.45594000000E+02  0.51100000000E-03 0.  1.
    9900012    2    1    2    0    0 -0.86460687156E+00 -0.40627840201E+00  0.69308795035E+00  0.90007755072E+02  0.90000016639E+02 0.  0.
        -12    1    1    2    0    0  0.86460687156E+00  0.40627840201E+00 -0.69308795035E+00  0.11802449276E+01  0.00000000000E+00 0.  1.
         11    1    3    3    0    0  0.30683852498E+02  0.11957790456E+02  0.11029637735E+02  0.34729533045E+02  0.51100000000E-03 0. -1.
        -11    1    3    3    0    0  0.96562239957E+01  0.16578215515E+01  0.20816370641E+01  0.10016199243E+02  0.51100000000E-03 0.  1.
        -12    1    3    3    0    0 -0.41204683366E+02 -0.14021890409E+02 -0.12418186848E+02  0.45262022784E+02  0.00000000000E+00 0.  1.
</event>
<event>
 7    1  0.2641103E-015  0.9000779E+02  0.7816164E-02  0.1186339E+00
        -11   -1    0    0    0    0  0.00000000000E+00  0.00000000000E+00  0.45593999997E+02  0.45594000000E+02  0.51100000000E-03 0.  1.
         11   -1    0    0    0    0 -0.00000000000E+00 -0.00000000000E+00 -0.45593999997E+02  0.45594000000E+02  0.51100000000E-03 0. -1.
    9900012    2    1    2    0    0  0.46561371314E+00 -0.10366110557E+01 -0.31864274617E+00  0.90007791624E+02  0.90000053674E+02 0.  0.
        -12    1    1    2    0    0 -0.46561371314E+00  0.10366110557E+01  0.31864274617E+00  0.11802083758E+01  0.00000000000E+00 0.  1.
         11    1    3    3    0    0 -0.12357499747E+00  0.83387703876E+01 -0.37166903795E+01  0.91303970339E+01  0.51100000000E-03 0. -1.
        -11    1    3    3    0    0 -0.21774565890E+02 -0.24327769520E+02 -0.25476493910E+02  0.41412846216E+02  0.51100000000E-03 0.  1.
         12    1    3    3    0    0  0.22363754600E+02  0.14952388077E+02  0.28874541543E+02  0.39464548374E+02  0.00000000000E+00 0. -1.
</event>
<event>
 7    1  0.3569263E-015  0.9000785E+02  0.7816164E-02  0.1186339E+00
        -11   -1    0    0    0    0  0.00000000000E+00  0.00000000000E+00  0.45593999997E+02  0.45594000000E+02  0.51100000000E-03 0.  1.
         11   -1    0    0    0    0 -0.00000000000E+00 -0.00000000000E+00 -0.45593999997E+02  0.45594000000E+02  0.51100000000E-03 0. -1.
    9900012    2    1    2    0    0  0.56515198342E+00 -0.16036489841E+00 -0.10235483162E+01  0.90007845425E+02  0.90000108185E+02 0.  0.
        -12    1    1    2    0    0 -0.56515198342E+00  0.16036489841E+00  0.10235483162E+01  0.11801545749E+01  0.00000000000E+00 0.  1.
         11    1    3    3    0    0 -0.56620571439E+01  0.49594390900E+01  0.61929121723E+01  0.97471579767E+01  0.51100000000E-03 0. -1.
        -11    1    3    3    0    0 -0.70683715623E+01 -0.24235273540E+02  0.28216769628E+02  0.37861543135E+02  0.51100000000E-03 0.  1.
         12    1    3    3    0    0  0.13295580690E+02  0.19115469551E+02 -0.35433230116E+02  0.42399144313E+02  0.00000000000E+00 0. -1.
</event>
<event>
 7    1  0.2641103E-015  0.9000773E+02  0.7816164E-02  0.1186339E+00
        -11   -1    0    0    0    0  0.00000000000E+00  0.00000000000E+00  0.45593999997E+02  0.45594000000E+02  0.51100000000E-03 0. -1.
         11   -1    0    0    0    0 -0.00000000000E+00 -0.00000000000E+00 -0.45593999997E+02  0.45594000000E+02  0.51100000000E-03 0.  1.
    9900012    2    1    2    0    0 -0.11480233442E+01  0.12882629728E+00  0.24182339775E+00  0.90007732077E+02  0.89999993341E+02 0.  0.
        -12    1    1    2    0    0  0.11480233442E+01 -0.12882629728E+00 -0.24182339775E+00  0.11802679227E+01  0.00000000000E+00 0.  1.
         11    1    3    3    0    0  0.83627439643E+01 -0.24019495320E+01 -0.45523960166E+01  0.98198349232E+01  0.51100000000E-03 0. -1.
        -11    1    3    3    0    0 -0.13516533597E+02 -0.37384659638E+02  0.50391335110E+01  0.40071215648E+02  0.51100000000E-03 0.  1.
         12    1    3    3    0    0  0.40057662881E+01  0.39915435467E+02 -0.24491409664E+00  0.40116681506E+02  0.00000000000E+00 0. -1.
</event>
<event>
 7    1  0.2641103E-015  0.9000774E+02  0.7816164E-02  0.1186339E+00
        -11   -1    0    0    0    0  0.00000000000E+00  0.00000000000E+00  0.45593999997E+02  0.45594000000E+02  0.51100000000E-03 0.  1.
         11   -1    0    0    0    0 -0.00000000000E+00 -0.00000000000E+00 -0.45593999997E+02  0.45594000000E+02  0.51100000000E-03 0. -1.
    9900012    2    1    2    0    0  0.56957981970E+00 -0.81306802708E+00 -0.63836961809E+00  0.90007738776E+02  0.90000000128E+02 0.  0.
        -12    1    1    2    0    0 -0.56957981970E+00  0.81306802708E+00  0.63836961809E+00  0.11802612240E+01  0.00000000000E+00 0.  1.
         11    1    3    3    0    0 -0.83433227176E+01  0.40833954749E+01  0.16211955319E+01  0.94293916977E+01  0.51100000000E-03 0. -1.
        -11    1    3    3    0    0 -0.28088223090E+02  0.20469069673E+02 -0.70478546938E+01  0.35462703586E+02  0.51100000000E-03 0.  1.
         12    1    3    3    0    0  0.37001125627E+02 -0.25365533175E+02  0.47882895438E+01  0.45115643492E+02  0.00000000000E+00 0. -1.
</event>
<event>
 7    1  0.2641103E-015  0.9000773E+02  0.7816164E-02  0.1186339E+00
        -11   -1    0    0    0    0  0.00000000000E+00  0.00000000000E+00  0.45593999997E+02  0.45594000000E+02  0.51100000000E-03 0. -1.
         11   -1    0    0    0    0 -0.00000000000E+00 -0.00000000000E+00 -0.45593999997E+02  0.45594000000E+02  0.51100000000E-03 0.  1.
    9900012    2    1    2    0    0  0.44246192206E+00 -0.10779188468E+01 -0.18801177601E+00  0.90007733072E+02  0.89999994349E+02 0.  0.
        -12    1    1    2    0    0 -0.44246192206E+00  0.10779188468E+01  0.18801177601E+00  0.11802669277E+01  0.00000000000E+00 0.  1.
         11    1    3    3    0    0 -0.26182780793E+01 -0.72037947063E+01  0.11442978033E+02  0.13772864074E+02  0.51100000000E-03 0. -1.
        -11    1    3    3    0    0  0.23662190846E+02 -0.25747188333E+02 -0.15172542654E+02  0.38118539237E+02  0.51100000000E-03 0.  1.
         12    1    3    3    0    0 -0.20601450844E+02  0.31873064193E+02  0.35415528446E+01  0.38116329762E+02  0.00000000000E+00 0. -1.
</event>
<event>
 7    1  0.2641103E-015  0.9000779E+02  0.7816164E-02  0.1186339E+00
        -11   -1    0    0    0    0  0.00000000000E+00  0.00000000000E+00  0.45593999997E+02  0.45594000000E+02  0.51100000000E-03 0.  1.
         11   -1    0    0    0    0 -0.00000000000E+00 -0.00000000000E+00 -0.45593999997E+02  0.45594000000E+02  0.51100000000E-03 0. -1.
    9900012    2    1    2    0    0  0.16797998676E+00  0.47406911300E+00 -0.10676822226E+01  0.90007786406E+02  0.90000048386E+02 0.  0.
        -12    1    1    2    0    0 -0.16797998676E+00 -0.47406911300E+00  0.10676822226E+01  0.11802135944E+01  0.00000000000E+00 0.  1.
         11    1    3    3    0    0  0.81041608900E+01 -0.14612654548E+02  0.30084459637E+01  0.16978157852E+02  0.51100000000E-03 0. -1.
        -11    1    3    3    0    0 -0.77993703457E+01 -0.32150780879E+01  0.31721774558E+02  0.32824348984E+02  0.51100000000E-03 0.  1.
         12    1    3    3    0    0 -0.13681055753E+00  0.18301801749E+02 -0.35797902744E+02  0.40205279569E+02  0.00000000000E+00 0. -1.
</event>
<event>
 7    1  0.2641103E-015  0.9000766E+02  0.7816164E-02  0.1186339E+00
        -11   -1    0    0    0    0  0.00000000000E+00  0.00000000000E+00  0.45593999997E+02  0.45594000000E+02  0.51100000000E-03 0.  1.
         11   -1    0    0    0    0 -0.00000000000E+00 -0.00000000000E+00 -0.45593999997E+02  0.45594000000E+02  0.51100000000E-03 0. -1.
    9900012    2    1    2    0    0  0.69133448177E-01 -0.91154238711E+00 -0.74666317656E+00  0.90007663245E+02  0.89999923599E+02 0.  0.
        -12    1    1    2    0    0 -0.69133448177E-01  0.91154238711E+00  0.74666317656E+00  0.11803367555E+01  0.00000000000E+00 0.  1.
         11    1    3    3    0    0  0.25790682496E+01  0.13916795415E+02 -0.29369517311E+01  0.14455257638E+02  0.51100000000E-03 0. -1.
        -11    1    3    3    0    0  0.24840630184E+02 -0.56239233327E+00  0.26463423605E+02  0.36299944659E+02  0.51100000000E-03 0.  1.
         12    1    3    3    0    0 -0.27350564986E+02 -0.14265945469E+02 -0.24273135051E+02  0.39252460947E+02  0.00000000000E+00 0. -1.
</event>
<event>
 7    1  0.2641103E-015  0.9000709E+02  0.7816164E-02  0.1186340E+00
        -11   -1    0    0    0    0  0.00000000000E+00  0.00000000000E+00  0.45593999997E+02  0.45594000000E+02  0.51100000000E-03 0. -1.
         11   -1    0    0    0    0 -0.00000000000E+00 -0.00000000000E+00 -0.45593999997E+02  0.45594000000E+02  0.51100000000E-03 0.  1.
    9900012    2    1    2    0    0 -0.97525832312E+00  0.30475863042E+00 -0.59207420971E+00  0.90007085740E+02  0.89999338469E+02 0.  0.
        -12    1    1    2    0    0  0.97525832312E+00 -0.30475863042E+00  0.59207420971E+00  0.11809142600E+01  0.00000000000E+00 0.  1.
         11    1    3    3    0    0 -0.28369101079E+02  0.13839393964E+00  0.25089996111E+02  0.37872588426E+02  0.51100000000E-03 0. -1.
        -11    1    3    3    0    0 -0.82142329871E+00  0.40378414602E+01  0.74076202845E+01  0.84765404756E+01  0.51100000000E-03 0.  1.
        -12    1    3    3    0    0  0.28215266055E+02 -0.38714767694E+01 -0.33089690606E+02  0.43657956839E+02  0.00000000000E+00 0.  1.
</event>
<event>
 7    1  0.2641103E-015  0.9000757E+02  0.7816164E-02  0.1186339E+00
        -11   -1    0    0    0    0  0.00000000000E+00  0.00000000000E+00  0.45593999997E+02  0.45594000000E+02  0.51100000000E-03 0. -1.
         11   -1    0    0    0    0 -0.00000000000E+00 -0.00000000000E+00 -0.45593999997E+02  0.45594000000E+02  0.51100000000E-03 0.  1.
    9900012    2    1    2    0    0 -0.71065554874E+00  0.32880565856E+00  0.88333056740E+00  0.90007568993E+02  0.89999828104E+02 0.  0.
        -12    1    1    2    0    0  0.71065554874E+00 -0.32880565856E+00 -0.88333056740E+00  0.11804310066E+01  0.00000000000E+00 0.  1.
         11    1    3    3    0    0 -0.39884039933E+01  0.89771109219E+01  0.80516674683E+01  0.12701387176E+02  0.51100000000E-03 0. -1.
        -11    1    3    3    0    0 -0.46631311621E+01  0.33950555617E+00 -0.41075349278E+02  0.41340589919E+02  0.51100000000E-03 0.  1.
         12    1    3    3    0    0  0.79408796066E+01 -0.89878108195E+01  0.33907012377E+02  0.35965591898E+02  0.00000000000E+00 0. -1.
</event>
<event>
 7    1  0.2641103E-015  0.9000773E+02  0.7816164E-02  0.1186339E+00
        -11   -1    0    0    0    0  0.00000000000E+00  0.00000000000E+00  0.45593999997E+02  0.45594000000E+02  0.51100000000E-03 0.  1.
         11   -1    0    0    0    0 -0.00000000000E+00 -0.00000000000E+00 -0.45593999997E+02  0.45594000000E+02  0.51100000000E-03 0. -1.
    9900012    2    1    2    0    0  0.77805188975E+00 -0.30675847959E+00  0.83281290844E+00  0.90007727638E+02  0.89999988843E+02 0.  0.
        -12    1    1    2    0    0 -0.77805188975E+00  0.30675847959E+00 -0.83281290844E+00  0.11802723620E+01  0.00000000000E+00 0.  1.
         11    1    3    3    0    0  0.33349945938E+02  0.61531023485E+00  0.20661013813E+02  0.39236143959E+02  0.51100000000E-03 0. -1.
        -11    1    3    3    0    0  0.39247616259E+01  0.82256543719E+01 -0.38937271939E+01  0.99109159712E+01  0.51100000000E-03 0.  1.
        -12    1    3    3    0    0 -0.36496655674E+02 -0.91477230863E+01 -0.15934473711E+02  0.40860667708E+02  0.00000000000E+00 0.  1.
</event>
<event>
 7    1  0.2641103E-015  0.9000772E+02  0.7816164E-02  0.1186339E+00
        -11   -1    0    0    0    0  0.00000000000E+00  0.00000000000E+00  0.45593999997E+02  0.45594000000E+02  0.51100000000E-03 0.  1.
         11   -1    0    0    0    0 -0.00000000000E+00 -0.00000000000E+00 -0.45593999997E+02  0.45594000000E+02  0.51100000000E-03 0. -1.
    9900012    2    1    2    0    0  0.94937591961E+00  0.68204947833E+00  0.16297008269E+00  0.90007718095E+02  0.89999979174E+02 0.  0.
        -12    1    1    2    0    0 -0.94937591961E+00 -0.68204947833E+00 -0.16297008269E+00  0.11802819051E+01  0.00000000000E+00 0.  1.
         11    1    3    3    0    0 -0.14986815085E+02  0.27470122249E+01  0.36850116373E+01  0.15675777926E+02  0.51100000000E-03 0. -1.
        -11    1    3    3    0    0 -0.75831803159E+01 -0.14524486547E+02  0.28389077591E+02  0.32778118614E+02  0.51100000000E-03 0.  1.
         12    1    3    3    0    0  0.23519371321E+02  0.12459523801E+02 -0.31911119146E+02  0.41553821555E+02  0.00000000000E+00 0. -1.
</event>
<event>
 7    1  0.2641103E-015  0.9000799E+02  0.7816164E-02  0.1186339E+00
        -11   -1    0    0    0    0  0.00000000000E+00  0.00000000000E+00  0.45593999997E+02  0.45594000000E+02  0.51100000000E-03 0. -1.
         11   -1    0    0    0    0 -0.00000000000E+00 -0.00000000000E+00 -0.45593999997E+02  0.45594000000E+02  0.51100000000E-03 0.  1.
    9900012    2    1    2    0    0  0.59383351318E-01  0.21377378438E+00  0.11589684096E+01  0.90007985853E+02  0.90000250466E+02 0.  0.
        -12    1    1    2    0    0 -0.59383351318E-01 -0.21377378438E+00 -0.11589684096E+01  0.11800141473E+01  0.00000000000E+00 0.  1.
         11    1    3    3    0    0  0.73182112100E+00  0.30296615599E+01  0.85089277685E+01  0.90618024340E+01  0.51100000000E-03 0. -1.
        -11    1    3    3    0    0 -0.25403402823E+02  0.25013985388E+02 -0.20900431162E+02  0.41326267229E+02  0.51100000000E-03 0.  1.
         12    1    3    3    0    0  0.24730965054E+02 -0.27829873164E+02  0.13550471804E+02  0.39619916190E+02  0.00000000000E+00 0. -1.
</event>
<event>
 7    1  0.2641103E-015  0.9000772E+02  0.7816164E-02  0.1186339E+00
        -11   -1    0    0    0    0  0.00000000000E+00  0.00000000000E+00  0.45593999997E+02  0.45594000000E+02  0.51100000000E-03 0.  1.
         11   -1    0    0    0    0 -0.00000000000E+00 -0.00000000000E+00 -0.45593999997E+02  0.45594000000E+02  0.51100000000E-03 0. -1.
    9900012    2    1    2    0    0  0.11310244867E+01  0.33729812711E+00 -0.91556046808E-02  0.90007716034E+02  0.89999977085E+02 0.  0.
        -12    1    1    2    0    0 -0.11310244867E+01 -0.33729812711E+00  0.91556046808E-02  0.11802839664E+01  0.00000000000E+00 0.  1.
         11    1    3    3    0    0  0.38237276610E+02 -0.49021565251E+01 -0.54590910453E+01  0.38934844759E+02  0.51100000000E-03 0. -1.
        -11    1    3    3    0    0 -0.14971940228E+00 -0.89330718258E+01 -0.48608785011E+01  0.10171053446E+02  0.51100000000E-03 0.  1.
        -12    1    3    3    0    0 -0.36956532721E+02  0.14172526478E+02  0.10310813942E+02  0.40901817828E+02  0.00000000000E+00 0.  1.
</event>
<event>
 7    1  0.2641103E-015  0.9000784E+02  0.7816164E-02  0.1186339E+00
        -11   -1    0    0    0    0  0.00000000000E+00  0.00000000000E+00  0.45593999997E+02  0.45594000000E+02  0.51100000000E-03 0. -1.
         11   -1    0    0    0    0 -0.00000000000E+00 -0.00000000000E+00 -0.45593999997E+02  0.45594000000E+02  0.51100000000E-03 0.  1.
    9900012    2    1    2    0    0 -0.93030287481E+00  0.60439762965E+00 -0.40250685485E+00  0.90007842510E+02  0.90000105231E+02 0.  0.
        -12    1    1    2    0    0  0.93030287481E+00 -0.60439762965E+00  0.40250685485E+00  0.11801574903E+01  0.00000000000E+00 0.  1.
         11    1    3    3    0    0  0.11557149851E+02 -0.29316729392E+02  0.22762704203E+02  0.38873886323E+02  0.51100000000E-03 0. -1.
        -11    1    3    3    0    0 -0.25316926211E+01 -0.37802344614E+01  0.45079171035E+01  0.64047604939E+01  0.51100000000E-03 0.  1.
        -12    1    3    3    0    0 -0.99557601047E+01  0.33701361483E+02 -0.27673128161E+02  0.44729195693E+02  0.00000000000E+00 0.  1.
</event>
<event>
 7    1  0.2641103E-015  0.9000775E+02  0.7816164E-02  0.1186339E+00
        -11   -1    0    0    0    0  0.00000000000E+00  0.00000000000E+00  0.45593999997E+02  0.45594000000E+02  0.51100000000E-03 0.  1.
         11   -1    0    0    0    0 -0.00000000000E+00 -0.00000000000E+00 -0.45593999997E+02  0.45594000000E+02  0.51100000000E-03 0. -1.
    9900012    2    1    2    0    0 -0.32296926737E+00 -0.10228633574E+01  0.49238487778E+00  0.90007745170E+02  0.90000006606E+02 0.  0.
        -12    1    1    2    0    0  0.32296926737E+00  0.10228633574E+01 -0.49238487778E+00  0.11802548299E+01  0.00000000000E+00 0.  1.
         11    1    3    3    0    0  0.25622172127E+02 -0.22648158199E+00  0.60047862414E+01  0.26317379362E+02  0.51100000000E-03 0. -1.
        -11    1    3    3    0    0  0.13301291184E+02  0.15960753335E+02 -0.19280363541E+01  0.20865936802E+02  0.51100000000E-03 0.  1.
         12    1    3    3    0    0 -0.39246432578E+02 -0.16757135110E+02 -0.35843650096E+01  0.42824429007E+02  0.00000000000E+00 0. -1.
</event>
<event>
 7    1  0.2641103E-015  0.9000791E+02  0.7816164E-02  0.1186339E+00
        -11   -1    0    0    0    0  0.00000000000E+00  0.00000000000E+00  0.45593999997E+02  0.45594000000E+02  0.51100000000E-03 0. -1.
         11   -1    0    0    0    0 -0.00000000000E+00 -0.00000000000E+00 -0.45593999997E+02  0.45594000000E+02  0.51100000000E-03 0.  1.
    9900012    2    1    2    0    0  0.53948321342E+00 -0.95014085222E+00 -0.44586313634E+00  0.90007913684E+02  0.90000177345E+02 0.  0.
        -12    1    1    2    0    0 -0.53948321342E+00  0.95014085222E+00  0.44586313634E+00  0.11800863159E+01  0.00000000000E+00 0.  1.
         11    1    3    3    0    0  0.51600973153E+01 -0.20415634139E+01  0.81469328731E+01  0.98573374182E+01  0.51100000000E-03 0. -1.
        -11    1    3    3    0    0  0.34824059483E+02  0.12038725575E+02  0.46215274011E+01  0.37134950493E+02  0.51100000000E-03 0.  1.
         12    1    3    3    0    0 -0.39444673585E+02 -0.10947303013E+02 -0.13214323411E+02  0.43015625773E+02  0.00000000000E+00 0. -1.
</event>
<event>
 7    1  0.2641103E-015  0.9000744E+02  0.7816164E-02  0.1186340E+00
        -11   -1    0    0    0    0  0.00000000000E+00  0.00000000000E+00  0.45593999997E+02  0.45594000000E+02  0.51100000000E-03 0.  1.
         11   -1    0    0    0    0 -0.00000000000E+00 -0.00000000000E+00 -0.45593999997E+02  0.45594000000E+02  0.51100000000E-03 0. -1.
    9900012    2    1    2    0    0 -0.47297782359E+00  0.97450480047E+00 -0.46942547982E+00  0.90007437461E+02  0.89999694835E+02 0.  0.
        -12    1    1    2    0    0  0.47297782359E+00 -0.97450480047E+00  0.46942547982E+00  0.11805625392E+01  0.00000000000E+00 0.  1.
         11    1    3    3    0    0  0.27350150085E+02  0.27782639871E+02  0.95428871490E+01  0.40136921697E+02  0.51100000000E-03 0. -1.
        -11    1    3    3    0    0  0.63992870358E+01 -0.36863399668E+01 -0.30333096316E+01  0.79837926138E+01  0.51100000000E-03 0.  1.
        -12    1    3    3    0    0 -0.34222414945E+02 -0.23121795103E+02 -0.69790029972E+01  0.41886723150E+02  0.00000000000E+00 0.  1.
</event>
<event>
 7    1  0.2641103E-015  0.9000779E+02  0.7816164E-02  0.1186339E+00
        -11   -1    0    0    0    0  0.00000000000E+00  0.00000000000E+00  0.45593999997E+02  0.45594000000E+02  0.51100000000E-03 0. -1.
         11   -1    0    0    0    0 -0.00000000000E+00 -0.00000000000E+00 -0.45593999997E+02  0.45594000000E+02  0.51100000000E-03 0.  1.
    9900012    2    1    2    0    0 -0.99649884662E+00 -0.62893012184E+00  0.65855450349E-01  0.90007788159E+02  0.90000050163E+02 0.  0.
        -12    1    1    2    0    0  0.99649884662E+00  0.62893012184E+00 -0.65855450349E-01  0.11802118411E+01  0.00000000000E+00 0.  1.
         11    1    3    3    0    0 -0.13801607866E+02  0.21355690755E+02  0.28273177022E+02  0.38025286935E+02  0.51100000000E-03 0. -1.
        -11    1    3    3    0    0  0.14201596120E+01  0.84466539572E+01  0.56372093041E+00  0.85837403237E+01  0.51100000000E-03 0.  1.
        -12    1    3    3    0    0  0.11384949407E+02 -0.30431274834E+02 -0.28771042502E+02  0.43398760900E+02  0.00000000000E+00 0.  1.
</event>
<event>
 7    1  0.2641103E-015  0.9000772E+02  0.7816164E-02  0.1186339E+00
        -11   -1    0    0    0    0  0.00000000000E+00  0.00000000000E+00  0.45593999997E+02  0.45594000000E+02  0.51100000000E-03 0. -1.
         11   -1    0    0    0    0 -0.00000000000E+00 -0.00000000000E+00 -0.45593999997E+02  0.45594000000E+02  0.51100000000E-03 0.  1.
    9900012    2    1    2    0    0  0.74421870132E+00 -0.89477106980E+00 -0.19640058286E+00  0.90007724637E+02  0.89999985803E+02 0.  0.
        -12    1    1    2    0    0 -0.74421870132E+00  0.89477106980E+00  0.19640058286E+00  0.11802753627E+01  0.00000000000E+00 0.  1.
         11    1    3    3    0    0 -0.49303278463E+01  0.55079528860E+01 -0.56364217272E+01  0.92959629848E+01  0.51100000000E-03 0. -1.
        -11    1    3    3    0    0 -0.17583827567E+02  0.49708875605E+01 -0.31015480403E+02  0.35998065781E+02  0.51100000000E-03 0.  1.
         12    1    3    3    0    0  0.23258374115E+02 -0.11373611516E+02  0.36455501548E+02  0.44713695872E+02  0.00000000000E+00 0. -1.
</event>
<event>
 7    1  0.2641103E-015  0.9000775E+02  0.7816164E-02  0.1186339E+00
        -11   -1    0    0    0    0  0.00000000000E+00  0.00000000000E+00  0.45593999997E+02  0.45594000000E+02  0.51100000000E-03 0. -1.
         11   -1    0    0    0    0 -0.00000000000E+00 -0.00000000000E+00 -0.45593999997E+02  0.45594000000E+02  0.51100000000E-03 0.  1.
    9900012    2    1    2    0    0  0.55732127807E+00 -0.59303389217E+00  0.85480973018E+00  0.90007747536E+02  0.90000009003E+02 0.  0.
        -12    1    1    2    0    0 -0.55732127807E+00  0.59303389217E+00 -0.85480973018E+00  0.11802524641E+01  0.00000000000E+00 0.  1.
         11    1    3    3    0    0 -0.42130872686E+01  0.62839530839E+01 -0.64927382354E+01  0.99696449660E+01  0.51100000000E-03 0. -1.
        -11    1    3    3    0    0  0.15560982368E+02  0.20873893804E+02 -0.24984601721E+02  0.36084538769E+02  0.51100000000E-03 0.  1.
         12    1    3    3    0    0 -0.10790573821E+02 -0.27750880780E+02  0.32332149686E+02  0.43953563801E+02  0.00000000000E+00 0. -1.
</event>
<event>
 7    1  0.2641103E-015  0.9000770E+02  0.7816164E-02  0.1186339E+00
        -11   -1    0    0    0    0  0.00000000000E+00  0.00000000000E+00  0.45593999997E+02  0.45594000000E+02  0.51100000000E-03 0.  1.
         11   -1    0    0    0    0 -0.00000000000E+00 -0.00000000000E+00 -0.45593999997E+02  0.45594000000E+02  0.51100000000E-03 0. -1.
    9900012    2    1    2    0    0 -0.80375761003E+00 -0.30289799213E+00 -0.80952439855E+00  0.90007702054E+02  0.89999962921E+02 0.  0.
        -12    1    1    2    0    0  0.80375761003E+00  0.30289799213E+00  0.80952439855E+00  0.11802979459E+01  0.00000000000E+00 0.  1.
         11    1    3    3    0    0  0.45766023439E-01  0.56335798940E+01 -0.62597304230E+01  0.84216116143E+01  0.51100000000E-03 0. -1.
        -11    1    3    3    0    0 -0.17996146820E+02  0.19324030015E+02  0.31745892866E+02  0.41292628283E+02  0.51100000000E-03 0.  1.
         12    1    3    3    0    0  0.17146623187E+02 -0.25260507901E+02 -0.26295686842E+02  0.40293462157E+02  0.00000000000E+00 0. -1.
</event>
<event>
 7    1  0.2641103E-015  0.9000758E+02  0.7816164E-02  0.1186339E+00
        -11   -1    0    0    0    0  0.00000000000E+00  0.00000000000E+00  0.45593999997E+02  0.45594000000E+02  0.51100000000E-03 0. -1.
         11   -1    0    0    0    0 -0.00000000000E+00 -0.00000000000E+00 -0.45593999997E+02  0.45594000000E+02  0.51100000000E-03 0.  1.
    9900012    2    1    2    0    0  0.22496602388E+00  0.68116701453E+00 -0.93743825024E+00  0.90007581139E+02  0.89999840410E+02 0.  0.
        -12    1    1    2    0    0 -0.22496602388E+00 -0.68116701453E+00  0.93743825024E+00  0.11804188607E+01  0.00000000000E+00 0.  1.
         11    1    3    3    0    0 -0.61081721172E+01  0.59600834366E+01 -0.28600823002E+01  0.90006906518E+01  0.51100000000E-03 0. -1.
        -11    1    3    3    0    0  0.89572874842E+01  0.36473464187E+02  0.88921457551E+01  0.38595554735E+02  0.51100000000E-03 0.  1.
         12    1    3    3    0    0 -0.26241493431E+01 -0.41752380609E+02 -0.69695017051E+01  0.42411335753E+02  0.00000000000E+00 0. -1.
</event>
<event>
 7    1  0.2641103E-015  0.9000769E+02  0.7816164E-02  0.1186339E+00
        -11   -1    0    0    0    0  0.00000000000E+00  0.00000000000E+00  0.45593999997E+02  0.45594000000E+02  0.51100000000E-03 0.  1.
         11   -1    0    0    0    0 -0.00000000000E+00 -0.00000000000E+00 -0.45593999997E+02  0.45594000000E+02  0.51100000000E-03 0. -1.
    9900012    2    1    2    0    0  0.89213397662E+00  0.24497092138E+00 -0.73294649460E+00  0.90007693113E+02  0.89999953862E+02 0.  0.
        -12    1    1    2    0    0 -0.89213397662E+00 -0.24497092138E+00  0.73294649460E+00  0.11803068874E+01  0.00000000000E+00 0.  1.
         11    1    3    3    0    0  0.30500772636E+02 -0.10854852623E+02  0.30932728968E+01  0.32522196949E+02  0.51100000000E-03 0. -1.
        -11    1    3    3    0    0  0.10795822491E+02 -0.11550149200E+01  0.81749818461E+01  0.13590959171E+02  0.51100000000E-03 0.  1.
        -12    1    3    3    0    0 -0.40404461151E+02  0.12254838465E+02 -0.12001201237E+02  0.43894536993E+02  0.00000000000E+00 0.  1.
</event>
<event>
 7    1  0.2641103E-015  0.9000777E+02  0.7816164E-02  0.1186339E+00
        -11   -1    0    0    0    0  0.00000000000E+00  0.00000000000E+00  0.45593999997E+02  0.45594000000E+02  0.51100000000E-03 0. -1.
         11   -1    0    0    0    0 -0.00000000000E+00 -0.00000000000E+00 -0.45593999997E+02  0.45594000000E+02  0.51100000000E-03 0.  1.
    9900012    2    1    2    0    0  0.19040759966E+00  0.11615617179E+01  0.86407950286E-01  0.90007768238E+02  0.90000029979E+02 0.  0.
        -12    1    1    2    0    0 -0.19040759966E+00 -0.11615617179E+01 -0.86407950286E-01  0.11802317621E+01  0.00000000000E+00 0.  1.
         11    1    3    3    0    0  0.23746817472E+02  0.11624086829E+02  0.33510482752E+02  0.42684695023E+02  0.51100000000E-03 0. -1.
        -11    1    3    3    0    0 -0.95809560386E+00 -0.92323431162E+01 -0.37673659435E+01  0.10017342612E+02  0.51100000000E-03 0.  1.
        -12    1    3    3    0    0 -0.22598314268E+02 -0.12301819953E+01 -0.29656708858E+02  0.37305730603E+02  0.00000000000E+00 0.  1.
</event>
<event>
 7    1  0.2641103E-015  0.9000775E+02  0.7816164E-02  0.1186339E+00
        -11   -1    0    0    0    0  0.00000000000E+00  0.00000000000E+00  0.45593999997E+02  0.45594000000E+02  0.51100000000E-03 0.  1.
         11   -1    0    0    0    0 -0.00000000000E+00 -0.00000000000E+00 -0.45593999997E+02  0.45594000000E+02  0.51100000000E-03 0. -1.
    9900012    2    1    2    0    0 -0.80736239898E+00  0.36246328433E+00 -0.78088581825E+00  0.90007747342E+02  0.90000008807E+02 0.  0.
        -12    1    1    2    0    0  0.80736239898E+00 -0.36246328433E+00  0.78088581825E+00  0.11802526581E+01  0.00000000000E+00 0.  1.
         11    1    3    3    0    0  0.26536891642E+02  0.14214776190E+02 -0.23701452279E+02  0.38314818550E+02  0.51100000000E-03 0. -1.
        -11    1    3    3    0    0 -0.24574759218E+01  0.48949555494E+01 -0.67330990963E+01  0.86795392411E+01  0.51100000000E-03 0.  1.
        -12    1    3    3    0    0 -0.24886778119E+02 -0.18747268455E+02  0.29653665557E+02  0.43013389551E+02  0.00000000000E+00 0.  1.
</event>
<event>
 7    1  0.2641103E-015  0.9000775E+02  0.7816164E-02  0.1186339E+00
        -11   -1    0    0    0    0  0.00000000000E+00  0.00000000000E+00  0.45593999997E+02  0.45594000000E+02  0.51100000000E-03 0.  1.
         11   -1    0    0    0    0 -0.00000000000E+00 -0.00000000000E+00 -0.45593999997E+02  0.45594000000E+02  0.51100000000E-03 0. -1.
    9900012    2    1    2    0    0 -0.25909181757E+00 -0.63215483496E+00 -0.96241850646E+00  0.90007746770E+02  0.90000008227E+02 0.  0.
        -12    1    1    2    0    0  0.25909181757E+00  0.63215483496E+00  0.96241850646E+00  0.11802532300E+01  0.00000000000E+00 0.  1.
         11    1    3    3    0    0 -0.95341809337E+01  0.15221509201E+02 -0.38615014476E+02  0.42587724659E+02  0.51100000000E-03 0. -1.
        -11    1    3    3    0    0 -0.15569259802E-01 -0.75873005451E+01 -0.18670068292E+00  0.75896132556E+01  0.51100000000E-03 0.  1.
        -12    1    3    3    0    0  0.92906583759E+01 -0.82663634909E+01  0.37839296652E+02  0.39830408855E+02  0.00000000000E+00 0.  1.
</event>
<event>
 7    1  0.2641103E-015  0.9000766E+02  0.7816164E-02  0.1186339E+00
        -11   -1    0    0    0    0  0.00000000000E+00  0.00000000000E+00  0.45593999997E+02  0.45594000000E+02  0.51100000000E-03 0.  1.
         11   -1    0    0    0    0 -0.00000000000E+00 -0.00000000000E+00 -0.45593999997E+02  0.45594000000E+02  0.51100000000E-03 0. -1.
    9900012    2    1    2    0    0  0.83258205139E+00 -0.56346276976E+00  0.61848587824E+00  0.90007657699E+02  0.89999917981E+02 0.  0.
        -12    1    1    2    0    0 -0.83258205139E+00  0.56346276976E+00 -0.61848587824E+00  0.11803423007E+01  0.00000000000E+00 0.  1.
         11    1    3    3    0    0 -0.27431891036E+02 -0.28897292175E+02 -0.40284902830E+01  0.40047357904E+02  0.51100000000E-03 0. -1.
        -11    1    3    3    0    0 -0.59127343094E+01  0.73693276155E+01 -0.86831496678E+00  0.94879601423E+01  0.51100000000E-03 0.  1.
        -12    1    3    3    0    0  0.34177207397E+02  0.20964501790E+02  0.55152911280E+01  0.40472339653E+02  0.00000000000E+00 0.  1.
</event>
<event>
 7    1  0.3523969E-015  0.9000783E+02  0.7816164E-02  0.1186339E+00
        -11   -1    0    0    0    0  0.00000000000E+00  0.00000000000E+00  0.45593999997E+02  0.45594000000E+02  0.51100000000E-03 0.  1.
         11   -1    0    0    0    0 -0.00000000000E+00 -0.00000000000E+00 -0.45593999997E+02  0.45594000000E+02  0.51100000000E-03 0. -1.
    9900012    2    1    2    0    0  0.44376947206E+00  0.94793286473E+00 -0.54525641609E+00  0.90007825174E+02  0.90000087666E+02 0.  0.
        -12    1    1    2    0    0 -0.44376947206E+00 -0.94793286473E+00  0.54525641609E+00  0.11801748259E+01  0.00000000000E+00 0.  1.
         11    1    3    3    0    0 -0.55005018958E+01 -0.73039772786E+01  0.17348716968E+01  0.93066312518E+01  0.51100000000E-03 0. -1.
        -11    1    3    3    0    0  0.93412494672E+01 -0.78672801215E+01  0.36541891053E+02  0.38528727465E+02  0.51100000000E-03 0.  1.
         12    1    3    3    0    0 -0.33969780993E+01  0.16119190265E+02 -0.38822019165E+02  0.42172466457E+02  0.00000000000E+00 0. -1.
</event>
<event>
 7    1  0.2641103E-015  0.9000771E+02  0.7816164E-02  0.1186339E+00
        -11   -1    0    0    0    0  0.00000000000E+00  0.00000000000E+00  0.45593999997E+02  0.45594000000E+02  0.51100000000E-03 0.  1.
         11   -1    0    0    0    0 -0.00000000000E+00 -0.00000000000E+00 -0.45593999997E+02  0.45594000000E+02  0.51100000000E-03 0. -1.
    9900012    2    1    2    0    0  0.20507481448E+00  0.21749073290E+00  0.11418119462E+01  0.90007706639E+02  0.89999967566E+02 0.  0.
        -12    1    1    2    0    0 -0.20507481448E+00 -0.21749073290E+00 -0.11418119462E+01  0.11802933614E+01  0.00000000000E+00 0.  1.
         11    1    3    3    0    0 -0.34809881758E+01  0.88865528932E+01 -0.80825502932E+00  0.95781719267E+01  0.51100000000E-03 0. -1.
        -11    1    3    3    0    0  0.47909490556E+01  0.35331415994E+02  0.62767601649E+01  0.36203036716E+02  0.51100000000E-03 0.  1.
         12    1    3    3    0    0 -0.11048860654E+01 -0.44000478155E+02 -0.43266931893E+01  0.44226497996E+02  0.00000000000E+00 0. -1.
</event>
<event>
 7    1  0.2641103E-015  0.9000770E+02  0.7816164E-02  0.1186339E+00
        -11   -1    0    0    0    0  0.00000000000E+00  0.00000000000E+00  0.45593999997E+02  0.45594000000E+02  0.51100000000E-03 0.  1.
         11   -1    0    0    0    0 -0.00000000000E+00 -0.00000000000E+00 -0.45593999997E+02  0.45594000000E+02  0.51100000000E-03 0. -1.
    9900012    2    1    2    0    0 -0.50982428551E+00 -0.36802920805E+00  0.99887249882E+00  0.90007698103E+02  0.89999958918E+02 0.  0.
        -12    1    1    2    0    0  0.50982428551E+00  0.36802920805E+00 -0.99887249882E+00  0.11803018974E+01  0.00000000000E+00 0.  1.
         11    1    3    3    0    0  0.24920226450E+02 -0.46882887382E+01 -0.27704030691E+02  0.37556771085E+02  0.51100000000E-03 0. -1.
        -11    1    3    3    0    0 -0.13151651072E+01 -0.52188119010E+01 -0.66823849522E+01  0.85802054653E+01  0.51100000000E-03 0.  1.
        -12    1    3    3    0    0 -0.24114885628E+02  0.95390714312E+01  0.35385288142E+02  0.43870721552E+02  0.00000000000E+00 0.  1.
</event>
<event>
 7    1  0.2641103E-015  0.9000771E+02  0.7816164E-02  0.1186339E+00
        -11   -1    0    0    0    0  0.00000000000E+00  0.00000000000E+00  0.45593999997E+02  0.45594000000E+02  0.51100000000E-03 0.  1.
         11   -1    0    0    0    0 -0.00000000000E+00 -0.00000000000E+00 -0.45593999997E+02  0.45594000000E+02  0.51100000000E-03 0. -1.
    9900012    2    1    2    0    0  0.52569988227E+00 -0.15503869231E+00 -0.10453196240E+01  0.90007707461E+02  0.89999968399E+02 0.  0.
        -12    1    1    2    0    0 -0.52569988227E+00  0.15503869231E+00  0.10453196240E+01  0.11802925395E+01  0.00000000000E+00 0.  1.
         11    1    3    3    0    0  0.68174715893E+01  0.60489068856E+01  0.42123428838E+01  0.10040469422E+02  0.51100000000E-03 0. -1.
        -11    1    3    3    0    0 -0.17442833892E+02  0.32580887662E+02 -0.12405956797E+02  0.38983002185E+02  0.51100000000E-03 0.  1.
         12    1    3    3    0    0  0.11151062185E+02 -0.38784833240E+02  0.71482942891E+01  0.40984235854E+02  0.00000000000E+00 0. -1.
</event>
<event>
 7    1  0.2641103E-015  0.9000747E+02  0.7816164E-02  0.1186340E+00
        -11   -1    0    0    0    0  0.00000000000E+00  0.00000000000E+00  0.45593999997E+02  0.45594000000E+02  0.51100000000E-03 0. -1.
         11   -1    0    0    0    0 -0.00000000000E+00 -0.00000000000E+00 -0.45593999997E+02  0.45594000000E+02  0.51100000000E-03 0.  1.
    9900012    2    1    2    0    0  0.26327266808E+00 -0.91538660864E+00  0.69743080743E+00  0.90007468394E+02  0.89999726177E+02 0.  0.
        -12    1    1    2    0    0 -0.26327266808E+00  0.91538660864E+00 -0.69743080743E+00  0.11805316058E+01  0.00000000000E+00 0.  1.
         11    1    3    3    0    0 -0.54619271112E+01 -0.48316434683E+01 -0.64369469706E+01  0.97268552439E+01  0.51100000000E-03 0. -1.
        -11    1    3    3    0    0  0.15529857541E+02 -0.28069854988E+02 -0.19479750994E+02  0.37530706539E+02  0.51100000000E-03 0.  1.
         12    1    3    3    0    0 -0.98046577618E+01  0.31986111847E+02  0.26614128772E+02  0.42749906611E+02  0.00000000000E+00 0. -1.
</event>
<event>
 7    1  0.2641103E-015  0.9000773E+02  0.7816164E-02  0.1186339E+00
        -11   -1    0    0    0    0  0.00000000000E+00  0.00000000000E+00  0.45593999997E+02  0.45594000000E+02  0.51100000000E-03 0. -1.
         11   -1    0    0    0    0 -0.00000000000E+00 -0.00000000000E+00 -0.45593999997E+02  0.45594000000E+02  0.51100000000E-03 0.  1.
    9900012    2    1    2    0    0  0.93343802543E+00  0.71934466193E+00 -0.65304712537E-01  0.90007733930E+02  0.89999995218E+02 0.  0.
        -12    1    1    2    0    0 -0.93343802543E+00 -0.71934466193E+00  0.65304712537E-01  0.11802660698E+01  0.00000000000E+00 0.  1.
         11    1    3    3    0    0 -0.69985744833E+00  0.91635795395E+01 -0.13102613126E+01  0.92831985540E+01  0.51100000000E-03 0. -1.
        -11    1    3    3    0    0 -0.16227066148E+02  0.32296838188E+02 -0.13022200292E+01  0.36167654195E+02  0.51100000000E-03 0.  1.
         12    1    3    3    0    0  0.17860361622E+02 -0.40741073066E+02  0.25471766293E+01  0.44556881181E+02  0.00000000000E+00 0. -1.
</event>
<event>
 7    1  0.2641103E-015  0.9000767E+02  0.7816164E-02  0.1186339E+00
        -11   -1    0    0    0    0  0.00000000000E+00  0.00000000000E+00  0.45593999997E+02  0.45594000000E+02  0.51100000000E-03 0. -1.
         11   -1    0    0    0    0 -0.00000000000E+00 -0.00000000000E+00 -0.45593999997E+02  0.45594000000E+02  0.51100000000E-03 0.  1.
    9900012    2    1    2    0    0 -0.26713662820E+00 -0.62688730355E+00  0.96375889752E+00  0.90007669164E+02  0.89999929597E+02 0.  0.
        -12    1    1    2    0    0  0.26713662820E+00  0.62688730355E+00 -0.96375889752E+00  0.11803308358E+01  0.00000000000E+00 0.  1.
         11    1    3    3    0    0  0.24448072544E+02  0.32898563888E+02  0.16464011962E+01  0.41021145696E+02  0.51100000000E-03 0. -1.
        -11    1    3    3    0    0  0.38926713815E+01 -0.30930486338E-01 -0.29425868389E+01  0.48798222042E+01  0.51100000000E-03 0.  1.
        -12    1    3    3    0    0 -0.28607880554E+02 -0.33494520706E+02  0.22599445402E+01  0.44106701264E+02  0.00000000000E+00 0.  1.
</event>
<event>
 7    1  0.2641103E-015  0.9000773E+02  0.7816164E-02  0.1186339E+00
        -11   -1    0    0    0    0  0.00000000000E+00  0.00000000000E+00  0.45593999997E+02  0.45594000000E+02  0.51100000000E-03 0.  1.
         11   -1    0    0    0    0 -0.00000000000E+00 -0.00000000000E+00 -0.45593999997E+02  0.45594000000E+02  0.51100000000E-03 0. -1.
    9900012    2    1    2    0    0  0.64122898083E+00  0.96375830751E+00 -0.23029837001E+00  0.90007727989E+02  0.89999989198E+02 0.  0.
        -12    1    1    2    0    0 -0.64122898083E+00 -0.96375830751E+00  0.23029837001E+00  0.11802720112E+01  0.00000000000E+00 0.  1.
         11    1    3    3    0    0  0.65169842662E+01 -0.24899598333E+02  0.18159474058E+02  0.31499644116E+02  0.51100000000E-03 0. -1.
        -11    1    3    3    0    0 -0.11885935923E+02 -0.57939990454E+01  0.91827469544E+01  0.16098718570E+02  0.51100000000E-03 0.  1.
        -12    1    3    3    0    0  0.60101806377E+01  0.31657355686E+02 -0.27572519382E+02  0.42409365303E+02  0.00000000000E+00 0.  1.
</event>
<event>
 7    1  0.2641103E-015  0.9000771E+02  0.7816164E-02  0.1186339E+00
        -11   -1    0    0    0    0  0.00000000000E+00  0.00000000000E+00  0.45593999997E+02  0.45594000000E+02  0.51100000000E-03 0. -1.
         11   -1    0    0    0    0 -0.00000000000E+00 -0.00000000000E+00 -0.45593999997E+02  0.45594000000E+02  0.51100000000E-03 0.  1.
    9900012    2    1    2    0    0  0.80713379260E+00 -0.27583025417E+00 -0.81580027408E+00  0.90007713011E+02  0.89999974023E+02 0.  0.
        -12    1    1    2    0    0 -0.80713379260E+00  0.27583025417E+00  0.81580027408E+00  0.11802869886E+01  0.00000000000E+00 0.  1.
         11    1    3    3    0    0 -0.14076038293E+02  0.16597030455E+01 -0.10332956931E+01  0.14211163516E+02  0.51100000000E-03 0. -1.
        -11    1    3    3    0    0 -0.52050160511E+01 -0.32771033277E+02  0.14642306086E+02  0.36268856364E+02  0.51100000000E-03 0.  1.
         12    1    3    3    0    0  0.20088188137E+02  0.30835499978E+02 -0.14424810667E+02  0.39527693131E+02  0.00000000000E+00 0. -1.
</event>
<event>
 7    1  0.2641103E-015  0.9000786E+02  0.7816164E-02  0.1186339E+00
        -11   -1    0    0    0    0  0.00000000000E+00  0.00000000000E+00  0.45593999997E+02  0.45594000000E+02  0.51100000000E-03 0. -1.
         11   -1    0    0    0    0 -0.00000000000E+00 -0.00000000000E+00 -0.45593999997E+02  0.45594000000E+02  0.51100000000E-03 0.  1.
    9900012    2    1    2    0    0 -0.37243368039E+00  0.11117424567E+01  0.13437329860E+00  0.90007858348E+02  0.90000121278E+02 0.  0.
        -12    1    1    2    0    0  0.37243368039E+00 -0.11117424567E+01 -0.13437329860E+00  0.11801416524E+01  0.00000000000E+00 0.  1.
         11    1    3    3    0    0  0.71336561288E+00  0.41255997682E+01  0.62612022702E+01  0.75320726281E+01  0.51100000000E-03 0. -1.
        -11    1    3    3    0    0 -0.40650089795E+02  0.61526426944E+01  0.15590379543E+01  0.41142622815E+02  0.51100000000E-03 0.  1.
         12    1    3    3    0    0  0.39564290502E+02 -0.91665000059E+01 -0.76858669260E+01  0.41333162905E+02  0.00000000000E+00 0. -1.
</event>
<event>
 7    1  0.2641103E-015  0.9000771E+02  0.7816164E-02  0.1186339E+00
        -11   -1    0    0    0    0  0.00000000000E+00  0.00000000000E+00  0.45593999997E+02  0.45594000000E+02  0.51100000000E-03 0.  1.
         11   -1    0    0    0    0 -0.00000000000E+00 -0.00000000000E+00 -0.45593999997E+02  0.45594000000E+02  0.51100000000E-03 0. -1.
    9900012    2    1    2    0    0 -0.91725747972E+00  0.48011973559E+00 -0.56674501337E+00  0.90007713529E+02  0.89999974547E+02 0.  0.
        -12    1    1    2    0    0  0.91725747972E+00 -0.48011973559E+00  0.56674501337E+00  0.11802864715E+01  0.00000000000E+00 0.  1.
         11    1    3    3    0    0  0.24101713056E+02  0.33921249469E+02 -0.44347748502E+01  0.41847472636E+02  0.51100000000E-03 0. -1.
        -11    1    3    3    0    0  0.29910925681E+01 -0.93521333657E+01  0.53596185265E+01  0.11186355271E+02  0.51100000000E-03 0.  1.
        -12    1    3    3    0    0 -0.28010063104E+02 -0.24088996368E+02 -0.14915886897E+01  0.36973885621E+02  0.00000000000E+00 0.  1.
</event>
<event>
 7    1  0.2641103E-015  0.9000682E+02  0.7816164E-02  0.1186341E+00
        -11   -1    0    0    0    0  0.00000000000E+00  0.00000000000E+00  0.45593999997E+02  0.45594000000E+02  0.51100000000E-03 0.  1.
         11   -1    0    0    0    0 -0.00000000000E+00 -0.00000000000E+00 -0.45593999997E+02  0.45594000000E+02  0.51100000000E-03 0. -1.
    9900012    2    1    2    0    0  0.91334404561E-01  0.11720047311E+01 -0.11512665663E+00  0.90006817876E+02  0.89999067067E+02 0.  0.
        -12    1    1    2    0    0 -0.91334404561E-01 -0.11720047311E+01  0.11512665663E+00  0.11811821241E+01  0.00000000000E+00 0.  1.
         11    1    3    3    0    0 -0.12678269156E+02 -0.34621261765E+02 -0.76401153538E+01  0.37652910085E+02  0.51100000000E-03 0. -1.
        -11    1    3    3    0    0 -0.53978181712E+01 -0.48658658462E+01  0.14080133379E+01  0.74024045596E+01  0.51100000000E-03 0.  1.
        -12    1    3    3    0    0  0.18167421731E+02  0.40659132342E+02  0.61169753593E+01  0.44951503231E+02  0.00000000000E+00 0.  1.
</event>
<event>
 7    1  0.2641103E-015  0.9000777E+02  0.7816164E-02  0.1186339E+00
        -11   -1    0    0    0    0  0.00000000000E+00  0.00000000000E+00  0.45593999997E+02  0.45594000000E+02  0.51100000000E-03 0. -1.
         11   -1    0    0    0    0 -0.00000000000E+00 -0.00000000000E+00 -0.45593999997E+02  0.45594000000E+02  0.51100000000E-03 0.  1.
    9900012    2    1    2    0    0 -0.14306060470E+00  0.82305783373E+00 -0.83369273267E+00  0.90007773705E+02  0.90000035518E+02 0.  0.
        -12    1    1    2    0    0  0.14306060470E+00 -0.82305783373E+00  0.83369273267E+00  0.11802262947E+01  0.00000000000E+00 0.  1.
         11    1    3    3    0    0  0.29090702808E+02  0.25897246457E+02 -0.95765780546E+01  0.40107944493E+02  0.51100000000E-03 0. -1.
        -11    1    3    3    0    0  0.59344840779E+01 -0.28494469583E+01  0.47265651473E+01  0.81041882747E+01  0.51100000000E-03 0.  1.
        -12    1    3    3    0    0 -0.35168247491E+02 -0.22224741665E+02  0.40163201746E+01  0.41795640938E+02  0.00000000000E+00 0.  1.
</event>
<event>
 7    1  0.2641103E-015  0.9000772E+02  0.7816164E-02  0.1186339E+00
        -11   -1    0    0    0    0  0.00000000000E+00  0.00000000000E+00  0.45593999997E+02  0.45594000000E+02  0.51100000000E-03 0.  1.
         11   -1    0    0    0    0 -0.00000000000E+00 -0.00000000000E+00 -0.45593999997E+02  0.45594000000E+02  0.51100000000E-03 0. -1.
    9900012    2    1    2    0    0 -0.10110864346E+01  0.47998121749E+00  0.37468379532E+00  0.90007717960E+02  0.89999979037E+02 0.  0.
        -12    1    1    2    0    0  0.10110864346E+01 -0.47998121749E+00 -0.37468379532E+00  0.11802820400E+01  0.00000000000E+00 0.  1.
         11    1    3    3    0    0 -0.11261116294E+02  0.85448955727E+01 -0.11713100619E+01  0.14184496750E+02  0.51100000000E-03 0. -1.
        -11    1    3    3    0    0  0.26834005186E+00 -0.30420636863E+02 -0.25243661658E+02  0.39531374978E+02  0.51100000000E-03 0.  1.
         12    1    3    3    0    0  0.99816898078E+01  0.22355722508E+02  0.26789655515E+02  0.36291846231E+02  0.00000000000E+00 0. -1.
</event>
<event>
 7    1  0.2641103E-015  0.9000770E+02  0.7816164E-02  0.1186339E+00
        -11   -1    0    0    0    0  0.00000000000E+00  0.00000000000E+00  0.45593999997E+02  0.45594000000E+02  0.51100000000E-03 0.  1.
         11   -1    0    0    0    0 -0.00000000000E+00 -0.00000000000E+00 -0.45593999997E+02  0.45594000000E+02  0.51100000000E-03 0. -1.
    9900012    2    1    2    0    0  0.76337648336E+00  0.48951620564E+00 -0.75546556376E+00  0.90007704279E+02  0.89999965175E+02 0.  0.
        -12    1    1    2    0    0 -0.76337648336E+00 -0.48951620564E+00  0.75546556376E+00  0.11802957210E+01  0.00000000000E+00 0.  1.
         11    1    3    3    0    0  0.65817297607E+01 -0.29511461543E+01  0.56073045725E+01  0.91362079167E+01  0.51100000000E-03 0. -1.
        -11    1    3    3    0    0  0.29821433721E+02  0.25019641123E+02 -0.41840601962E+01  0.39151075478E+02  0.51100000000E-03 0.  1.
         12    1    3    3    0    0 -0.35639786998E+02 -0.21578978763E+02 -0.21787099400E+01  0.41720420884E+02  0.00000000000E+00 0. -1.
</event>
<event>
 7    1  0.2641103E-015  0.9000769E+02  0.7816164E-02  0.1186339E+00
        -11   -1    0    0    0    0  0.00000000000E+00  0.00000000000E+00  0.45593999997E+02  0.45594000000E+02  0.51100000000E-03 0.  1.
         11   -1    0    0    0    0 -0.00000000000E+00 -0.00000000000E+00 -0.45593999997E+02  0.45594000000E+02  0.51100000000E-03 0. -1.
    9900012    2    1    2    0    0  0.11081126718E+01 -0.10616219120E+00 -0.39237095278E+00  0.90007686877E+02  0.89999947544E+02 0.  0.
        -12    1    1    2    0    0 -0.11081126718E+01  0.10616219120E+00  0.39237095278E+00  0.11803131232E+01  0.00000000000E+00 0.  1.
         11    1    3    3    0    0  0.10747671650E+02 -0.82942574603E+01 -0.32879122599E+01  0.13968447301E+02  0.51100000000E-03 0. -1.
        -11    1    3    3    0    0  0.15719384756E+02 -0.85543392840E+01 -0.27660865733E+02  0.32945398329E+02  0.51100000000E-03 0.  1.
         12    1    3    3    0    0 -0.25358943735E+02  0.16742434553E+02  0.30556407041E+02  0.43093841246E+02  0.00000000000E+00 0. -1.
</event>
<event>
 7    1  0.2641103E-015  0.9000771E+02  0.7816164E-02  0.1186339E+00
        -11   -1    0    0    0    0  0.00000000000E+00  0.00000000000E+00  0.45593999997E+02  0.45594000000E+02  0.51100000000E-03 0.  1.
         11   -1    0    0    0    0 -0.00000000000E+00 -0.00000000000E+00 -0.45593999997E+02  0.45594000000E+02  0.51100000000E-03 0. -1.
    9900012    2    1    2    0    0 -0.35440756514E+00  0.98687068645E+00 -0.54180946589E+00  0.90007713606E+02  0.89999974626E+02 0.  0.
        -12    1    1    2    0    0  0.35440756514E+00 -0.98687068645E+00  0.54180946589E+00  0.11802863938E+01  0.00000000000E+00 0.  1.
         11    1    3    3    0    0 -0.20699094312E+00  0.19459687969E+01 -0.92594220010E+01  0.94639598405E+01  0.51100000000E-03 0. -1.
        -11    1    3    3    0    0  0.10445797121E+02 -0.25083849107E+02  0.34341138034E+02  0.43790728760E+02  0.51100000000E-03 0.  1.
         12    1    3    3    0    0 -0.10593213743E+02  0.24124750997E+02 -0.25623525499E+02  0.36753025006E+02  0.00000000000E+00 0. -1.
</event>
<event>
 7    1  0.2641103E-015  0.9000771E+02  0.7816164E-02  0.1186339E+00
        -11   -1    0    0    0    0  0.00000000000E+00  0.00000000000E+00  0.45593999997E+02  0.45594000000E+02  0.51100000000E-03 0.  1.
         11   -1    0    0    0    0 -0.00000000000E+00 -0.00000000000E+00 -0.45593999997E+02  0.45594000000E+02  0.51100000000E-03 0. -1.
    9900012    2    1    2    0    0 -0.11699457074E+01 -0.10274772503E+00  0.11726204134E+00  0.90007711713E+02  0.89999972708E+02 0.  0.
        -12    1    1    2    0    0  0.11699457074E+01  0.10274772503E+00 -0.11726204134E+00  0.11802882866E+01  0.00000000000E+00 0.  1.
         11    1    3    3    0    0 -0.88372515411E+01  0.27553991581E+02  0.21645408323E+02  0.36136452075E+02  0.51100000000E-03 0. -1.
        -11    1    3    3    0    0 -0.40554567592E+01  0.95042656323E+01 -0.58066900473E+01  0.11853077419E+02  0.51100000000E-03 0.  1.
        -12    1    3    3    0    0  0.11722762593E+02 -0.37161004939E+02 -0.15721456234E+02  0.42018182219E+02  0.00000000000E+00 0.  1.
</event>
<event>
 7    1  0.2641103E-015  0.9000754E+02  0.7816164E-02  0.1186339E+00
        -11   -1    0    0    0    0  0.00000000000E+00  0.00000000000E+00  0.45593999997E+02  0.45594000000E+02  0.51100000000E-03 0.  1.
         11   -1    0    0    0    0 -0.00000000000E+00 -0.00000000000E+00 -0.45593999997E+02  0.45594000000E+02  0.51100000000E-03 0. -1.
    9900012    2    1    2    0    0 -0.37301479447E+00 -0.97260621573E+00 -0.55533132719E+00  0.90007535782E+02  0.89999794454E+02 0.  0.
        -12    1    1    2    0    0  0.37301479447E+00  0.97260621573E+00  0.55533132719E+00  0.11804642183E+01  0.00000000000E+00 0.  1.
         11    1    3    3    0    0  0.47266240088E+01  0.36885630546E+02 -0.17485878145E+02  0.41093146023E+02  0.51100000000E-03 0. -1.
        -11    1    3    3    0    0 -0.29520563942E+01 -0.63138034703E+01 -0.65242803339E+01  0.95469882870E+01  0.51100000000E-03 0.  1.
        -12    1    3    3    0    0 -0.21475824091E+01 -0.31544433292E+02  0.23454827152E+02  0.39367401471E+02  0.00000000000E+00 0.  1.
</event>
<event>
 7    1  0.2641103E-015  0.9000768E+02  0.7816164E-02  0.1186339E+00
        -11   -1    0    0    0    0  0.00000000000E+00  0.00000000000E+00  0.45593999997E+02  0.45594000000E+02  0.51100000000E-03 0. -1.
         11   -1    0    0    0    0 -0.00000000000E+00 -0.00000000000E+00 -0.45593999997E+02  0.45594000000E+02  0.51100000000E-03 0.  1.
    9900012    2    1    2    0    0 -0.81398617457E+00  0.18711791822E+00  0.83400309138E+00  0.90007683193E+02  0.89999943811E+02 0.  0.
        -12    1    1    2    0    0  0.81398617457E+00 -0.18711791822E+00 -0.83400309138E+00  0.11803168067E+01  0.00000000000E+00 0.  1.
         11    1    3    3    0    0  0.30688592168E+02 -0.19810315875E+02 -0.61172274122E+01  0.37035911975E+02  0.51100000000E-03 0. -1.
        -11    1    3    3    0    0  0.29197882824E+01 -0.40731845038E+01 -0.70909771853E+01  0.86831994863E+01  0.51100000000E-03 0.  1.
        -12    1    3    3    0    0 -0.34422366625E+02  0.24070618297E+02  0.14042207689E+02  0.44288571732E+02  0.00000000000E+00 0.  1.
</event>
<event>
 7    1  0.2641103E-015  0.9000768E+02  0.7816164E-02  0.1186339E+00
        -11   -1    0    0    0    0  0.00000000000E+00  0.00000000000E+00  0.45593999997E+02  0.45594000000E+02  0.51100000000E-03 0. -1.
         11   -1    0    0    0    0 -0.00000000000E+00 -0.00000000000E+00 -0.45593999997E+02  0.45594000000E+02  0.51100000000E-03 0.  1.
    9900012    2    1    2    0    0 -0.31678203345E+00 -0.94286438271E+00  0.63546069004E+00  0.90007680387E+02  0.89999940968E+02 0.  0.
        -12    1    1    2    0    0  0.31678203345E+00  0.94286438271E+00 -0.63546069004E+00  0.11803196133E+01  0.00000000000E+00 0.  1.
         11    1    3    3    0    0  0.18592365629E+02  0.20210198214E+01  0.30567665443E+02  0.35834937584E+02  0.51100000000E-03 0. -1.
        -11    1    3    3    0    0  0.50612240665E+01 -0.93012967590E+01  0.46957199608E+01  0.11583604649E+02  0.51100000000E-03 0.  1.
        -12    1    3    3    0    0 -0.23970371729E+02  0.63374125548E+01 -0.34627924713E+02  0.42589138154E+02  0.00000000000E+00 0.  1.
</event>
<event>
 7    1  0.2641103E-015  0.9000769E+02  0.7816164E-02  0.1186339E+00
        -11   -1    0    0    0    0  0.00000000000E+00  0.00000000000E+00  0.45593999997E+02  0.45594000000E+02  0.51100000000E-03 0. -1.
         11   -1    0    0    0    0 -0.00000000000E+00 -0.00000000000E+00 -0.45593999997E+02  0.45594000000E+02  0.51100000000E-03 0.  1.
    9900012    2    1    2    0    0 -0.30262544769E+00  0.10191634525E+01  0.51268659738E+00  0.90007693323E+02  0.89999954075E+02 0.  0.
        -12    1    1    2    0    0  0.30262544769E+00 -0.10191634525E+01 -0.51268659738E+00  0.11803066769E+01  0.00000000000E+00 0.  1.
         11    1    3    3    0    0  0.25872087952E+02 -0.28892530884E+02  0.11251411403E+02  0.40382391394E+02  0.51100000000E-03 0. -1.
        -11    1    3    3    0    0  0.10592031662E+01  0.12444567918E+00 -0.91726841969E+01  0.92344752808E+01  0.51100000000E-03 0.  1.
        -12    1    3    3    0    0 -0.27233916566E+02  0.29787248658E+02 -0.15660406085E+01  0.40390826648E+02  0.00000000000E+00 0.  1.
</event>
<event>
 7    1  0.2641103E-015  0.9000730E+02  0.7816164E-02  0.1186340E+00
        -11   -1    0    0    0    0  0.00000000000E+00  0.00000000000E+00  0.45593999997E+02  0.45594000000E+02  0.51100000000E-03 0. -1.
         11   -1    0    0    0    0 -0.00000000000E+00 -0.00000000000E+00 -0.45593999997E+02  0.45594000000E+02  0.51100000000E-03 0.  1.
    9900012    2    1    2    0    0 -0.10456175625E+01  0.54265356887E+00  0.79118757565E-01  0.90007301579E+02  0.89999557159E+02 0.  0.
        -12    1    1    2    0    0  0.10456175625E+01 -0.54265356887E+00 -0.79118757565E-01  0.11806984206E+01  0.00000000000E+00 0.  1.
         11    1    3    3    0    0  0.86947834129E+01  0.18160323956E+01  0.11152660261E+01  0.89521534186E+01  0.51100000000E-03 0. -1.
        -11    1    3    3    0    0 -0.74376243064E+01 -0.34622570028E+02 -0.21912119344E+02  0.41643505918E+02  0.51100000000E-03 0.  1.
         12    1    3    3    0    0 -0.23027766690E+01  0.33349191202E+02  0.20875972076E+02  0.39411642243E+02  0.00000000000E+00 0. -1.
</event>
<event>
 7    1  0.2641103E-015  0.9000778E+02  0.7816164E-02  0.1186339E+00
        -11   -1    0    0    0    0  0.00000000000E+00  0.00000000000E+00  0.45593999997E+02  0.45594000000E+02  0.51100000000E-03 0. -1.
         11   -1    0    0    0    0 -0.00000000000E+00 -0.00000000000E+00 -0.45593999997E+02  0.45594000000E+02  0.51100000000E-03 0.  1.
    9900012    2    1    2    0    0  0.10343288538E+01 -0.56086083508E+00 -0.92249438870E-01  0.90007783489E+02  0.90000045431E+02 0.  0.
        -12    1    1    2    0    0 -0.10343288538E+01  0.56086083508E+00  0.92249438870E-01  0.11802165111E+01  0.00000000000E+00 0.  1.
         11    1    3    3    0    0  0.49190250563E+01  0.70264725054E+01  0.20633296080E+01  0.88218735372E+01  0.51100000000E-03 0. -1.
        -11    1    3    3    0    0 -0.71650211710E+01  0.16864982849E+02 -0.35356055673E+02  0.39822303398E+02  0.51100000000E-03 0.  1.
         12    1    3    3    0    0  0.32803249685E+01 -0.24452316190E+02  0.33200476626E+02  0.41363606554E+02  0.00000000000E+00 0. -1.
</event>
<event>
 7    1  0.2641103E-015  0.9000774E+02  0.7816164E-02  0.1186339E+00
        -11   -1    0    0    0    0  0.00000000000E+00  0.00000000000E+00  0.45593999997E+02  0.45594000000E+02  0.51100000000E-03 0.  1.
         11   -1    0    0    0    0 -0.00000000000E+00 -0.00000000000E+00 -0.45593999997E+02  0.45594000000E+02  0.51100000000E-03 0. -1.
    9900012    2    1    2    0    0 -0.10120933842E+01  0.14397568857E+00 -0.58987531683E+00  0.90007739475E+02  0.90000000836E+02 0.  0.
        -12    1    1    2    0    0  0.10120933842E+01 -0.14397568857E+00  0.58987531683E+00  0.11802605249E+01  0.00000000000E+00 0.  1.
         11    1    3    3    0    0 -0.54266122756E+01  0.17212725784E+01 -0.61709388351E+01  0.83959148665E+01  0.51100000000E-03 0. -1.
        -11    1    3    3    0    0  0.37796844238E+02 -0.13389699575E+02 -0.12300140860E+02  0.41942567333E+02  0.51100000000E-03 0.  1.
         12    1    3    3    0    0 -0.33382325347E+02  0.11812402686E+02  0.17881204378E+02  0.39669257275E+02  0.00000000000E+00 0. -1.
</event>
<event>
 7    1  0.2641103E-015  0.9000778E+02  0.7816164E-02  0.1186339E+00
        -11   -1    0    0    0    0  0.00000000000E+00  0.00000000000E+00  0.45593999997E+02  0.45594000000E+02  0.51100000000E-03 0.  1.
         11   -1    0    0    0    0 -0.00000000000E+00 -0.00000000000E+00 -0.45593999997E+02  0.45594000000E+02  0.51100000000E-03 0. -1.
    9900012    2    1    2    0    0  0.41005705822E+00  0.99468432792E+00 -0.48515866274E+00  0.90007778567E+02  0.90000040444E+02 0.  0.
        -12    1    1    2    0    0 -0.41005705822E+00 -0.99468432792E+00  0.48515866274E+00  0.11802214331E+01  0.00000000000E+00 0.  1.
         11    1    3    3    0    0  0.39650001501E+01 -0.17674748631E+01  0.89478980271E+01  0.99453543399E+01  0.51100000000E-03 0. -1.
        -11    1    3    3    0    0  0.15533081320E+02 -0.77105285690E+01  0.30210338925E+02  0.34833797443E+02  0.51100000000E-03 0.  1.
         12    1    3    3    0    0 -0.19088024412E+02  0.10472687760E+02 -0.39643395615E+02  0.45228626784E+02  0.00000000000E+00 0. -1.
</event>
<event>
 7    1  0.2641103E-015  0.9000767E+02  0.7816164E-02  0.1186339E+00
        -11   -1    0    0    0    0  0.00000000000E+00  0.00000000000E+00  0.45593999997E+02  0.45594000000E+02  0.51100000000E-03 0. -1.
         11   -1    0    0    0    0 -0.00000000000E+00 -0.00000000000E+00 -0.45593999997E+02  0.45594000000E+02  0.51100000000E-03 0.  1.
    9900012    2    1    2    0    0 -0.10074498098E+01  0.18915022847E+00 -0.58519045517E+00  0.90007669200E+02  0.89999929634E+02 0.  0.
        -12    1    1    2    0    0  0.10074498098E+01 -0.18915022847E+00  0.58519045517E+00  0.11803307998E+01  0.00000000000E+00 0.  1.
         11    1    3    3    0    0 -0.55103057129E+01 -0.94372150495E+01 -0.13294981805E+01  0.11008726657E+02  0.51100000000E-03 0. -1.
        -11    1    3    3    0    0  0.37093622247E+02 -0.86274981654E+01 -0.11343656493E+02  0.39737250520E+02  0.51100000000E-03 0.  1.
         12    1    3    3    0    0 -0.32590766344E+02  0.18253863443E+02  0.12087964219E+02  0.39261692022E+02  0.00000000000E+00 0. -1.
</event>
<event>
 7    1  0.2641103E-015  0.9000793E+02  0.7816164E-02  0.1186339E+00
        -11   -1    0    0    0    0  0.00000000000E+00  0.00000000000E+00  0.45593999997E+02  0.45594000000E+02  0.51100000000E-03 0. -1.
         11   -1    0    0    0    0 -0.00000000000E+00 -0.00000000000E+00 -0.45593999997E+02  0.45594000000E+02  0.51100000000E-03 0.  1.
    9900012    2    1    2    0    0 -0.99425706302E+00 -0.10540797364E+00 -0.62682208991E+00  0.90007930561E+02  0.90000194444E+02 0.  0.
        -12    1    1    2    0    0  0.99425706302E+00  0.10540797364E+00  0.62682208991E+00  0.11800694389E+01  0.00000000000E+00 0.  1.
         11    1    3    3    0    0 -0.13494698336E+02 -0.26074429761E+02  0.23002470834E+02  0.37297405208E+02  0.51100000000E-03 0. -1.
        -11    1    3    3    0    0 -0.11985890136E+02  0.16377973864E+02 -0.64368783758E+01  0.21291617922E+02  0.51100000000E-03 0.  1.
        -12    1    3    3    0    0  0.24486331409E+02  0.95910479235E+01 -0.17192414548E+02  0.31418907431E+02  0.00000000000E+00 0.  1.
</event>
<event>
 7    1  0.2641103E-015  0.9000773E+02  0.7816164E-02  0.1186339E+00
        -11   -1    0    0    0    0  0.00000000000E+00  0.00000000000E+00  0.45593999997E+02  0.45594000000E+02  0.51100000000E-03 0.  1.
         11   -1    0    0    0    0 -0.00000000000E+00 -0.00000000000E+00 -0.45593999997E+02  0.45594000000E+02  0.51100000000E-03 0. -1.
    9900012    2    1    2    0    0 -0.10215999497E+01 -0.33572590667E+00  0.48647436228E+00  0.90007730689E+02  0.89999991934E+02 0.  0.
        -12    1    1    2    0    0  0.10215999497E+01  0.33572590667E+00 -0.48647436228E+00  0.11802693111E+01  0.00000000000E+00 0.  1.
         11    1    3    3    0    0 -0.13440734554E+02 -0.11569185753E+02 -0.44581584317E+01  0.18285912097E+02  0.51100000000E-03 0. -1.
        -11    1    3    3    0    0 -0.51109456281E+01 -0.27649889636E+02  0.71480909636E+01  0.29012641500E+02  0.51100000000E-03 0.  1.
         12    1    3    3    0    0  0.17530080232E+02  0.38883349483E+02 -0.22034581696E+01  0.42709177092E+02  0.00000000000E+00 0. -1.
</event>
<event>
 7    1  0.2641103E-015  0.9000772E+02  0.7816164E-02  0.1186339E+00
        -11   -1    0    0    0    0  0.00000000000E+00  0.00000000000E+00  0.45593999997E+02  0.45594000000E+02  0.51100000000E-03 0.  1.
         11   -1    0    0    0    0 -0.00000000000E+00 -0.00000000000E+00 -0.45593999997E+02  0.45594000000E+02  0.51100000000E-03 0. -1.
    9900012    2    1    2    0    0  0.89663278385E+00  0.75398075122E+00 -0.14364256550E+00  0.90007715920E+02  0.89999976970E+02 0.  0.
        -12    1    1    2    0    0 -0.89663278385E+00 -0.75398075122E+00  0.14364256550E+00  0.11802840797E+01  0.00000000000E+00 0.  1.
         11    1    3    3    0    0  0.10876229830E+02 -0.35812426418E+02  0.58878936113E+01  0.37887854950E+02  0.51100000000E-03 0. -1.
        -11    1    3    3    0    0  0.21338256091E+01 -0.60690160627E+01  0.26450394271E+01  0.69557459364E+01  0.51100000000E-03 0.  1.
        -12    1    3    3    0    0 -0.12113422656E+02  0.42635423232E+02 -0.86765756039E+01  0.45164115034E+02  0.00000000000E+00 0.  1.
</event>
<event>
 7    1  0.2641103E-015  0.9000774E+02  0.7816164E-02  0.1186339E+00
        -11   -1    0    0    0    0  0.00000000000E+00  0.00000000000E+00  0.45593999997E+02  0.45594000000E+02  0.51100000000E-03 0.  1.
         11   -1    0    0    0    0 -0.00000000000E+00 -0.00000000000E+00 -0.45593999997E+02  0.45594000000E+02  0.51100000000E-03 0. -1.
    9900012    2    1    2    0    0 -0.87822918150E+00  0.33899891896E-01 -0.78777394493E+00  0.90007735840E+02  0.89999997154E+02 0.  0.
        -12    1    1    2    0    0  0.87822918150E+00 -0.33899891896E-01  0.78777394493E+00  0.11802641595E+01  0.00000000000E+00 0.  1.
         11    1    3    3    0    0  0.15109409891E+02 -0.81761193686E+01  0.23932068117E+02  0.29459923282E+02  0.51100000000E-03 0. -1.
        -11    1    3    3    0    0 -0.53011838806E+01 -0.22114801546E+02 -0.67878659999E+01  0.23732722622E+02  0.51100000000E-03 0.  1.
         12    1    3    3    0    0 -0.10686455192E+02  0.30324820807E+02 -0.17931976062E+02  0.36815089936E+02  0.00000000000E+00 0. -1.
</event>
<event>
 7    1  0.2641103E-015  0.9000774E+02  0.7816164E-02  0.1186339E+00
        -11   -1    0    0    0    0  0.00000000000E+00  0.00000000000E+00  0.45593999997E+02  0.45594000000E+02  0.51100000000E-03 0.  1.
         11   -1    0    0    0    0 -0.00000000000E+00 -0.00000000000E+00 -0.45593999997E+02  0.45594000000E+02  0.51100000000E-03 0. -1.
    9900012    2    1    2    0    0 -0.11562795056E+01  0.81767766040E-01  0.22216448827E+00  0.90007735063E+02  0.89999996365E+02 0.  0.
        -12    1    1    2    0    0  0.11562795056E+01 -0.81767766040E-01 -0.22216448827E+00  0.11802649374E+01  0.00000000000E+00 0.  1.
         11    1    3    3    0    0 -0.40783692159E+01 -0.94693663150E+01 -0.62438256189E+00  0.10329174590E+02  0.51100000000E-03 0. -1.
        -11    1    3    3    0    0  0.48516007457E+00  0.73620453797E+01  0.39855325247E+02  0.40532481336E+02  0.51100000000E-03 0.  1.
         12    1    3    3    0    0  0.24369296357E+01  0.21890887014E+01 -0.39008778196E+02  0.39146079137E+02  0.00000000000E+00 0. -1.
</event>
<event>
 7    1  0.2641103E-015  0.9000773E+02  0.7816164E-02  0.1186339E+00
        -11   -1    0    0    0    0  0.00000000000E+00  0.00000000000E+00  0.45593999997E+02  0.45594000000E+02  0.51100000000E-03 0. -1.
         11   -1    0    0    0    0 -0.00000000000E+00 -0.00000000000E+00 -0.45593999997E+02  0.45594000000E+02  0.51100000000E-03 0.  1.
    9900012    2    1    2    0    0  0.42292451495E+00  0.69549003385E+00  0.85467878103E+00  0.90007725730E+02  0.89999986910E+02 0.  0.
        -12    1    1    2    0    0 -0.42292451495E+00 -0.69549003385E+00 -0.85467878103E+00  0.11802742695E+01  0.00000000000E+00 0.  1.
         11    1    3    3    0    0 -0.67210688327E+01  0.12336124786E+01  0.69886255863E+01  0.97742239512E+01  0.51100000000E-03 0. -1.
        -11    1    3    3    0    0  0.34241710637E+01 -0.36080110483E+02  0.14422881981E+02  0.39006651290E+02  0.51100000000E-03 0.  1.
         12    1    3    3    0    0  0.37198222840E+01  0.35541988038E+02 -0.20556828787E+02  0.41226850490E+02  0.00000000000E+00 0. -1.
</event>
<event>
 7    1  0.2641103E-015  0.9000742E+02  0.7816164E-02  0.1186340E+00
        -11   -1    0    0    0    0  0.00000000000E+00  0.00000000000E+00  0.45593999997E+02  0.45594000000E+02  0.51100000000E-03 0. -1.
         11   -1    0    0    0    0 -0.00000000000E+00 -0.00000000000E+00 -0.45593999997E+02  0.45594000000E+02  0.51100000000E-03 0.  1.
    9900012    2    1    2    0    0  0.74661100151E+00  0.67968316557E+00  0.61185205760E+00  0.90007423813E+02  0.89999681007E+02 0.  0.
        -12    1    1    2    0    0 -0.74661100151E+00 -0.67968316557E+00 -0.61185205760E+00  0.11805761871E+01  0.00000000000E+00 0.  1.
         11    1    3    3    0    0 -0.97418972198E+01  0.29840735573E+02  0.23184762468E+02  0.39024444543E+02  0.51100000000E-03 0. -1.
        -11    1    3    3    0    0  0.57727100547E+01 -0.15015729428E+01  0.76780701586E+01  0.97227395471E+01  0.51100000000E-03 0.  1.
        -12    1    3    3    0    0  0.47157981666E+01 -0.27659479464E+02 -0.30250980569E+02  0.41260239723E+02  0.00000000000E+00 0.  1.
</event>
<event>
 7    1  0.2641103E-015  0.9000778E+02  0.7816164E-02  0.1186339E+00
        -11   -1    0    0    0    0  0.00000000000E+00  0.00000000000E+00  0.45593999997E+02  0.45594000000E+02  0.51100000000E-03 0. -1.
         11   -1    0    0    0    0 -0.00000000000E+00 -0.00000000000E+00 -0.45593999997E+02  0.45594000000E+02  0.51100000000E-03 0.  1.
    9900012    2    1    2    0    0  0.99649341022E+00  0.52957266446E+00 -0.34565194176E+00  0.90007779009E+02  0.90000040892E+02 0.  0.
        -12    1    1    2    0    0 -0.99649341022E+00 -0.52957266446E+00  0.34565194176E+00  0.11802209913E+01  0.00000000000E+00 0.  1.
         11    1    3    3    0    0  0.49612020327E+01 -0.46491929475E+01  0.13612603649E+01  0.69340861485E+01  0.51100000000E-03 0. -1.
        -11    1    3    3    0    0 -0.74898821324E+01 -0.32649607266E+02 -0.21926664926E+02  0.40035906685E+02  0.51100000000E-03 0.  1.
         12    1    3    3    0    0  0.35251735099E+01  0.37828372878E+02  0.20219752620E+02  0.43037786176E+02  0.00000000000E+00 0. -1.
</event>
<event>
 7    1  0.2641103E-015  0.9000777E+02  0.7816164E-02  0.1186339E+00
        -11   -1    0    0    0    0  0.00000000000E+00  0.00000000000E+00  0.45593999997E+02  0.45594000000E+02  0.51100000000E-03 0. -1.
         11   -1    0    0    0    0 -0.00000000000E+00 -0.00000000000E+00 -0.45593999997E+02  0.45594000000E+02  0.51100000000E-03 0.  1.
    9900012    2    1    2    0    0 -0.66463225065E+00 -0.65658047216E+00  0.72119377989E+00  0.90007765103E+02  0.90000026802E+02 0.  0.
        -12    1    1    2    0    0  0.66463225065E+00  0.65658047216E+00 -0.72119377989E+00  0.11802348975E+01  0.00000000000E+00 0.  1.
         11    1    3    3    0    0 -0.17727710349E+02 -0.61654480755E+01  0.31465701215E+02  0.36638433610E+02  0.51100000000E-03 0. -1.
        -11    1    3    3    0    0 -0.61766793349E+01  0.23331012253E+01  0.65574597109E+01  0.93056438281E+01  0.51100000000E-03 0.  1.
        -12    1    3    3    0    0  0.23239757434E+02  0.31757663780E+01 -0.37301967146E+02  0.44063687665E+02  0.00000000000E+00 0.  1.
</event>
<event>
 7    1  0.3892350E-015  0.9000765E+02  0.7816164E-02  0.1186339E+00
        -11   -1    0    0    0    0  0.00000000000E+00  0.00000000000E+00  0.45593999997E+02  0.45594000000E+02  0.51100000000E-03 0. -1.
         11   -1    0    0    0    0 -0.00000000000E+00 -0.00000000000E+00 -0.45593999997E+02  0.45594000000E+02  0.51100000000E-03 0.  1.
    9900012    2    1    2    0    0  0.46196472756E-01  0.16417551750E+00  0.11679625560E+01  0.90007650794E+02  0.89999910985E+02 0.  0.
        -12    1    1    2    0    0 -0.46196472756E-01 -0.16417551750E+00 -0.11679625560E+01  0.11803492055E+01  0.00000000000E+00 0.  1.
         11    1    3    3    0    0 -0.29004613888E+01  0.73271963406E+01  0.43407664877E+01  0.89968181289E+01  0.51100000000E-03 0. -1.
        -11    1    3    3    0    0 -0.16640073608E+02  0.36810652733E+01 -0.36833247489E+02  0.40584854466E+02  0.51100000000E-03 0.  1.
         12    1    3    3    0    0  0.19586731470E+02 -0.10844086096E+02  0.33660443557E+02  0.40425978199E+02  0.00000000000E+00 0. -1.
</event>
<event>
 7    1  0.2641103E-015  0.9000791E+02  0.7816164E-02  0.1186339E+00
        -11   -1    0    0    0    0  0.00000000000E+00  0.00000000000E+00  0.45593999997E+02  0.45594000000E+02  0.51100000000E-03 0. -1.
         11   -1    0    0    0    0 -0.00000000000E+00 -0.00000000000E+00 -0.45593999997E+02  0.45594000000E+02  0.51100000000E-03 0.  1.
    9900012    2    1    2    0    0  0.64268499770E+00 -0.74015054144E+00  0.65707597270E+00  0.90007908620E+02  0.90000172214E+02 0.  0.
        -12    1    1    2    0    0 -0.64268499770E+00  0.74015054144E+00 -0.65707597270E+00  0.11800913796E+01  0.00000000000E+00 0.  1.
         11    1    3    3    0    0 -0.61278596370E+01  0.56796445465E+01 -0.24404263678E+01  0.87042924482E+01  0.51100000000E-03 0. -1.
        -11    1    3    3    0    0 -0.24263188195E+02  0.11884481758E+02 -0.24065931344E+02  0.36181656399E+02  0.51100000000E-03 0.  1.
         12    1    3    3    0    0  0.31033732830E+02 -0.18304276846E+02  0.27163433685E+02  0.45121959773E+02  0.00000000000E+00 0. -1.
</event>
<event>
 7    1  0.2641103E-015  0.9000785E+02  0.7816164E-02  0.1186339E+00
        -11   -1    0    0    0    0  0.00000000000E+00  0.00000000000E+00  0.45593999997E+02  0.45594000000E+02  0.51100000000E-03 0. -1.
         11   -1    0    0    0    0 -0.00000000000E+00 -0.00000000000E+00 -0.45593999997E+02  0.45594000000E+02  0.51100000000E-03 0.  1.
    9900012    2    1    2    0    0 -0.68396315448E+00  0.52580747439E+00  0.80527906070E+00  0.90007850237E+02  0.90000113060E+02 0.  0.
        -12    1    1    2    0    0  0.68396315448E+00 -0.52580747439E+00 -0.80527906070E+00  0.11801497627E+01  0.00000000000E+00 0.  1.
         11    1    3    3    0    0 -0.48517351328E+01 -0.66607042534E+01 -0.27577876538E+01  0.86896322106E+01  0.51100000000E-03 0. -1.
        -11    1    3    3    0    0 -0.26097870672E+02  0.35153207549E+01 -0.27303636005E+02  0.37933426855E+02  0.51100000000E-03 0.  1.
         12    1    3    3    0    0  0.30265642651E+02  0.36711909729E+01  0.30866702719E+02  0.43384791171E+02  0.00000000000E+00 0. -1.
</event>
<event>
 7    1  0.2641103E-015  0.9000775E+02  0.7816164E-02  0.1186339E+00
        -11   -1    0    0    0    0  0.00000000000E+00  0.00000000000E+00  0.45593999997E+02  0.45594000000E+02  0.51100000000E-03 0. -1.
         11   -1    0    0    0    0 -0.00000000000E+00 -0.00000000000E+00 -0.45593999997E+02  0.45594000000E+02  0.51100000000E-03 0.  1.
    9900012    2    1    2    0    0  0.17699552526E+00 -0.11082859431E+01  0.36518554856E+00  0.90007751877E+02  0.90000013402E+02 0.  0.
        -12    1    1    2    0    0 -0.17699552526E+00  0.11082859431E+01 -0.36518554856E+00  0.11802481233E+01  0.00000000000E+00 0.  1.
         11    1    3    3    0    0 -0.28064094403E+02 -0.10792426578E+02  0.22432423688E+02  0.37513777454E+02  0.51100000000E-03 0. -1.
        -11    1    3    3    0    0 -0.23249938991E+00 -0.47687510110E+01  0.75556513972E+01  0.89377240094E+01  0.51100000000E-03 0.  1.
        -12    1    3    3    0    0  0.28473589318E+02  0.14452891645E+02 -0.29622889537E+02  0.43556250413E+02  0.00000000000E+00 0.  1.
</event>
<event>
 7    1  0.2641103E-015  0.9000769E+02  0.7816164E-02  0.1186339E+00
        -11   -1    0    0    0    0  0.00000000000E+00  0.00000000000E+00  0.45593999997E+02  0.45594000000E+02  0.51100000000E-03 0. -1.
         11   -1    0    0    0    0 -0.00000000000E+00 -0.00000000000E+00 -0.45593999997E+02  0.45594000000E+02  0.51100000000E-03 0.  1.
    9900012    2    1    2    0    0 -0.56427665422E+00  0.83743990846E+00 -0.61107002778E+00  0.90007694818E+02  0.89999955590E+02 0.  0.
        -12    1    1    2    0    0  0.56427665422E+00 -0.83743990846E+00  0.61107002778E+00  0.11803051816E+01  0.00000000000E+00 0.  1.
         11    1    3    3    0    0 -0.52857736441E+01  0.56497541162E+01 -0.79056750535E+01  0.11061592241E+02  0.51100000000E-03 0. -1.
        -11    1    3    3    0    0 -0.27696417590E+02  0.17719468472E+02 -0.12004167704E+02  0.35002444954E+02  0.51100000000E-03 0.  1.
         12    1    3    3    0    0  0.32417914580E+02 -0.22531782679E+02  0.19298772730E+02  0.43943657623E+02  0.00000000000E+00 0. -1.
</event>
<event>
 7    1  0.2641103E-015  0.9000776E+02  0.7816164E-02  0.1186339E+00
        -11   -1    0    0    0    0  0.00000000000E+00  0.00000000000E+00  0.45593999997E+02  0.45594000000E+02  0.51100000000E-03 0.  1.
         11   -1    0    0    0    0 -0.00000000000E+00 -0.00000000000E+00 -0.45593999997E+02  0.45594000000E+02  0.51100000000E-03 0. -1.
    9900012    2    1    2    0    0 -0.11155288353E+01 -0.35233345212E+00  0.15629493694E+00  0.90007757842E+02  0.90000019446E+02 0.  0.
        -12    1    1    2    0    0  0.11155288353E+01  0.35233345212E+00 -0.15629493694E+00  0.11802421579E+01  0.00000000000E+00 0.  1.
         11    1    3    3    0    0 -0.24960295471E+02 -0.46523469766E+00 -0.28684613655E+02  0.38026830714E+02  0.51100000000E-03 0. -1.
        -11    1    3    3    0    0  0.32952226923E+00  0.65309111491E+01 -0.63878365300E+01  0.91414353992E+01  0.51100000000E-03 0.  1.
        -12    1    3    3    0    0  0.23515244366E+02 -0.64180099036E+01  0.35228745122E+02  0.42839491729E+02  0.00000000000E+00 0.  1.
</event>
<event>
 7    1  0.2641103E-015  0.9000775E+02  0.7816164E-02  0.1186339E+00
        -11   -1    0    0    0    0  0.00000000000E+00  0.00000000000E+00  0.45593999997E+02  0.45594000000E+02  0.51100000000E-03 0. -1.
         11   -1    0    0    0    0 -0.00000000000E+00 -0.00000000000E+00 -0.45593999997E+02  0.45594000000E+02  0.51100000000E-03 0.  1.
    9900012    2    1    2    0    0 -0.82237594087E+00 -0.39411287076E+00 -0.74924201783E+00  0.90007749711E+02  0.90000011207E+02 0.  0.
        -12    1    1    2    0    0  0.82237594087E+00  0.39411287076E+00  0.74924201783E+00  0.11802502888E+01  0.00000000000E+00 0.  1.
         11    1    3    3    0    0  0.26221149556E+01 -0.52663097459E+01 -0.85605575740E+01  0.10387138750E+02  0.51100000000E-03 0. -1.
        -11    1    3    3    0    0  0.30390458980E+02  0.19512073611E+02  0.19373925436E+02  0.40983533287E+02  0.51100000000E-03 0.  1.
         12    1    3    3    0    0 -0.33834949876E+02 -0.14639876736E+02 -0.11562609880E+02  0.38637077674E+02  0.00000000000E+00 0. -1.
</event>
<event>
 7    1  0.2641103E-015  0.9000752E+02  0.7816164E-02  0.1186339E+00
        -11   -1    0    0    0    0  0.00000000000E+00  0.00000000000E+00  0.45593999997E+02  0.45594000000E+02  0.51100000000E-03 0.  1.
         11   -1    0    0    0    0 -0.00000000000E+00 -0.00000000000E+00 -0.45593999997E+02  0.45594000000E+02  0.51100000000E-03 0. -1.
    9900012    2    1    2    0    0 -0.11431297025E+01 -0.19373010058E+00  0.22191179807E+00  0.90007524793E+02  0.89999783320E+02 0.  0.
        -12    1    1    2    0    0  0.11431297025E+01  0.19373010058E+00 -0.22191179807E+00  0.11804752072E+01  0.00000000000E+00 0.  1.
         11    1    3    3    0    0  0.26625038819E+02  0.28129086451E+02 -0.28492990410E+00  0.38732665568E+02  0.51100000000E-03 0. -1.
        -11    1    3    3    0    0  0.21060890962E+01 -0.88738412590E+00 -0.92740402643E+01  0.95514860076E+01  0.51100000000E-03 0.  1.
        -12    1    3    3    0    0 -0.29874257618E+02 -0.27435432426E+02  0.97808819664E+01  0.41723373217E+02  0.00000000000E+00 0.  1.
</event>
<event>
 7    1  0.2641103E-015  0.9000779E+02  0.7816164E-02  0.1186339E+00
        -11   -1    0    0    0    0  0.00000000000E+00  0.00000000000E+00  0.45593999997E+02  0.45594000000E+02  0.51100000000E-03 0.  1.
         11   -1    0    0    0    0 -0.00000000000E+00 -0.00000000000E+00 -0.45593999997E+02  0.45594000000E+02  0.51100000000E-03 0. -1.
    9900012    2    1    2    0    0 -0.70286232252E+00 -0.13648920194E+00 -0.93821559922E+00  0.90007791011E+02  0.90000053053E+02 0.  0.
        -12    1    1    2    0    0  0.70286232252E+00  0.13648920194E+00  0.93821559922E+00  0.11802089888E+01  0.00000000000E+00 0.  1.
         11    1    3    3    0    0  0.58664299356E+00  0.21757812994E+01 -0.32466161046E+02  0.32544274268E+02  0.51100000000E-03 0. -1.
        -11    1    3    3    0    0  0.18713877749E+02  0.12105888853E+02  0.89096123115E+01  0.24002978089E+02  0.51100000000E-03 0.  1.
        -12    1    3    3    0    0 -0.20003383065E+02 -0.14418159355E+02  0.22618333136E+02  0.33460538655E+02  0.00000000000E+00 0.  1.
</event>
<event>
 7    1  0.2641103E-015  0.9000765E+02  0.7816164E-02  0.1186339E+00
        -11   -1    0    0    0    0  0.00000000000E+00  0.00000000000E+00  0.45593999997E+02  0.45594000000E+02  0.51100000000E-03 0. -1.
         11   -1    0    0    0    0 -0.00000000000E+00 -0.00000000000E+00 -0.45593999997E+02  0.45594000000E+02  0.51100000000E-03 0.  1.
    9900012    2    1    2    0    0  0.39596771273E+00 -0.10172893153E+01 -0.44894139682E+00  0.90007654136E+02  0.89999914371E+02 0.  0.
        -12    1    1    2    0    0 -0.39596771273E+00  0.10172893153E+01  0.44894139682E+00  0.11803458639E+01  0.00000000000E+00 0.  1.
         11    1    3    3    0    0  0.11160424331E+01  0.10827639421E+02  0.94054022356E+00  0.10925563707E+02  0.51100000000E-03 0. -1.
        -11    1    3    3    0    0 -0.74259118068E+01  0.93528221753E+00 -0.38522508668E+02  0.39242866782E+02  0.51100000000E-03 0.  1.
         12    1    3    3    0    0  0.67058370864E+01 -0.12780210954E+02  0.37133027047E+02  0.39839223646E+02  0.00000000000E+00 0. -1.
</event>
<event>
 7    1  0.3183587E-015  0.9000773E+02  0.7816164E-02  0.1186339E+00
        -11   -1    0    0    0    0  0.00000000000E+00  0.00000000000E+00  0.45593999997E+02  0.45594000000E+02  0.51100000000E-03 0. -1.
         11   -1    0    0    0    0 -0.00000000000E+00 -0.00000000000E+00 -0.45593999997E+02  0.45594000000E+02  0.51100000000E-03 0.  1.
    9900012    2    1    2    0    0 -0.14300837235E+00  0.10817939578E+01  0.44978907359E+00  0.90007728941E+02  0.89999990163E+02 0.  0.
        -12    1    1    2    0    0  0.14300837235E+00 -0.10817939578E+01 -0.44978907359E+00  0.11802710589E+01  0.00000000000E+00 0.  1.
         11    1    3    3    0    0  0.86045629421E+01  0.15970444724E+01 -0.31552254624E+01  0.93029297778E+01  0.51100000000E-03 0. -1.
        -11    1    3    3    0    0 -0.12280203180E+02 -0.23806490569E+02 -0.29645357566E+02  0.39954969764E+02  0.51100000000E-03 0.  1.
         12    1    3    3    0    0  0.35326318657E+01  0.23291240054E+02  0.33250372102E+02  0.40749829399E+02  0.00000000000E+00 0. -1.
</event>
<event>
 7    1  0.2641103E-015  0.9000792E+02  0.7816164E-02  0.1186339E+00
        -11   -1    0    0    0    0  0.00000000000E+00  0.00000000000E+00  0.45593999997E+02  0.45594000000E+02  0.51100000000E-03 0. -1.
         11   -1    0    0    0    0 -0.00000000000E+00 -0.00000000000E+00 -0.45593999997E+02  0.45594000000E+02  0.51100000000E-03 0.  1.
    9900012    2    1    2    0    0 -0.85265574107E+00 -0.60258329844E+00  0.54996309989E+00  0.90007920403E+02  0.90000184152E+02 0.  0.
        -12    1    1    2    0    0  0.85265574107E+00  0.60258329844E+00 -0.54996309989E+00  0.11800795971E+01  0.00000000000E+00 0.  1.
         11    1    3    3    0    0  0.17921548193E+02  0.21193588202E+02  0.26197673579E+02  0.38166322481E+02  0.51100000000E-03 0. -1.
        -11    1    3    3    0    0 -0.32711130433E+01 -0.10138641012E+02  0.77814219388E+01  0.13192526284E+02  0.51100000000E-03 0.  1.
        -12    1    3    3    0    0 -0.15503090891E+02 -0.11657530488E+02 -0.33429132418E+02  0.38649071638E+02  0.00000000000E+00 0.  1.
</event>
<event>
 7    1  0.2641103E-015  0.9000782E+02  0.7816164E-02  0.1186339E+00
        -11   -1    0    0    0    0  0.00000000000E+00  0.00000000000E+00  0.45593999997E+02  0.45594000000E+02  0.51100000000E-03 0. -1.
         11   -1    0    0    0    0 -0.00000000000E+00 -0.00000000000E+00 -0.45593999997E+02  0.45594000000E+02  0.51100000000E-03 0.  1.
    9900012    2    1    2    0    0  0.10685442785E+01  0.39852994990E+00  0.30367942712E+00  0.90007816035E+02  0.90000078407E+02 0.  0.
        -12    1    1    2    0    0 -0.10685442785E+01 -0.39852994990E+00 -0.30367942712E+00  0.11801839647E+01  0.00000000000E+00 0.  1.
         11    1    3    3    0    0 -0.79141482200E+01 -0.66810695028E+01 -0.28068658250E+01  0.10730746841E+02  0.51100000000E-03 0. -1.
        -11    1    3    3    0    0  0.33642542306E+02  0.86959560758E+01 -0.24276419193E+02  0.42388498840E+02  0.51100000000E-03 0.  1.
         12    1    3    3    0    0 -0.24659849807E+02 -0.16163566231E+01  0.27386964445E+02  0.36888570354E+02  0.00000000000E+00 0. -1.
</event>
<event>
 7    1  0.2641103E-015  0.9000765E+02  0.7816164E-02  0.1186339E+00
        -11   -1    0    0    0    0  0.00000000000E+00  0.00000000000E+00  0.45593999997E+02  0.45594000000E+02  0.51100000000E-03 0.  1.
         11   -1    0    0    0    0 -0.00000000000E+00 -0.00000000000E+00 -0.45593999997E+02  0.45594000000E+02  0.51100000000E-03 0. -1.
    9900012    2    1    2    0    0 -0.53041578802E+00 -0.26361991862E+00 -0.10209760091E+01  0.90007649043E+02  0.89999909211E+02 0.  0.
        -12    1    1    2    0    0  0.53041578802E+00  0.26361991862E+00  0.10209760091E+01  0.11803509566E+01  0.00000000000E+00 0.  1.
         11    1    3    3    0    0 -0.34744428112E+01  0.67013272786E+01 -0.57690317570E+01  0.95005930245E+01  0.51100000000E-03 0. -1.
        -11    1    3    3    0    0  0.27681604356E+02  0.26785147243E+02  0.26082096935E+01  0.38607228476E+02  0.51100000000E-03 0.  1.
         12    1    3    3    0    0 -0.24737577332E+02 -0.33750094440E+02  0.21398460544E+01  0.41899827543E+02  0.00000000000E+00 0. -1.
</event>
<event>
 7    1  0.2641103E-015  0.9000765E+02  0.7816164E-02  0.1186339E+00
        -11   -1    0    0    0    0  0.00000000000E+00  0.00000000000E+00  0.45593999997E+02  0.45594000000E+02  0.51100000000E-03 0. -1.
         11   -1    0    0    0    0 -0.00000000000E+00 -0.00000000000E+00 -0.45593999997E+02  0.45594000000E+02  0.51100000000E-03 0.  1.
    9900012    2    1    2    0    0  0.10679532780E+01  0.50266129574E+00  0.61221878771E-02  0.90007648331E+02  0.89999908489E+02 0.  0.
        -12    1    1    2    0    0 -0.10679532780E+01 -0.50266129574E+00 -0.61221878771E-02  0.11803516694E+01  0.00000000000E+00 0.  1.
         11    1    3    3    0    0  0.34620781506E+01  0.81487829587E+01 -0.20111882134E+01  0.90792911132E+01  0.51100000000E-03 0. -1.
        -11    1    3    3    0    0  0.14554981112E+01  0.15789880937E+02 -0.34154749998E+02  0.37656151721E+02  0.51100000000E-03 0.  1.
         12    1    3    3    0    0 -0.38496229838E+01 -0.23436002600E+02  0.36172060400E+02  0.43272205496E+02  0.00000000000E+00 0. -1.
</event>
<event>
 7    1  0.2641103E-015  0.9000775E+02  0.7816164E-02  0.1186339E+00
        -11   -1    0    0    0    0  0.00000000000E+00  0.00000000000E+00  0.45593999997E+02  0.45594000000E+02  0.51100000000E-03 0.  1.
         11   -1    0    0    0    0 -0.00000000000E+00 -0.00000000000E+00 -0.45593999997E+02  0.45594000000E+02  0.51100000000E-03 0. -1.
    9900012    2    1    2    0    0  0.75643015511E+00 -0.71207197482E+00 -0.56012999460E+00  0.90007754819E+02  0.90000016382E+02 0.  0.
        -12    1    1    2    0    0 -0.75643015511E+00  0.71207197482E+00  0.56012999460E+00  0.11802451812E+01  0.00000000000E+00 0.  1.
         11    1    3    3    0    0  0.14179804604E+02  0.69443565526E+01 -0.40833633215E+01  0.16308427355E+02  0.51100000000E-03 0. -1.
        -11    1    3    3    0    0 -0.10228470874E+02  0.31102931196E+02  0.10083316429E+02  0.34259118726E+02  0.51100000000E-03 0.  1.
         12    1    3    3    0    0 -0.31949035744E+01 -0.38759359723E+02 -0.65600831021E+01  0.39440208738E+02  0.00000000000E+00 0. -1.
</event>
<event>
 7    1  0.2641103E-015  0.9000774E+02  0.7816164E-02  0.1186339E+00
        -11   -1    0    0    0    0  0.00000000000E+00  0.00000000000E+00  0.45593999997E+02  0.45594000000E+02  0.51100000000E-03 0.  1.
         11   -1    0    0    0    0 -0.00000000000E+00 -0.00000000000E+00 -0.45593999997E+02  0.45594000000E+02  0.51100000000E-03 0. -1.
    9900012    2    1    2    0    0 -0.29738184370E+00  0.11170799530E+01 -0.23815882540E+00  0.90007735958E+02  0.89999997273E+02 0.  0.
        -12    1    1    2    0    0  0.29738184370E+00 -0.11170799530E+01  0.23815882540E+00  0.11802640419E+01  0.00000000000E+00 0.  1.
         11    1    3    3    0    0 -0.34142447697E+02  0.74036501614E+01 -0.19956584778E+01  0.34992905330E+02  0.51100000000E-03 0. -1.
        -11    1    3    3    0    0 -0.90268189055E+01  0.52249837564E+01  0.20190636709E+01  0.10623583820E+02  0.51100000000E-03 0.  1.
        -12    1    3    3    0    0  0.42871884759E+02 -0.11511553965E+02 -0.26156401857E+00  0.44391246808E+02  0.00000000000E+00 0.  1.
</event>
<event>
 7    1  0.2641103E-015  0.9000787E+02  0.7816164E-02  0.1186339E+00
        -11   -1    0    0    0    0  0.00000000000E+00  0.00000000000E+00  0.45593999997E+02  0.45594000000E+02  0.51100000000E-03 0.  1.
         11   -1    0    0    0    0 -0.00000000000E+00 -0.00000000000E+00 -0.45593999997E+02  0.45594000000E+02  0.51100000000E-03 0. -1.
    9900012    2    1    2    0    0  0.25596825526E+00  0.34889924631E+00 -0.10979295224E+01  0.90007873029E+02  0.90000136153E+02 0.  0.
        -12    1    1    2    0    0 -0.25596825526E+00 -0.34889924631E+00  0.10979295224E+01  0.11801269711E+01  0.00000000000E+00 0.  1.
         11    1    3    3    0    0  0.14953829510E+02 -0.47750370924E+01 -0.27083260344E+02  0.31303689677E+02  0.51100000000E-03 0. -1.
        -11    1    3    3    0    0  0.72931533938E+01 -0.50807721822E+01 -0.11209612108E+02  0.14305933603E+02  0.51100000000E-03 0.  1.
        -12    1    3    3    0    0 -0.21991014649E+02  0.10204708521E+02  0.37194942929E+02  0.44398249749E+02  0.00000000000E+00 0.  1.
</event>
<event>
 7    1  0.2641103E-015  0.9000777E+02  0.7816164E-02  0.1186339E+00
        -11   -1    0    0    0    0  0.00000000000E+00  0.00000000000E+00  0.45593999997E+02  0.45594000000E+02  0.51100000000E-03 0.  1.
         11   -1    0    0    0    0 -0.00000000000E+00 -0.00000000000E+00 -0.45593999997E+02  0.45594000000E+02  0.51100000000E-03 0. -1.
    9900012    2    1    2    0    0 -0.33942041990E+00  0.39651579147E-01 -0.11296730445E+01  0.90007771354E+02  0.90000033136E+02 0.  0.
        -12    1    1    2    0    0  0.33942041990E+00 -0.39651579147E-01  0.11296730445E+01  0.11802286459E+01  0.00000000000E+00 0.  1.
         11    1    3    3    0    0  0.23695399857E+02  0.29784963476E+01  0.58475529937E+01  0.24587340059E+02  0.51100000000E-03 0. -1.
        -11    1    3    3    0    0  0.14362324855E+02  0.15333784310E+02  0.42607295739E+01  0.21437237072E+02  0.51100000000E-03 0.  1.
        -12    1    3    3    0    0 -0.38397145132E+02 -0.18272629079E+02 -0.11237955612E+02  0.43983194223E+02  0.00000000000E+00 0.  1.
</event>
<event>
 7    1  0.2641103E-015  0.9000772E+02  0.7816164E-02  0.1186339E+00
        -11   -1    0    0    0    0  0.00000000000E+00  0.00000000000E+00  0.45593999997E+02  0.45594000000E+02  0.51100000000E-03 0.  1.
         11   -1    0    0    0    0 -0.00000000000E+00 -0.00000000000E+00 -0.45593999997E+02  0.45594000000E+02  0.51100000000E-03 0. -1.
    9900012    2    1    2    0    0  0.84190558139E+00 -0.12824495838E+00 -0.81719076658E+00  0.90007723538E+02  0.89999984689E+02 0.  0.
        -12    1    1    2    0    0 -0.84190558139E+00  0.12824495838E+00  0.81719076658E+00  0.11802764618E+01  0.00000000000E+00 0.  1.
         11    1    3    3    0    0  0.80899155552E+01  0.10823591245E+01 -0.23705626089E+01  0.84992824584E+01  0.51100000000E-03 0. -1.
        -11    1    3    3    0    0  0.33227623261E+02  0.15051923972E+02  0.81900023979E+01  0.37385980024E+02  0.51100000000E-03 0.  1.
         12    1    3    3    0    0 -0.40475633235E+02 -0.16262528055E+02 -0.66366305556E+01  0.44122461056E+02  0.00000000000E+00 0. -1.
</event>
<event>
 7    1  0.2641103E-015  0.9000734E+02  0.7816164E-02  0.1186340E+00
        -11   -1    0    0    0    0  0.00000000000E+00  0.00000000000E+00  0.45593999997E+02  0.45594000000E+02  0.51100000000E-03 0.  1.
         11   -1    0    0    0    0 -0.00000000000E+00 -0.00000000000E+00 -0.45593999997E+02  0.45594000000E+02  0.51100000000E-03 0. -1.
    9900012    2    1    2    0    0 -0.94593773313E+00 -0.21872744216E+00 -0.67180242909E+00  0.90007339849E+02  0.89999595934E+02 0.  0.
        -12    1    1    2    0    0  0.94593773313E+00  0.21872744216E+00  0.67180242909E+00  0.11806601512E+01  0.00000000000E+00 0.  1.
         11    1    3    3    0    0 -0.29727439437E+01 -0.19428137235E+01 -0.37051789199E+02  0.37221590707E+02  0.51100000000E-03 0. -1.
        -11    1    3    3    0    0  0.38575467961E+01 -0.21156543027E+01 -0.75026080814E+01  0.86974587494E+01  0.51100000000E-03 0.  1.
        -12    1    3    3    0    0 -0.18307405855E+01  0.38397405840E+01  0.43882594851E+02  0.44088290392E+02  0.00000000000E+00 0.  1.
</event>
<event>
 7    1  0.2641103E-015  0.9000783E+02  0.7816164E-02  0.1186339E+00
        -11   -1    0    0    0    0  0.00000000000E+00  0.00000000000E+00  0.45593999997E+02  0.45594000000E+02  0.51100000000E-03 0. -1.
         11   -1    0    0    0    0 -0.00000000000E+00 -0.00000000000E+00 -0.45593999997E+02  0.45594000000E+02  0.51100000000E-03 0.  1.
    9900012    2    1    2    0    0 -0.14186443491E+00 -0.33972624353E+00  0.11212741392E+01  0.90007832582E+02  0.90000095172E+02 0.  0.
        -12    1    1    2    0    0  0.14186443491E+00  0.33972624353E+00 -0.11212741392E+01  0.11801674176E+01  0.00000000000E+00 0.  1.
         11    1    3    3    0    0  0.13468442446E+02 -0.26335482342E+02  0.10093724321E+02  0.31254437174E+02  0.51100000000E-03 0. -1.
        -11    1    3    3    0    0  0.53837768532E+01 -0.10646029917E+02  0.77455186940E+01  0.14223785231E+02  0.51100000000E-03 0.  1.
        -12    1    3    3    0    0 -0.18994083734E+02  0.36641786015E+02 -0.16717968876E+02  0.44529610178E+02  0.00000000000E+00 0.  1.
</event>
<event>
 7    1  0.2641103E-015  0.9000763E+02  0.7816164E-02  0.1186339E+00
        -11   -1    0    0    0    0  0.00000000000E+00  0.00000000000E+00  0.45593999997E+02  0.45594000000E+02  0.51100000000E-03 0. -1.
         11   -1    0    0    0    0 -0.00000000000E+00 -0.00000000000E+00 -0.45593999997E+02  0.45594000000E+02  0.51100000000E-03 0.  1.
    9900012    2    1    2    0    0 -0.75068078158E+00  0.24170116306E+00  0.87826097369E+00  0.90007625726E+02  0.89999885586E+02 0.  0.
        -12    1    1    2    0    0  0.75068078158E+00 -0.24170116306E+00 -0.87826097369E+00  0.11803742737E+01  0.00000000000E+00 0.  1.
         11    1    3    3    0    0 -0.45271622982E+01 -0.40828396759E+01 -0.43151000169E+01  0.74689267442E+01  0.51100000000E-03 0. -1.
        -11    1    3    3    0    0  0.26946265421E+02  0.98256277289E+01 -0.29053604990E+02  0.40825924895E+02  0.51100000000E-03 0.  1.
         12    1    3    3    0    0 -0.23169783904E+02 -0.55010868899E+01  0.34246965980E+02  0.41712774087E+02  0.00000000000E+00 0. -1.
</event>
<event>
 7    1  0.2641103E-015  0.9000769E+02  0.7816164E-02  0.1186339E+00
        -11   -1    0    0    0    0  0.00000000000E+00  0.00000000000E+00  0.45593999997E+02  0.45594000000E+02  0.51100000000E-03 0.  1.
         11   -1    0    0    0    0 -0.00000000000E+00 -0.00000000000E+00 -0.45593999997E+02  0.45594000000E+02  0.51100000000E-03 0. -1.
    9900012    2    1    2    0    0 -0.41471323094E+00  0.69345064285E+00 -0.86038672493E+00  0.90007692339E+02  0.89999953078E+02 0.  0.
        -12    1    1    2    0    0  0.41471323094E+00 -0.69345064285E+00  0.86038672493E+00  0.11803076609E+01  0.00000000000E+00 0.  1.
         11    1    3    3    0    0  0.14761600415E+02 -0.36163507753E+02 -0.20109771157E+02  0.43932983464E+02  0.51100000000E-03 0. -1.
        -11    1    3    3    0    0  0.10254931516E+01  0.10600335650E+02  0.23857447939E+01  0.10913777099E+02  0.51100000000E-03 0.  1.
        -12    1    3    3    0    0 -0.16201806798E+02  0.26256622746E+02  0.16863639638E+02  0.35160931776E+02  0.00000000000E+00 0.  1.
</event>
<event>
 7    1  0.2641103E-015  0.9000772E+02  0.7816164E-02  0.1186339E+00
        -11   -1    0    0    0    0  0.00000000000E+00  0.00000000000E+00  0.45593999997E+02  0.45594000000E+02  0.51100000000E-03 0. -1.
         11   -1    0    0    0    0 -0.00000000000E+00 -0.00000000000E+00 -0.45593999997E+02  0.45594000000E+02  0.51100000000E-03 0.  1.
    9900012    2    1    2    0    0 -0.45811835613E+00  0.95894460046E+00  0.51342201498E+00  0.90007724888E+02  0.89999986056E+02 0.  0.
        -12    1    1    2    0    0  0.45811835613E+00 -0.95894460046E+00 -0.51342201498E+00  0.11802751122E+01  0.00000000000E+00 0.  1.
         11    1    3    3    0    0  0.28290927526E+02 -0.25285310046E+02  0.17656174671E+02  0.41850495680E+02  0.51100000000E-03 0. -1.
        -11    1    3    3    0    0  0.48015560994E+00  0.28266284751E+01  0.41731492546E+01  0.50631564175E+01  0.51100000000E-03 0.  1.
        -12    1    3    3    0    0 -0.29229201492E+02  0.23417626172E+02 -0.21315901910E+02  0.43094072790E+02  0.00000000000E+00 0.  1.
</event>
<event>
 7    1  0.2641103E-015  0.9000773E+02  0.7816164E-02  0.1186339E+00
        -11   -1    0    0    0    0  0.00000000000E+00  0.00000000000E+00  0.45593999997E+02  0.45594000000E+02  0.51100000000E-03 0.  1.
         11   -1    0    0    0    0 -0.00000000000E+00 -0.00000000000E+00 -0.45593999997E+02  0.45594000000E+02  0.51100000000E-03 0. -1.
    9900012    2    1    2    0    0  0.12308506559E+00 -0.30914317431E+00 -0.11323962354E+01  0.90007728561E+02  0.89999989778E+02 0.  0.
        -12    1    1    2    0    0 -0.12308506559E+00  0.30914317431E+00  0.11323962354E+01  0.11802714389E+01  0.00000000000E+00 0.  1.
         11    1    3    3    0    0  0.26605601041E+00 -0.10478577249E+02  0.10061310958E+02  0.14529327081E+02  0.51100000000E-03 0. -1.
        -11    1    3    3    0    0 -0.30222298981E+02  0.19337360274E+02  0.10372066222E+02  0.37348368319E+02  0.51100000000E-03 0.  1.
         12    1    3    3    0    0  0.30079328037E+02 -0.91679261993E+01 -0.21565773415E+02  0.38130033162E+02  0.00000000000E+00 0. -1.
</event>
<event>
 7    1  0.2641103E-015  0.9000777E+02  0.7816164E-02  0.1186339E+00
        -11   -1    0    0    0    0  0.00000000000E+00  0.00000000000E+00  0.45593999997E+02  0.45594000000E+02  0.51100000000E-03 0.  1.
         11   -1    0    0    0    0 -0.00000000000E+00 -0.00000000000E+00 -0.45593999997E+02  0.45594000000E+02  0.51100000000E-03 0. -1.
    9900012    2    1    2    0    0  0.10691178813E+01 -0.24628107619E+00 -0.43505782070E+00  0.90007770056E+02  0.90000031821E+02 0.  0.
        -12    1    1    2    0    0 -0.10691178813E+01  0.24628107619E+00  0.43505782070E+00  0.11802299437E+01  0.00000000000E+00 0.  1.
         11    1    3    3    0    0 -0.26286582476E+01 -0.12335731546E+02 -0.22042284214E+01  0.12803856456E+02  0.51100000000E-03 0. -1.
        -11    1    3    3    0    0  0.16983087878E+02 -0.13618057629E+02  0.29807986240E+02  0.36910605677E+02  0.51100000000E-03 0.  1.
         12    1    3    3    0    0 -0.13285311749E+02  0.25707508099E+02 -0.28038815639E+02  0.40293307923E+02  0.00000000000E+00 0. -1.
</event>
<event>
 7    1  0.2641103E-015  0.9000768E+02  0.7816164E-02  0.1186339E+00
        -11   -1    0    0    0    0  0.00000000000E+00  0.00000000000E+00  0.45593999997E+02  0.45594000000E+02  0.51100000000E-03 0. -1.
         11   -1    0    0    0    0 -0.00000000000E+00 -0.00000000000E+00 -0.45593999997E+02  0.45594000000E+02  0.51100000000E-03 0.  1.
    9900012    2    1    2    0    0 -0.61322031160E-01 -0.11615461076E+01  0.20051098260E+00  0.90007680380E+02  0.89999940961E+02 0.  0.
        -12    1    1    2    0    0  0.61322031160E-01  0.11615461076E+01 -0.20051098260E+00  0.11803196201E+01  0.00000000000E+00 0.  1.
         11    1    3    3    0    0  0.27611498273E+02 -0.19154362718E+02  0.11511833120E+02  0.35521919290E+02  0.51100000000E-03 0. -1.
        -11    1    3    3    0    0  0.47781793510E+01 -0.61524472040E+01  0.66372242960E+01  0.10234077932E+02  0.51100000000E-03 0.  1.
        -12    1    3    3    0    0 -0.32450999655E+02  0.24145263814E+02 -0.17948546433E+02  0.44251683158E+02  0.00000000000E+00 0.  1.
</event>
<event>
 7    1  0.2641103E-015  0.9000774E+02  0.7816164E-02  0.1186339E+00
        -11   -1    0    0    0    0  0.00000000000E+00  0.00000000000E+00  0.45593999997E+02  0.45594000000E+02  0.51100000000E-03 0.  1.
         11   -1    0    0    0    0 -0.00000000000E+00 -0.00000000000E+00 -0.45593999997E+02  0.45594000000E+02  0.51100000000E-03 0. -1.
    9900012    2    1    2    0    0 -0.11382268577E-01 -0.25738124942E+00 -0.11517999816E+01  0.90007738223E+02  0.89999999568E+02 0.  0.
        -12    1    1    2    0    0  0.11382268577E-01  0.25738124942E+00  0.11517999816E+01  0.11802617765E+01  0.00000000000E+00 0.  1.
         11    1    3    3    0    0  0.73038184236E+01 -0.22263481178E+01 -0.16954071193E+02  0.18594163595E+02  0.51100000000E-03 0. -1.
        -11    1    3    3    0    0 -0.37138028609E+02 -0.77575505264E+01  0.51615195426E+01  0.38289085173E+02  0.51100000000E-03 0.  1.
         12    1    3    3    0    0  0.29822827917E+02  0.97265173948E+01  0.10640751669E+02  0.33124489455E+02  0.00000000000E+00 0. -1.
</event>
<event>
 7    1  0.2641103E-015  0.9000776E+02  0.7816164E-02  0.1186339E+00
        -11   -1    0    0    0    0  0.00000000000E+00  0.00000000000E+00  0.45593999997E+02  0.45594000000E+02  0.51100000000E-03 0. -1.
         11   -1    0    0    0    0 -0.00000000000E+00 -0.00000000000E+00 -0.45593999997E+02  0.45594000000E+02  0.51100000000E-03 0.  1.
    9900012    2    1    2    0    0 -0.74068607158E+00  0.38226526414E+00 -0.83560321982E+00  0.90007756241E+02  0.90000017824E+02 0.  0.
        -12    1    1    2    0    0  0.74068607158E+00 -0.38226526414E+00  0.83560321982E+00  0.11802437586E+01  0.00000000000E+00 0.  1.
         11    1    3    3    0    0  0.72098325230E+00  0.10443616523E+02 -0.15324954987E+01  0.10580051306E+02  0.51100000000E-03 0. -1.
        -11    1    3    3    0    0 -0.10587572788E+02  0.24152445145E+02 -0.24478020524E+02  0.35980700286E+02  0.51100000000E-03 0.  1.
         12    1    3    3    0    0  0.91259034636E+01 -0.34213796404E+02  0.25174912803E+02  0.43447004650E+02  0.00000000000E+00 0. -1.
</event>
<event>
 7    1  0.2641103E-015  0.9000774E+02  0.7816164E-02  0.1186339E+00
        -11   -1    0    0    0    0  0.00000000000E+00  0.00000000000E+00  0.45593999997E+02  0.45594000000E+02  0.51100000000E-03 0. -1.
         11   -1    0    0    0    0 -0.00000000000E+00 -0.00000000000E+00 -0.45593999997E+02  0.45594000000E+02  0.51100000000E-03 0.  1.
    9900012    2    1    2    0    0 -0.10024471268E+01  0.35989110156E+00 -0.50852084657E+00  0.90007739309E+02  0.90000000668E+02 0.  0.
        -12    1    1    2    0    0  0.10024471268E+01 -0.35989110156E+00  0.50852084657E+00  0.11802606909E+01  0.00000000000E+00 0.  1.
         11    1    3    3    0    0 -0.19370649280E+02  0.20557913370E+02  0.87887741558E+01  0.29581960839E+02  0.51100000000E-03 0.  1.
        -11    1    3    3    0    0  0.12630034344E+02  0.14362610712E+02 -0.15782333248E+02  0.24796862644E+02  0.51100000000E-03 0. -1.
         12    1    3    3    0    0  0.57381678089E+01 -0.34560632981E+02  0.64850382453E+01  0.35628915826E+02  0.00000000000E+00 0. -1.
</event>
<event>
 7    1  0.2641103E-015  0.9000776E+02  0.7816164E-02  0.1186339E+00
        -11   -1    0    0    0    0  0.00000000000E+00  0.00000000000E+00  0.45593999997E+02  0.45594000000E+02  0.51100000000E-03 0. -1.
         11   -1    0    0    0    0 -0.00000000000E+00 -0.00000000000E+00 -0.45593999997E+02  0.45594000000E+02  0.51100000000E-03 0.  1.
    9900012    2    1    2    0    0 -0.35700149737E-01  0.92745090334E+00 -0.72905607602E+00  0.90007761702E+02  0.90000023356E+02 0.  0.
        -12    1    1    2    0    0  0.35700149737E-01 -0.92745090334E+00  0.72905607602E+00  0.11802382983E+01  0.00000000000E+00 0.  1.
         11    1    3    3    0    0 -0.57238510009E+01 -0.11214743118E+01 -0.83374284402E+01  0.10175111212E+02  0.51100000000E-03 0. -1.
        -11    1    3    3    0    0 -0.27359411959E+02 -0.10519173517E+02 -0.19563645726E+02  0.35240979961E+02  0.51100000000E-03 0.  1.
         12    1    3    3    0    0  0.33047562810E+02  0.12568098732E+02  0.27172018091E+02  0.44591670529E+02  0.00000000000E+00 0. -1.
</event>
<event>
 7    1  0.2641103E-015  0.9000769E+02  0.7816164E-02  0.1186339E+00
        -11   -1    0    0    0    0  0.00000000000E+00  0.00000000000E+00  0.45593999997E+02  0.45594000000E+02  0.51100000000E-03 0. -1.
         11   -1    0    0    0    0 -0.00000000000E+00 -0.00000000000E+00 -0.45593999997E+02  0.45594000000E+02  0.51100000000E-03 0.  1.
    9900012    2    1    2    0    0 -0.88101794638E+00 -0.18763636091E+00  0.76271350628E+00  0.90007689906E+02  0.89999950613E+02 0.  0.
        -12    1    1    2    0    0  0.88101794638E+00  0.18763636091E+00 -0.76271350628E+00  0.11803100942E+01  0.00000000000E+00 0.  1.
         11    1    3    3    0    0 -0.34733621382E+02  0.18096394785E+02  0.63377786982E+01  0.39674568650E+02  0.51100000000E-03 0. -1.
        -11    1    3    3    0    0  0.20706044694E+01  0.43005209029E+01  0.77737325945E+01  0.91221051088E+01  0.51100000000E-03 0.  1.
        -12    1    3    3    0    0  0.31781998966E+02 -0.22584552049E+02 -0.13348797786E+02  0.41211016147E+02  0.00000000000E+00 0.  1.
</event>
<event>
 7    1  0.2641103E-015  0.9000770E+02  0.7816164E-02  0.1186339E+00
        -11   -1    0    0    0    0  0.00000000000E+00  0.00000000000E+00  0.45593999997E+02  0.45594000000E+02  0.51100000000E-03 0.  1.
         11   -1    0    0    0    0 -0.00000000000E+00 -0.00000000000E+00 -0.45593999997E+02  0.45594000000E+02  0.51100000000E-03 0. -1.
    9900012    2    1    2    0    0  0.10288119041E+01  0.29734057317E+00 -0.49623220678E+00  0.90007698448E+02  0.89999959268E+02 0.  0.
        -12    1    1    2    0    0 -0.10288119041E+01 -0.29734057317E+00  0.49623220678E+00  0.11803015519E+01  0.00000000000E+00 0.  1.
         11    1    3    3    0    0 -0.58471490674E+01  0.16573017092E+01 -0.74818561608E+01  0.96391894391E+01  0.51100000000E-03 0. -1.
        -11    1    3    3    0    0 -0.35301909307E+02  0.15940240148E+01 -0.66190904979E+01  0.35952441817E+02  0.51100000000E-03 0.  1.
         12    1    3    3    0    0  0.42177870279E+02 -0.29539851508E+01  0.13604714452E+02  0.44416067192E+02  0.00000000000E+00 0. -1.
</event>
<event>
 7    1  0.2641103E-015  0.9000809E+02  0.7816164E-02  0.1186338E+00
        -11   -1    0    0    0    0  0.00000000000E+00  0.00000000000E+00  0.45593999997E+02  0.45594000000E+02  0.51100000000E-03 0.  1.
         11   -1    0    0    0    0 -0.00000000000E+00 -0.00000000000E+00 -0.45593999997E+02  0.45594000000E+02  0.51100000000E-03 0. -1.
    9900012    2    1    2    0    0 -0.93238852262E+00 -0.72295373665E+00  0.12863607958E-01  0.90008094947E+02  0.90000360999E+02 0.  0.
        -12    1    1    2    0    0  0.93238852262E+00  0.72295373665E+00 -0.12863607958E-01  0.11799050533E+01  0.00000000000E+00 0.  1.
         11    1    3    3    0    0  0.25169105033E+02  0.27968746591E+02 -0.72233504182E+01  0.38313332217E+02  0.51100000000E-03 0. -1.
        -11    1    3    3    0    0  0.76250174760E+01 -0.24847616874E+01 -0.13394566592E+01  0.81307488312E+01  0.51100000000E-03 0.  1.
        -12    1    3    3    0    0 -0.33726511031E+02 -0.26206938640E+02  0.85756706854E+01  0.43564013899E+02  0.00000000000E+00 0.  1.
</event>
<event>
 7    1  0.2641103E-015  0.9000741E+02  0.7816164E-02  0.1186340E+00
        -11   -1    0    0    0    0  0.00000000000E+00  0.00000000000E+00  0.45593999997E+02  0.45594000000E+02  0.51100000000E-03 0.  1.
         11   -1    0    0    0    0 -0.00000000000E+00 -0.00000000000E+00 -0.45593999997E+02  0.45594000000E+02  0.51100000000E-03 0. -1.
    9900012    2    1    2    0    0 -0.34895474637E+00 -0.10761772963E+01 -0.33743363777E+00  0.90007411821E+02  0.89999668857E+02 0.  0.
        -12    1    1    2    0    0  0.34895474637E+00  0.10761772963E+01  0.33743363777E+00  0.11805881788E+01  0.00000000000E+00 0.  1.
         11    1    3    3    0    0 -0.22472498837E+02  0.21419261664E+02 -0.16340039494E+02  0.35082686116E+02  0.51100000000E-03 0. -1.
        -11    1    3    3    0    0 -0.12114241526E+02 -0.91917109177E+01  0.97493804523E+00  0.15237877208E+02  0.51100000000E-03 0.  1.
        -12    1    3    3    0    0  0.34237785617E+02 -0.13303728043E+02  0.15027667811E+02  0.39686848497E+02  0.00000000000E+00 0.  1.
</event>
<event>
 7    1  0.2641103E-015  0.9000761E+02  0.7816164E-02  0.1186339E+00
        -11   -1    0    0    0    0  0.00000000000E+00  0.00000000000E+00  0.45593999997E+02  0.45594000000E+02  0.51100000000E-03 0.  1.
         11   -1    0    0    0    0 -0.00000000000E+00 -0.00000000000E+00 -0.45593999997E+02  0.45594000000E+02  0.51100000000E-03 0. -1.
    9900012    2    1    2    0    0 -0.10008009992E+01  0.61655223974E+00 -0.10757654887E+00  0.90007613615E+02  0.89999873314E+02 0.  0.
        -12    1    1    2    0    0  0.10008009992E+01 -0.61655223974E+00  0.10757654887E+00  0.11803863852E+01  0.00000000000E+00 0.  1.
         11    1    3    3    0    0  0.51089619169E+01 -0.66714283268E+01  0.98214846098E+00  0.84601456044E+01  0.51100000000E-03 0. -1.
        -11    1    3    3    0    0  0.95566319029E+01 -0.23432289580E+02 -0.28047545553E+02  0.37776530016E+02  0.51100000000E-03 0.  1.
         12    1    3    3    0    0 -0.15666394819E+02  0.30720270146E+02  0.26957820543E+02  0.43770937994E+02  0.00000000000E+00 0. -1.
</event>
<event>
 7    1  0.2641103E-015  0.9000772E+02  0.7816164E-02  0.1186339E+00
        -11   -1    0    0    0    0  0.00000000000E+00  0.00000000000E+00  0.45593999997E+02  0.45594000000E+02  0.51100000000E-03 0.  1.
         11   -1    0    0    0    0 -0.00000000000E+00 -0.00000000000E+00 -0.45593999997E+02  0.45594000000E+02  0.51100000000E-03 0. -1.
    9900012    2    1    2    0    0  0.41374258578E+00 -0.10026407054E+01  0.46539955318E+00  0.90007716960E+02  0.89999978023E+02 0.  0.
        -12    1    1    2    0    0 -0.41374258578E+00  0.10026407054E+01 -0.46539955318E+00  0.11802830404E+01  0.00000000000E+00 0.  1.
         11    1    3    3    0    0  0.98658544329E+01  0.35953332092E+01  0.61708918666E+01  0.12179548894E+02  0.51100000000E-03 0. -1.
        -11    1    3    3    0    0  0.76506840708E+01  0.34291064783E+02 -0.23957252202E+01  0.35215757699E+02  0.51100000000E-03 0.  1.
         12    1    3    3    0    0 -0.17102795918E+02 -0.38889038698E+02 -0.33097670932E+01  0.42612410367E+02  0.00000000000E+00 0. -1.
</event>
<event>
 7    1  0.2641103E-015  0.9000713E+02  0.7816164E-02  0.1186340E+00
        -11   -1    0    0    0    0  0.00000000000E+00  0.00000000000E+00  0.45593999997E+02  0.45594000000E+02  0.51100000000E-03 0.  1.
         11   -1    0    0    0    0 -0.00000000000E+00 -0.00000000000E+00 -0.45593999997E+02  0.45594000000E+02  0.51100000000E-03 0. -1.
    9900012    2    1    2    0    0  0.73034767861E+00  0.68741735945E+00 -0.62330047042E+00  0.90007130052E+02  0.89999383367E+02 0.  0.
        -12    1    1    2    0    0 -0.73034767861E+00 -0.68741735945E+00  0.62330047042E+00  0.11808699480E+01  0.00000000000E+00 0.  1.
         11    1    3    3    0    0 -0.11600203132E+02  0.56909907283E+01 -0.94872291442E+00  0.12955777229E+02  0.51100000000E-03 0. -1.
        -11    1    3    3    0    0 -0.28984481618E+02 -0.17528619199E+02  0.62902780274E+00  0.33878434762E+02  0.51100000000E-03 0.  1.
         12    1    3    3    0    0  0.41315032429E+02  0.12525045830E+02 -0.30360535873E+00  0.43172918061E+02  0.00000000000E+00 0. -1.
</event>
<event>
 7    1  0.2641103E-015  0.9000777E+02  0.7816164E-02  0.1186339E+00
        -11   -1    0    0    0    0  0.00000000000E+00  0.00000000000E+00  0.45593999997E+02  0.45594000000E+02  0.51100000000E-03 0.  1.
         11   -1    0    0    0    0 -0.00000000000E+00 -0.00000000000E+00 -0.45593999997E+02  0.45594000000E+02  0.51100000000E-03 0. -1.
    9900012    2    1    2    0    0 -0.83873416364E+00  0.59938945232E+00  0.57463615034E+00  0.90007767219E+02  0.90000028946E+02 0.  0.
        -12    1    1    2    0    0  0.83873416364E+00 -0.59938945232E+00 -0.57463615034E+00  0.11802327813E+01  0.00000000000E+00 0.  1.
         11    1    3    3    0    0  0.38709015179E+02 -0.47645624917E+01  0.52709309534E+01  0.39355706387E+02  0.51100000000E-03 0. -1.
        -11    1    3    3    0    0 -0.45777563052E+00 -0.69694219243E+01  0.49278565527E+01  0.85478752303E+01  0.51100000000E-03 0.  1.
        -12    1    3    3    0    0 -0.39089973712E+02  0.12333373868E+02 -0.96241513558E+01  0.42104185601E+02  0.00000000000E+00 0.  1.
</event>
<event>
 7    1  0.2641103E-015  0.9000783E+02  0.7816164E-02  0.1186339E+00
        -11   -1    0    0    0    0  0.00000000000E+00  0.00000000000E+00  0.45593999997E+02  0.45594000000E+02  0.51100000000E-03 0. -1.
         11   -1    0    0    0    0 -0.00000000000E+00 -0.00000000000E+00 -0.45593999997E+02  0.45594000000E+02  0.51100000000E-03 0.  1.
    9900012    2    1    2    0    0 -0.74194428499E+00 -0.70383786638E+00  0.58901626197E+00  0.90007826614E+02  0.90000089125E+02 0.  0.
        -12    1    1    2    0    0  0.74194428499E+00  0.70383786638E+00 -0.58901626197E+00  0.11801733860E+01  0.00000000000E+00 0.  1.
         11    1    3    3    0    0 -0.27522951852E+02  0.10768728725E+02  0.30427228002E+02  0.42418092851E+02  0.51100000000E-03 0. -1.
        -11    1    3    3    0    0 -0.29170152552E+01  0.53636291940E+00 -0.87460274158E+01  0.92352400618E+01  0.51100000000E-03 0.  1.
        -12    1    3    3    0    0  0.29698022822E+02 -0.12008929510E+02 -0.21092184324E+02  0.38354493701E+02  0.00000000000E+00 0.  1.
</event>
<event>
 7    1  0.2641103E-015  0.9000772E+02  0.7816164E-02  0.1186339E+00
        -11   -1    0    0    0    0  0.00000000000E+00  0.00000000000E+00  0.45593999997E+02  0.45594000000E+02  0.51100000000E-03 0.  1.
         11   -1    0    0    0    0 -0.00000000000E+00 -0.00000000000E+00 -0.45593999997E+02  0.45594000000E+02  0.51100000000E-03 0. -1.
    9900012    2    1    2    0    0  0.28786415745E+00 -0.91245437416E+00  0.69110046792E+00  0.90007720959E+02  0.89999982076E+02 0.  0.
        -12    1    1    2    0    0 -0.28786415745E+00  0.91245437416E+00 -0.69110046792E+00  0.11802790411E+01  0.00000000000E+00 0.  1.
         11    1    3    3    0    0  0.65167527568E+01  0.51414401504E+01 -0.22360779629E+01  0.85966573870E+01  0.51100000000E-03 0. -1.
        -11    1    3    3    0    0  0.89783401250E+01  0.35218264171E+02  0.77530957484E+01  0.37162443630E+02  0.51100000000E-03 0.  1.
         12    1    3    3    0    0 -0.15207228724E+02 -0.41272158695E+02 -0.48259173176E+01  0.44248619942E+02  0.00000000000E+00 0. -1.
</event>
<event>
 7    1  0.2641103E-015  0.9000785E+02  0.7816164E-02  0.1186339E+00
        -11   -1    0    0    0    0  0.00000000000E+00  0.00000000000E+00  0.45593999997E+02  0.45594000000E+02  0.51100000000E-03 0. -1.
         11   -1    0    0    0    0 -0.00000000000E+00 -0.00000000000E+00 -0.45593999997E+02  0.45594000000E+02  0.51100000000E-03 0.  1.
    9900012    2    1    2    0    0 -0.82186939930E-02  0.81304603971E+00  0.85535911287E+00  0.90007851441E+02  0.90000114280E+02 0.  0.
        -12    1    1    2    0    0  0.82186939930E-02 -0.81304603971E+00 -0.85535911287E+00  0.11801485591E+01  0.00000000000E+00 0.  1.
         11    1    3    3    0    0  0.10938792264E+02 -0.23454902511E+01  0.94527086847E+01  0.14646235095E+02  0.51100000000E-03 0. -1.
        -11    1    3    3    0    0 -0.49137188448E+01  0.37752801994E+02 -0.12400434367E+02  0.40039848451E+02  0.51100000000E-03 0.  1.
         12    1    3    3    0    0 -0.60332921131E+01 -0.34594265703E+02  0.38030847952E+01  0.35321767895E+02  0.00000000000E+00 0. -1.
</event>
<event>
 7    1  0.2641103E-015  0.9000781E+02  0.7816164E-02  0.1186339E+00
        -11   -1    0    0    0    0  0.00000000000E+00  0.00000000000E+00  0.45593999997E+02  0.45594000000E+02  0.51100000000E-03 0.  1.
         11   -1    0    0    0    0 -0.00000000000E+00 -0.00000000000E+00 -0.45593999997E+02  0.45594000000E+02  0.51100000000E-03 0. -1.
    9900012    2    1    2    0    0 -0.22305945175E+00  0.10998279471E+01 -0.36532534555E+00  0.90007813726E+02  0.90000076068E+02 0.  0.
        -12    1    1    2    0    0  0.22305945175E+00 -0.10998279471E+01  0.36532534555E+00  0.11801862735E+01  0.00000000000E+00 0.  1.
         11    1    3    3    0    0  0.39898913988E+01  0.89168343082E+01  0.11155384149E+02  0.14828073484E+02  0.51100000000E-03 0. -1.
        -11    1    3    3    0    0  0.14331080720E+02 -0.33261572638E+02 -0.21540118809E+02  0.42138922715E+02  0.51100000000E-03 0.  1.
         12    1    3    3    0    0 -0.18544031571E+02  0.25444566277E+02  0.10019409314E+02  0.33040817528E+02  0.00000000000E+00 0. -1.
</event>
<event>
 7    1  0.2641103E-015  0.9000775E+02  0.7816164E-02  0.1186339E+00
        -11   -1    0    0    0    0  0.00000000000E+00  0.00000000000E+00  0.45593999997E+02  0.45594000000E+02  0.51100000000E-03 0.  1.
         11   -1    0    0    0    0 -0.00000000000E+00 -0.00000000000E+00 -0.45593999997E+02  0.45594000000E+02  0.51100000000E-03 0. -1.
    9900012    2    1    2    0    0  0.47525794261E+00 -0.78085584521E+00 -0.74658543104E+00  0.90007747583E+02  0.90000009051E+02 0.  0.
        -12    1    1    2    0    0 -0.47525794261E+00  0.78085584521E+00  0.74658543104E+00  0.11802524174E+01  0.00000000000E+00 0.  1.
         11    1    3    3    0    0 -0.47727675857E+01 -0.19313239816E+02 -0.33179676376E+02  0.38686838425E+02  0.51100000000E-03 0. -1.
        -11    1    3    3    0    0 -0.20777282630E+01 -0.64489016987E+01 -0.29524182578E+01  0.73906739669E+01  0.51100000000E-03 0.  1.
        -12    1    3    3    0    0  0.73257537913E+01  0.24981285670E+02  0.35385509203E+02  0.43930235191E+02  0.00000000000E+00 0.  1.
</event>
<event>
 7    1  0.2641103E-015  0.9000758E+02  0.7816164E-02  0.1186339E+00
        -11   -1    0    0    0    0  0.00000000000E+00  0.00000000000E+00  0.45593999997E+02  0.45594000000E+02  0.51100000000E-03 0. -1.
         11   -1    0    0    0    0 -0.00000000000E+00 -0.00000000000E+00 -0.45593999997E+02  0.45594000000E+02  0.51100000000E-03 0.  1.
    9900012    2    1    2    0    0 -0.11574541083E+01  0.22922466114E+00 -0.33913379980E-01  0.90007578857E+02  0.89999838098E+02 0.  0.
        -12    1    1    2    0    0  0.11574541083E+01 -0.22922466114E+00  0.33913379980E-01  0.11804211433E+01  0.00000000000E+00 0.  1.
         11    1    3    3    0    0 -0.17591252886E+02 -0.37334593908E+02 -0.42576424857E+01  0.41490379610E+02  0.51100000000E-03 0. -1.
        -11    1    3    3    0    0  0.31023774275E+01 -0.19079228358E+01 -0.46638851439E+01  0.59174944146E+01  0.51100000000E-03 0.  1.
        -12    1    3    3    0    0  0.13331421351E+02  0.39471741405E+02  0.88876142496E+01  0.42599704832E+02  0.00000000000E+00 0.  1.
</event>
<event>
 7    1  0.2641103E-015  0.9000773E+02  0.7816164E-02  0.1186339E+00
        -11   -1    0    0    0    0  0.00000000000E+00  0.00000000000E+00  0.45593999997E+02  0.45594000000E+02  0.51100000000E-03 0.  1.
         11   -1    0    0    0    0 -0.00000000000E+00 -0.00000000000E+00 -0.45593999997E+02  0.45594000000E+02  0.51100000000E-03 0. -1.
    9900012    2    1    2    0    0  0.10369304725E+01  0.48508143669E+00 -0.28725410051E+00  0.90007727267E+02  0.89999988467E+02 0.  0.
        -12    1    1    2    0    0 -0.10369304725E+01 -0.48508143669E+00  0.28725410051E+00  0.11802727326E+01  0.00000000000E+00 0.  1.
         11    1    3    3    0    0  0.21948198200E+02 -0.27815536789E+02  0.13404342275E+02  0.37882764989E+02  0.51100000000E-03 0. -1.
        -11    1    3    3    0    0 -0.10078316256E+02 -0.53869252398E+00  0.92688575815E+01  0.13703078826E+02  0.51100000000E-03 0.  1.
        -12    1    3    3    0    0 -0.10832951472E+02  0.28839310750E+02 -0.22960453957E+02  0.38421883453E+02  0.00000000000E+00 0.  1.
</event>
<event>
 7    1  0.2641103E-015  0.9000777E+02  0.7816164E-02  0.1186339E+00
        -11   -1    0    0    0    0  0.00000000000E+00  0.00000000000E+00  0.45593999997E+02  0.45594000000E+02  0.51100000000E-03 0. -1.
         11   -1    0    0    0    0 -0.00000000000E+00 -0.00000000000E+00 -0.45593999997E+02  0.45594000000E+02  0.51100000000E-03 0.  1.
    9900012    2    1    2    0    0 -0.51995661323E+00  0.10594730909E+01 -0.98823648916E-02  0.90007773000E+02  0.90000034804E+02 0.  0.
        -12    1    1    2    0    0  0.51995661323E+00 -0.10594730909E+01  0.98823648916E-02  0.11802269999E+01  0.00000000000E+00 0.  1.
         11    1    3    3    0    0  0.69874019113E+01  0.19047072819E+02  0.31538102117E+02  0.37500222051E+02  0.51100000000E-03 0. -1.
        -11    1    3    3    0    0  0.63621730892E+01  0.85537553673E+01 -0.28608956772E+01  0.11037603981E+02  0.51100000000E-03 0.  1.
        -12    1    3    3    0    0 -0.13869531614E+02 -0.26541355095E+02 -0.28687088805E+02  0.41469946969E+02  0.00000000000E+00 0.  1.
</event>
<event>
 7    1  0.2641103E-015  0.9000772E+02  0.7816164E-02  0.1186339E+00
        -11   -1    0    0    0    0  0.00000000000E+00  0.00000000000E+00  0.45593999997E+02  0.45594000000E+02  0.51100000000E-03 0. -1.
         11   -1    0    0    0    0 -0.00000000000E+00 -0.00000000000E+00 -0.45593999997E+02  0.45594000000E+02  0.51100000000E-03 0.  1.
    9900012    2    1    2    0    0  0.11397708219E+01  0.10220112740E-01  0.30639388864E+00  0.90007720714E+02  0.89999981828E+02 0.  0.
        -12    1    1    2    0    0 -0.11397708219E+01 -0.10220112740E-01 -0.30639388864E+00  0.11802792857E+01  0.00000000000E+00 0.  1.
         11    1    3    3    0    0 -0.14830402336E+02 -0.24257312938E+02  0.24024614907E+02  0.37222844949E+02  0.51100000000E-03 0. -1.
        -11    1    3    3    0    0 -0.53254286277E+01 -0.68715965204E+01 -0.83369519607E+01  0.12045073560E+02  0.51100000000E-03 0.  1.
        -12    1    3    3    0    0  0.21295601786E+02  0.31139129571E+02 -0.15381269058E+02  0.40739802205E+02  0.00000000000E+00 0.  1.
</event>
<event>
 7    1  0.2641103E-015  0.9000815E+02  0.7816164E-02  0.1186338E+00
        -11   -1    0    0    0    0  0.00000000000E+00  0.00000000000E+00  0.45593999997E+02  0.45594000000E+02  0.51100000000E-03 0. -1.
         11   -1    0    0    0    0 -0.00000000000E+00 -0.00000000000E+00 -0.45593999997E+02  0.45594000000E+02  0.51100000000E-03 0.  1.
    9900012    2    1    2    0    0  0.86786076277E+00  0.25945175952E+00  0.75600482977E+00  0.90008152204E+02  0.90000419012E+02 0.  0.
        -12    1    1    2    0    0 -0.86786076277E+00 -0.25945175952E+00 -0.75600482977E+00  0.11798477960E+01  0.00000000000E+00 0.  1.
         11    1    3    3    0    0 -0.46182373245E+01  0.33278885430E+02 -0.15834792673E+02  0.37142334212E+02  0.51100000000E-03 0. -1.
        -11    1    3    3    0    0  0.36095884220E+01  0.42873431786E+01  0.14394834395E+02  0.15447384815E+02  0.51100000000E-03 0.  1.
        -12    1    3    3    0    0  0.18765096653E+01 -0.37306776850E+02  0.21959631078E+01  0.37418433177E+02  0.00000000000E+00 0.  1.
</event>
<event>
 7    1  0.2641103E-015  0.9000772E+02  0.7816164E-02  0.1186339E+00
        -11   -1    0    0    0    0  0.00000000000E+00  0.00000000000E+00  0.45593999997E+02  0.45594000000E+02  0.51100000000E-03 0. -1.
         11   -1    0    0    0    0 -0.00000000000E+00 -0.00000000000E+00 -0.45593999997E+02  0.45594000000E+02  0.51100000000E-03 0.  1.
    9900012    2    1    2    0    0  0.42909029480E+00 -0.19341851089E+00  0.10823755462E+01  0.90007717820E+02  0.89999978895E+02 0.  0.
        -12    1    1    2    0    0 -0.42909029480E+00  0.19341851089E+00 -0.10823755462E+01  0.11802821800E+01  0.00000000000E+00 0.  1.
         11    1    3    3    0    0 -0.33621371947E+02 -0.24013679832E+02  0.31401576035E+01  0.41435661702E+02  0.51100000000E-03 0. -1.
        -11    1    3    3    0    0  0.41753101783E+01 -0.45825731884E+01  0.32670981540E+01  0.70076474455E+01  0.51100000000E-03 0.  1.
        -12    1    3    3    0    0  0.29875152064E+02  0.28402834509E+02 -0.53248802114E+01  0.41564408672E+02  0.00000000000E+00 0.  1.
</event>
<event>
 7    1  0.2641103E-015  0.9000770E+02  0.7816164E-02  0.1186339E+00
        -11   -1    0    0    0    0  0.00000000000E+00  0.00000000000E+00  0.45593999997E+02  0.45594000000E+02  0.51100000000E-03 0. -1.
         11   -1    0    0    0    0 -0.00000000000E+00 -0.00000000000E+00 -0.45593999997E+02  0.45594000000E+02  0.51100000000E-03 0.  1.
    9900012    2    1    2    0    0 -0.48692422132E+00 -0.96312874893E+00 -0.47791828009E+00  0.90007695774E+02  0.89999956558E+02 0.  0.
        -12    1    1    2    0    0  0.48692422132E+00  0.96312874893E+00  0.47791828009E+00  0.11803042264E+01  0.00000000000E+00 0.  1.
         11    1    3    3    0    0 -0.73141577130E+01 -0.38874053252E+01 -0.65452993522E+01  0.10556977176E+02  0.51100000000E-03 0. -1.
        -11    1    3    3    0    0 -0.98216422872E+01 -0.80135884979E+01 -0.33135299115E+02  0.35477180067E+02  0.51100000000E-03 0.  1.
         12    1    3    3    0    0  0.16648875779E+02  0.10937865074E+02  0.39202680187E+02  0.43973538531E+02  0.00000000000E+00 0. -1.
</event>
<event>
 7    1  0.2808647E-015  0.9000772E+02  0.7816164E-02  0.1186339E+00
        -11   -1    0    0    0    0  0.00000000000E+00  0.00000000000E+00  0.45593999997E+02  0.45594000000E+02  0.51100000000E-03 0. -1.
         11   -1    0    0    0    0 -0.00000000000E+00 -0.00000000000E+00 -0.45593999997E+02  0.45594000000E+02  0.51100000000E-03 0.  1.
    9900012    2    1    2    0    0  0.28348942834E+00 -0.31646509236E+00  0.11011572404E+01  0.90007718814E+02  0.89999979902E+02 0.  0.
        -12    1    1    2    0    0 -0.28348942834E+00  0.31646509236E+00 -0.11011572404E+01  0.11802811863E+01  0.00000000000E+00 0.  1.
         11    1    3    3    0    0 -0.42498304050E+01  0.80578608623E+01  0.19782011683E+01  0.93222025440E+01  0.51100000000E-03 0. -1.
        -11    1    3    3    0    0 -0.34205039439E+02  0.59521354455E+00 -0.16477296672E+02  0.37971572368E+02  0.51100000000E-03 0.  1.
         12    1    3    3    0    0  0.38738359273E+02 -0.89695394992E+01  0.15600252744E+02  0.42713943902E+02  0.00000000000E+00 0. -1.
</event>
<event>
 7    1  0.2641103E-015  0.9000902E+02  0.7816164E-02  0.1186336E+00
        -11   -1    0    0    0    0  0.00000000000E+00  0.00000000000E+00  0.45593999997E+02  0.45594000000E+02  0.51100000000E-03 0. -1.
         11   -1    0    0    0    0 -0.00000000000E+00 -0.00000000000E+00 -0.45593999997E+02  0.45594000000E+02  0.51100000000E-03 0.  1.
    9900012    2    1    2    0    0 -0.33819823080E+00 -0.73851309672E+00  0.85452083344E+00  0.90009023540E+02  0.90001301842E+02 0.  0.
        -12    1    1    2    0    0  0.33819823080E+00  0.73851309672E+00 -0.85452083344E+00  0.11789764595E+01  0.00000000000E+00 0.  1.
         11    1    3    3    0    0  0.10806357953E+01 -0.47694633932E+01  0.40580084188E+02  0.40873693102E+02  0.51100000000E-03 0. -1.
        -11    1    3    3    0    0 -0.74218044960E+01 -0.12923119928E+00  0.12382630049E+01  0.75255018577E+01  0.51100000000E-03 0.  1.
        -12    1    3    3    0    0  0.60029704699E+01  0.41601814958E+01 -0.40963826360E+02  0.41609828581E+02  0.00000000000E+00 0.  1.
</event>
<event>
 7    1  0.2641103E-015  0.9000790E+02  0.7816164E-02  0.1186339E+00
        -11   -1    0    0    0    0  0.00000000000E+00  0.00000000000E+00  0.45593999997E+02  0.45594000000E+02  0.51100000000E-03 0. -1.
         11   -1    0    0    0    0 -0.00000000000E+00 -0.00000000000E+00 -0.45593999997E+02  0.45594000000E+02  0.51100000000E-03 0.  1.
    9900012    2    1    2    0    0  0.11637807039E+01  0.74190057893E-01  0.18098004797E+00  0.90007896840E+02  0.90000160278E+02 0.  0.
        -12    1    1    2    0    0 -0.11637807039E+01 -0.74190057893E-01 -0.18098004797E+00  0.11801031605E+01  0.00000000000E+00 0.  1.
         11    1    3    3    0    0  0.65389325771E+01 -0.29122915584E+01 -0.63901723674E+01  0.95954877164E+01  0.51100000000E-03 0. -1.
        -11    1    3    3    0    0  0.25731710438E+02 -0.21998291138E+02 -0.12632077810E+02  0.36133296626E+02  0.51100000000E-03 0.  1.
         12    1    3    3    0    0 -0.31106862311E+02  0.24984772754E+02  0.19203230226E+02  0.44279112497E+02  0.00000000000E+00 0. -1.
</event>
<event>
 7    1  0.2641103E-015  0.9000785E+02  0.7816164E-02  0.1186339E+00
        -11   -1    0    0    0    0  0.00000000000E+00  0.00000000000E+00  0.45593999997E+02  0.45594000000E+02  0.51100000000E-03 0. -1.
         11   -1    0    0    0    0 -0.00000000000E+00 -0.00000000000E+00 -0.45593999997E+02  0.45594000000E+02  0.51100000000E-03 0.  1.
    9900012    2    1    2    0    0 -0.84573590415E+00 -0.70262335534E+00 -0.42871179397E+00  0.90007854839E+02  0.90000117723E+02 0.  0.
        -12    1    1    2    0    0  0.84573590415E+00  0.70262335534E+00  0.42871179397E+00  0.11801451611E+01  0.00000000000E+00 0.  1.
         11    1    3    3    0    0 -0.12691286552E+02  0.41462346875E+02  0.47604506817E+01  0.43621747485E+02  0.51100000000E-03 0. -1.
        -11    1    3    3    0    0 -0.18977075486E+01 -0.80369063253E+01  0.28329734912E+01  0.87303434230E+01  0.51100000000E-03 0.  1.
        -12    1    3    3    0    0  0.13743258196E+02 -0.34128063905E+02 -0.80221359668E+01  0.37655763931E+02  0.00000000000E+00 0.  1.
</event>
<event>
 7    1  0.2641103E-015  0.9000775E+02  0.7816164E-02  0.1186339E+00
        -11   -1    0    0    0    0  0.00000000000E+00  0.00000000000E+00  0.45593999997E+02  0.45594000000E+02  0.51100000000E-03 0. -1.
         11   -1    0    0    0    0 -0.00000000000E+00 -0.00000000000E+00 -0.45593999997E+02  0.45594000000E+02  0.51100000000E-03 0.  1.
    9900012    2    1    2    0    0 -0.62863310215E+00  0.40293636729E+00  0.91403323003E+00  0.90007748315E+02  0.90000009793E+02 0.  0.
        -12    1    1    2    0    0  0.62863310215E+00 -0.40293636729E+00 -0.91403323003E+00  0.11802516845E+01  0.00000000000E+00 0.  1.
         11    1    3    3    0    0  0.66471593742E+01  0.12070394821E+02  0.70486754060E+01  0.15477822331E+02  0.51100000000E-03 0. -1.
        -11    1    3    3    0    0  0.28757518814E+02 -0.11572223810E+02  0.13136196824E+02  0.33667059859E+02  0.51100000000E-03 0.  1.
         12    1    3    3    0    0 -0.36033311291E+02 -0.95234643772E-01 -0.19270839000E+02  0.40862866125E+02  0.00000000000E+00 0. -1.
</event>
<event>
 7    1  0.2641103E-015  0.9000770E+02  0.7816164E-02  0.1186339E+00
        -11   -1    0    0    0    0  0.00000000000E+00  0.00000000000E+00  0.45593999997E+02  0.45594000000E+02  0.51100000000E-03 0.  1.
         11   -1    0    0    0    0 -0.00000000000E+00 -0.00000000000E+00 -0.45593999997E+02  0.45594000000E+02  0.51100000000E-03 0. -1.
    9900012    2    1    2    0    0 -0.11151005599E+01 -0.38530627996E+00 -0.34488821655E-01  0.90007703568E+02  0.89999964455E+02 0.  0.
        -12    1    1    2    0    0  0.11151005599E+01  0.38530627996E+00  0.34488821655E-01  0.11802964317E+01  0.00000000000E+00 0.  1.
         11    1    3    3    0    0 -0.14817114496E+01 -0.35100125061E+02 -0.12529330875E+02  0.37298771837E+02  0.51100000000E-03 0. -1.
        -11    1    3    3    0    0  0.98498821925E-01 -0.27897153629E+01 -0.90396592136E+01  0.94608484177E+01  0.51100000000E-03 0.  1.
        -12    1    3    3    0    0  0.26811206786E+00  0.37504534144E+02  0.21534501267E+02  0.43248083313E+02  0.00000000000E+00 0.  1.
</event>
<event>
 7    1  0.2641103E-015  0.9000770E+02  0.7816164E-02  0.1186339E+00
        -11   -1    0    0    0    0  0.00000000000E+00  0.00000000000E+00  0.45593999997E+02  0.45594000000E+02  0.51100000000E-03 0.  1.
         11   -1    0    0    0    0 -0.00000000000E+00 -0.00000000000E+00 -0.45593999997E+02  0.45594000000E+02  0.51100000000E-03 0. -1.
    9900012    2    1    2    0    0  0.75669672262E+00  0.40836112239E+00 -0.80855009695E+00  0.90007702582E+02  0.89999963456E+02 0.  0.
        -12    1    1    2    0    0 -0.75669672262E+00 -0.40836112239E+00  0.80855009695E+00  0.11802974183E+01  0.00000000000E+00 0.  1.
         11    1    3    3    0    0  0.84087725732E+00 -0.80007960179E+01 -0.70845974458E+01  0.10719670364E+02  0.51100000000E-03 0. -1.
        -11    1    3    3    0    0 -0.26037373968E+01 -0.30455237139E+02  0.21608142477E+02  0.37432776269E+02  0.51100000000E-03 0.  1.
         12    1    3    3    0    0  0.25195568621E+01  0.38864394280E+02 -0.15332095128E+02  0.41855255949E+02  0.00000000000E+00 0. -1.
</event>
<event>
 7    1  0.2641103E-015  0.9000776E+02  0.7816164E-02  0.1186339E+00
        -11   -1    0    0    0    0  0.00000000000E+00  0.00000000000E+00  0.45593999997E+02  0.45594000000E+02  0.51100000000E-03 0.  1.
         11   -1    0    0    0    0 -0.00000000000E+00 -0.00000000000E+00 -0.45593999997E+02  0.45594000000E+02  0.51100000000E-03 0. -1.
    9900012    2    1    2    0    0  0.25234240323E+00  0.68334021278E+00 -0.92861741635E+00  0.90007762380E+02  0.90000024043E+02 0.  0.
        -12    1    1    2    0    0 -0.25234240323E+00 -0.68334021278E+00  0.92861741635E+00  0.11802376205E+01  0.00000000000E+00 0.  1.
         11    1    3    3    0    0  0.20263938221E+02 -0.22980329643E+02 -0.20358063779E+02  0.36785506709E+02  0.51100000000E-03 0. -1.
        -11    1    3    3    0    0  0.62402244254E+01 -0.18731061740E+01 -0.58217208616E+01  0.87373543862E+01  0.51100000000E-03 0.  1.
        -12    1    3    3    0    0 -0.26251820243E+02  0.25536776030E+02  0.25251167224E+02  0.44484901284E+02  0.00000000000E+00 0.  1.
</event>
<event>
 7    1  0.2641103E-015  0.9000776E+02  0.7816164E-02  0.1186339E+00
        -11   -1    0    0    0    0  0.00000000000E+00  0.00000000000E+00  0.45593999997E+02  0.45594000000E+02  0.51100000000E-03 0.  1.
         11   -1    0    0    0    0 -0.00000000000E+00 -0.00000000000E+00 -0.45593999997E+02  0.45594000000E+02  0.51100000000E-03 0. -1.
    9900012    2    1    2    0    0 -0.11755800754E+01 -0.54995929258E-01 -0.89210214907E-01  0.90007757852E+02  0.90000019455E+02 0.  0.
        -12    1    1    2    0    0  0.11755800754E+01  0.54995929258E-01  0.89210214907E-01  0.11802421482E+01  0.00000000000E+00 0.  1.
         11    1    3    3    0    0 -0.26525413154E+02  0.68556984017E+01 -0.26581841015E+02  0.38173189748E+02  0.51100000000E-03 0. -1.
        -11    1    3    3    0    0  0.78176171646E-01 -0.84764513337E+01 -0.61864010577E+01  0.10494183962E+02  0.51100000000E-03 0.  1.
        -12    1    3    3    0    0  0.25271656907E+02  0.15657570027E+01  0.32679031857E+02  0.41340384141E+02  0.00000000000E+00 0.  1.
</event>
<event>
 7    1  0.2641103E-015  0.9000767E+02  0.7816164E-02  0.1186339E+00
        -11   -1    0    0    0    0  0.00000000000E+00  0.00000000000E+00  0.45593999997E+02  0.45594000000E+02  0.51100000000E-03 0.  1.
         11   -1    0    0    0    0 -0.00000000000E+00 -0.00000000000E+00 -0.45593999997E+02  0.45594000000E+02  0.51100000000E-03 0. -1.
    9900012    2    1    2    0    0 -0.48616708178E+00  0.10522814123E+01 -0.22254259727E+00  0.90007669618E+02  0.89999930057E+02 0.  0.
        -12    1    1    2    0    0  0.48616708178E+00 -0.10522814123E+01  0.22254259727E+00  0.11803303816E+01  0.00000000000E+00 0.  1.
         11    1    3    3    0    0 -0.30209721160E+01  0.45153749971E+01 -0.34920148780E+02  0.35340227433E+02  0.51100000000E-03 0. -1.
        -11    1    3    3    0    0 -0.17072591555E+00  0.47902712265E+01 -0.89560699559E+01  0.10158101943E+02  0.51100000000E-03 0.  1.
        -12    1    3    3    0    0  0.27055309498E+01 -0.82533648113E+01  0.43653676139E+02  0.44509340243E+02  0.00000000000E+00 0.  1.
</event>
<event>
 7    1  0.2641103E-015  0.9000787E+02  0.7816164E-02  0.1186339E+00
        -11   -1    0    0    0    0  0.00000000000E+00  0.00000000000E+00  0.45593999997E+02  0.45594000000E+02  0.51100000000E-03 0.  1.
         11   -1    0    0    0    0 -0.00000000000E+00 -0.00000000000E+00 -0.45593999997E+02  0.45594000000E+02  0.51100000000E-03 0. -1.
    9900012    2    1    2    0    0  0.34054593173E+00 -0.90166352612E+00  0.68098527277E+00  0.90007868826E+02  0.90000131894E+02 0.  0.
        -12    1    1    2    0    0 -0.34054593173E+00  0.90166352612E+00 -0.68098527277E+00  0.11801311739E+01  0.00000000000E+00 0.  1.
         11    1    3    3    0    0  0.13649813928E+02 -0.10655301480E+02  0.17644195421E+02  0.24721862838E+02  0.51100000000E-03 0. -1.
        -11    1    3    3    0    0  0.94356662740E+01 -0.16447410886E+02  0.99142473317E+01  0.21397229337E+02  0.51100000000E-03 0.  1.
         12    1    3    3    0    0 -0.22744934270E+02  0.26201048840E+02 -0.26877457480E+02  0.43888776650E+02  0.00000000000E+00 0. -1.
</event>
<event>
 7    1  0.2641103E-015  0.9000774E+02  0.7816164E-02  0.1186339E+00
        -11   -1    0    0    0    0  0.00000000000E+00  0.00000000000E+00  0.45593999997E+02  0.45594000000E+02  0.51100000000E-03 0. -1.
         11   -1    0    0    0    0 -0.00000000000E+00 -0.00000000000E+00 -0.45593999997E+02  0.45594000000E+02  0.51100000000E-03 0.  1.
    9900012    2    1    2    0    0  0.10274318841E+01  0.57089007752E+00  0.10715440615E+00  0.90007739934E+02  0.90000001301E+02 0.  0.
        -12    1    1    2    0    0 -0.10274318841E+01 -0.57089007752E+00 -0.10715440615E+00  0.11802600662E+01  0.00000000000E+00 0.  1.
         11    1    3    3    0    0  0.15592164873E+01 -0.97960714176E+01 -0.18206344202E+01  0.10085082113E+02  0.51100000000E-03 0. -1.
        -11    1    3    3    0    0 -0.26218789432E+02  0.12171297840E+02 -0.28135922670E+02  0.40338512059E+02  0.51100000000E-03 0.  1.
         12    1    3    3    0    0  0.25687004829E+02 -0.18043363453E+01  0.30063711496E+02  0.39584145761E+02  0.00000000000E+00 0. -1.
</event>
<event>
 7    1  0.2641103E-015  0.9000777E+02  0.7816164E-02  0.1186339E+00
        -11   -1    0    0    0    0  0.00000000000E+00  0.00000000000E+00  0.45593999997E+02  0.45594000000E+02  0.51100000000E-03 0. -1.
         11   -1    0    0    0    0 -0.00000000000E+00 -0.00000000000E+00 -0.45593999997E+02  0.45594000000E+02  0.51100000000E-03 0.  1.
    9900012    2    1    2    0    0  0.24239234803E+00 -0.10077202194E+01  0.56451615692E+00  0.90007774351E+02  0.90000036173E+02 0.  0.
        -12    1    1    2    0    0 -0.24239234803E+00  0.10077202194E+01 -0.56451615692E+00  0.11802256489E+01  0.00000000000E+00 0.  1.
         11    1    3    3    0    0 -0.18689699918E+01  0.12050827040E+01 -0.11204426657E+02  0.11422979039E+02  0.51100000000E-03 0. -1.
        -11    1    3    3    0    0 -0.21423337189E+01 -0.75863069714E+01 -0.32676580471E+02  0.33613993497E+02  0.51100000000E-03 0.  1.
         12    1    3    3    0    0  0.42536960587E+01  0.53735040480E+01  0.44445523285E+02  0.44970801816E+02  0.00000000000E+00 0. -1.
</event>
<event>
 7    1  0.2641103E-015  0.9000815E+02  0.7816164E-02  0.1186338E+00
        -11   -1    0    0    0    0  0.00000000000E+00  0.00000000000E+00  0.45593999997E+02  0.45594000000E+02  0.51100000000E-03 0. -1.
         11   -1    0    0    0    0 -0.00000000000E+00 -0.00000000000E+00 -0.45593999997E+02  0.45594000000E+02  0.51100000000E-03 0.  1.
    9900012    2    1    2    0    0  0.10744792183E+01 -0.43385220892E+00 -0.22206969451E+00  0.90008149044E+02  0.90000415810E+02 0.  0.
        -12    1    1    2    0    0 -0.10744792183E+01  0.43385220892E+00  0.22206969451E+00  0.11798509562E+01  0.00000000000E+00 0.  1.
         11    1    3    3    0    0 -0.12265652638E+02  0.19298189365E+02  0.11888462483E+02  0.25772114540E+02  0.51100000000E-03 0. -1.
        -11    1    3    3    0    0  0.13982727765E+02 -0.10399853567E+02  0.22457006635E+02  0.28425178579E+02  0.51100000000E-03 0.  1.
        -12    1    3    3    0    0 -0.64259590847E+00 -0.93321880065E+01 -0.34567538813E+02  0.35810855924E+02  0.00000000000E+00 0.  1.
</event>
<event>
 7    1  0.2641103E-015  0.9000797E+02  0.7816164E-02  0.1186339E+00
        -11   -1    0    0    0    0  0.00000000000E+00  0.00000000000E+00  0.45593999997E+02  0.45594000000E+02  0.51100000000E-03 0.  1.
         11   -1    0    0    0    0 -0.00000000000E+00 -0.00000000000E+00 -0.45593999997E+02  0.45594000000E+02  0.51100000000E-03 0. -1.
    9900012    2    1    2    0    0 -0.26043265018E+00  0.10503017655E+01 -0.47064896797E+00  0.90007970587E+02  0.90000234999E+02 0.  0.
        -12    1    1    2    0    0  0.26043265018E+00 -0.10503017655E+01  0.47064896797E+00  0.11800294127E+01  0.00000000000E+00 0.  1.
         11    1    3    3    0    0  0.10433992249E+02  0.19061092282E+01 -0.21065380028E+01  0.10813831387E+02  0.51100000000E-03 0. -1.
        -11    1    3    3    0    0  0.89194906206E+00  0.17979071271E+02  0.34889241088E+02  0.39259415697E+02  0.51100000000E-03 0.  1.
         12    1    3    3    0    0 -0.11586373961E+02 -0.18834878734E+02 -0.33253352054E+02  0.39934723503E+02  0.00000000000E+00 0. -1.
</event>
<event>
 7    1  0.2641103E-015  0.9000779E+02  0.7816164E-02  0.1186339E+00
        -11   -1    0    0    0    0  0.00000000000E+00  0.00000000000E+00  0.45593999997E+02  0.45594000000E+02  0.51100000000E-03 0. -1.
         11   -1    0    0    0    0 -0.00000000000E+00 -0.00000000000E+00 -0.45593999997E+02  0.45594000000E+02  0.51100000000E-03 0.  1.
    9900012    2    1    2    0    0  0.86290628321E+00 -0.73148061726E+00  0.33647788500E+00  0.90007793021E+02  0.90000055088E+02 0.  0.
        -12    1    1    2    0    0 -0.86290628321E+00  0.73148061726E+00 -0.33647788500E+00  0.11802069794E+01  0.00000000000E+00 0.  1.
         11    1    3    3    0    0 -0.33106950135E+02 -0.80454872473E+01  0.10027359993E+02  0.35515460872E+02  0.51100000000E-03 0. -1.
        -11    1    3    3    0    0 -0.82773056571E+01 -0.43217878175E+01  0.98761621969E+00  0.93897297586E+01  0.51100000000E-03 0.  1.
        -12    1    3    3    0    0  0.42247162075E+02  0.11635794448E+02 -0.10678498328E+02  0.45102602390E+02  0.00000000000E+00 0.  1.
</event>
<event>
 7    1  0.2733633E-015  0.9000774E+02  0.7816164E-02  0.1186339E+00
        -11   -1    0    0    0    0  0.00000000000E+00  0.00000000000E+00  0.45593999997E+02  0.45594000000E+02  0.51100000000E-03 0.  1.
         11   -1    0    0    0    0 -0.00000000000E+00 -0.00000000000E+00 -0.45593999997E+02  0.45594000000E+02  0.51100000000E-03 0. -1.
    9900012    2    1    2    0    0 -0.79066217349E+00  0.27951563560E+00 -0.83050534493E+00  0.90007739524E+02  0.90000000886E+02 0.  0.
        -12    1    1    2    0    0  0.79066217349E+00 -0.27951563560E+00  0.83050534493E+00  0.11802604760E+01  0.00000000000E+00 0.  1.
         11    1    3    3    0    0 -0.59608864074E+01  0.67477989613E+01  0.48267180276E+01  0.10215780184E+02  0.51100000000E-03 0. -1.
        -11    1    3    3    0    0 -0.15968280398E+02 -0.84206046835E+01  0.31898042959E+02  0.36652117361E+02  0.51100000000E-03 0.  1.
         12    1    3    3    0    0  0.21138504632E+02  0.19523213578E+01 -0.37555266332E+02  0.43139841980E+02  0.00000000000E+00 0. -1.
</event>
<event>
 7    1  0.2880588E-015  0.9000761E+02  0.7816164E-02  0.1186339E+00
        -11   -1    0    0    0    0  0.00000000000E+00  0.00000000000E+00  0.45593999997E+02  0.45594000000E+02  0.51100000000E-03 0. -1.
         11   -1    0    0    0    0 -0.00000000000E+00 -0.00000000000E+00 -0.45593999997E+02  0.45594000000E+02  0.51100000000E-03 0.  1.
    9900012    2    1    2    0    0  0.75622198024E+00 -0.55218862203E+00  0.71870630034E+00  0.90007609089E+02  0.89999868728E+02 0.  0.
        -12    1    1    2    0    0 -0.75622198024E+00  0.55218862203E+00 -0.71870630034E+00  0.11803909115E+01  0.00000000000E+00 0.  1.
         11    1    3    3    0    0 -0.68085551303E+01 -0.49651610730E+01 -0.43622710053E+01  0.94888701133E+01  0.51100000000E-03 0. -1.
        -11    1    3    3    0    0  0.18206442885E+01 -0.28420066145E+01 -0.37141288548E+02  0.37294330166E+02  0.51100000000E-03 0.  1.
         12    1    3    3    0    0  0.57441328220E+01  0.72549790654E+01  0.42222265854E+02  0.43224408810E+02  0.00000000000E+00 0. -1.
</event>
<event>
 7    1  0.2641103E-015  0.9000778E+02  0.7816164E-02  0.1186339E+00
        -11   -1    0    0    0    0  0.00000000000E+00  0.00000000000E+00  0.45593999997E+02  0.45594000000E+02  0.51100000000E-03 0.  1.
         11   -1    0    0    0    0 -0.00000000000E+00 -0.00000000000E+00 -0.45593999997E+02  0.45594000000E+02  0.51100000000E-03 0. -1.
    9900012    2    1    2    0    0 -0.24052373133E+00  0.54960839741E+00 -0.10163660567E+01  0.90007779251E+02  0.90000041137E+02 0.  0.
        -12    1    1    2    0    0  0.24052373133E+00 -0.54960839741E+00  0.10163660567E+01  0.11802207493E+01  0.00000000000E+00 0.  1.
         11    1    3    3    0    0  0.31490634765E+02  0.28072913596E+01 -0.16788795500E+02  0.35796712381E+02  0.51100000000E-03 0. -1.
        -11    1    3    3    0    0  0.64226752692E+01 -0.82965907248E+01 -0.34751056378E+01  0.11052625694E+02  0.51100000000E-03 0.  1.
        -12    1    3    3    0    0 -0.38153833766E+02  0.60389077626E+01  0.19247535081E+02  0.43158441176E+02  0.00000000000E+00 0.  1.
</event>
<event>
 7    1  0.2641103E-015  0.9000776E+02  0.7816164E-02  0.1186339E+00
        -11   -1    0    0    0    0  0.00000000000E+00  0.00000000000E+00  0.45593999997E+02  0.45594000000E+02  0.51100000000E-03 0.  1.
         11   -1    0    0    0    0 -0.00000000000E+00 -0.00000000000E+00 -0.45593999997E+02  0.45594000000E+02  0.51100000000E-03 0. -1.
    9900012    2    1    2    0    0  0.49674189594E+00 -0.11934181728E+00 -0.10639406608E+01  0.90007760740E+02  0.90000022382E+02 0.  0.
        -12    1    1    2    0    0 -0.49674189594E+00  0.11934181728E+00  0.10639406608E+01  0.11802392597E+01  0.00000000000E+00 0.  1.
         11    1    3    3    0    0 -0.25938728128E+01  0.14150019975E+02 -0.69352219223E+01  0.15970239348E+02  0.51100000000E-03 0. -1.
        -11    1    3    3    0    0 -0.21498625814E+02  0.44933490221E+01  0.28306171227E+02  0.35827648920E+02  0.51100000000E-03 0.  1.
         12    1    3    3    0    0  0.24589240522E+02 -0.18762710815E+02 -0.22434889966E+02  0.38209872472E+02  0.00000000000E+00 0. -1.
</event>
<event>
 7    1  0.2641103E-015  0.9000788E+02  0.7816164E-02  0.1186339E+00
        -11   -1    0    0    0    0  0.00000000000E+00  0.00000000000E+00  0.45593999997E+02  0.45594000000E+02  0.51100000000E-03 0.  1.
         11   -1    0    0    0    0 -0.00000000000E+00 -0.00000000000E+00 -0.45593999997E+02  0.45594000000E+02  0.51100000000E-03 0. -1.
    9900012    2    1    2    0    0  0.60160039725E+00 -0.32994881303E+00 -0.96014836405E+00  0.90007883845E+02  0.90000147112E+02 0.  0.
        -12    1    1    2    0    0 -0.60160039725E+00  0.32994881303E+00  0.96014836405E+00  0.11801161545E+01  0.00000000000E+00 0.  1.
         11    1    3    3    0    0 -0.33248075877E+02 -0.47628822683E+01 -0.26473176196E+02  0.42766209269E+02  0.51100000000E-03 0. -1.
        -11    1    3    3    0    0  0.21659919922E+01  0.75330729182E+01  0.63178467033E+01  0.10067467215E+02  0.51100000000E-03 0.  1.
        -12    1    3    3    0    0  0.31683684282E+02 -0.31001394629E+01  0.19195181129E+02  0.37174207362E+02  0.00000000000E+00 0.  1.
</event>
<event>
 7    1  0.2641103E-015  0.9000773E+02  0.7816164E-02  0.1186339E+00
        -11   -1    0    0    0    0  0.00000000000E+00  0.00000000000E+00  0.45593999997E+02  0.45594000000E+02  0.51100000000E-03 0.  1.
         11   -1    0    0    0    0 -0.00000000000E+00 -0.00000000000E+00 -0.45593999997E+02  0.45594000000E+02  0.51100000000E-03 0. -1.
    9900012    2    1    2    0    0  0.90831933337E+00 -0.20156460496E+00 -0.72620640108E+00  0.90007725439E+02  0.89999986615E+02 0.  0.
        -12    1    1    2    0    0 -0.90831933337E+00  0.20156460496E+00  0.72620640108E+00  0.11802745606E+01  0.00000000000E+00 0.  1.
         11    1    3    3    0    0  0.25525376907E+02 -0.22297544615E+02 -0.19299919059E+02  0.39002720906E+02  0.51100000000E-03 0. -1.
        -11    1    3    3    0    0  0.43365253081E+01  0.45197820496E+01 -0.63752245960E+01  0.89374140798E+01  0.51100000000E-03 0.  1.
        -12    1    3    3    0    0 -0.28953582882E+02  0.17576197960E+02  0.24948937254E+02  0.42067590454E+02  0.00000000000E+00 0.  1.
</event>
<event>
 7    1  0.2641103E-015  0.9000774E+02  0.7816164E-02  0.1186339E+00
        -11   -1    0    0    0    0  0.00000000000E+00  0.00000000000E+00  0.45593999997E+02  0.45594000000E+02  0.51100000000E-03 0.  1.
         11   -1    0    0    0    0 -0.00000000000E+00 -0.00000000000E+00 -0.45593999997E+02  0.45594000000E+02  0.51100000000E-03 0. -1.
    9900012    2    1    2    0    0  0.94960544985E+00  0.55259091551E+00 -0.43115731425E+00  0.90007744155E+02  0.90000005578E+02 0.  0.
        -12    1    1    2    0    0 -0.94960544985E+00 -0.55259091551E+00  0.43115731425E+00  0.11802558451E+01  0.00000000000E+00 0.  1.
         11    1    3    3    0    0  0.19945836927E+01  0.98619605723E+01  0.50196235912E+00  0.10074154898E+02  0.51100000000E-03 0. -1.
        -11    1    3    3    0    0 -0.50261989594E+01  0.16043553187E+02  0.33208676672E+02  0.37221962353E+02  0.51100000000E-03 0.  1.
         12    1    3    3    0    0  0.39812207166E+01 -0.25352922844E+02 -0.34141796345E+02  0.42711626904E+02  0.00000000000E+00 0. -1.
</event>
<event>
 7    1  0.2641103E-015  0.9000773E+02  0.7816164E-02  0.1186339E+00
        -11   -1    0    0    0    0  0.00000000000E+00  0.00000000000E+00  0.45593999997E+02  0.45594000000E+02  0.51100000000E-03 0.  1.
         11   -1    0    0    0    0 -0.00000000000E+00 -0.00000000000E+00 -0.45593999997E+02  0.45594000000E+02  0.51100000000E-03 0. -1.
    9900012    2    1    2    0    0  0.34215224536E+00 -0.10893795087E+01  0.29869227203E+00  0.90007731833E+02  0.89999993093E+02 0.  0.
        -12    1    1    2    0    0 -0.34215224536E+00  0.10893795087E+01 -0.29869227203E+00  0.11802681671E+01  0.00000000000E+00 0.  1.
         11    1    3    3    0    0 -0.31388838265E+00 -0.94077670353E+01 -0.81458128826E+00  0.94481823355E+01  0.51100000000E-03 0. -1.
        -11    1    3    3    0    0  0.32103587980E+02 -0.99624528399E+01  0.20468706486E+02  0.39355543106E+02  0.51100000000E-03 0.  1.
         12    1    3    3    0    0 -0.31447547352E+02  0.18280840367E+02 -0.19355432925E+02  0.41204006391E+02  0.00000000000E+00 0. -1.
</event>
<event>
 7    1  0.2641103E-015  0.9000801E+02  0.7816164E-02  0.1186339E+00
        -11   -1    0    0    0    0  0.00000000000E+00  0.00000000000E+00  0.45593999997E+02  0.45594000000E+02  0.51100000000E-03 0.  1.
         11   -1    0    0    0    0 -0.00000000000E+00 -0.00000000000E+00 -0.45593999997E+02  0.45594000000E+02  0.51100000000E-03 0. -1.
    9900012    2    1    2    0    0  0.25125174562E+00  0.53868024636E+00 -0.10193480093E+01  0.90008010927E+02  0.90000275871E+02 0.  0.
        -12    1    1    2    0    0 -0.25125174562E+00 -0.53868024636E+00  0.10193480093E+01  0.11799890726E+01  0.00000000000E+00 0.  1.
         11    1    3    3    0    0  0.13085835663E+02 -0.17204446678E+02 -0.28618030434E+02  0.35863961670E+02  0.51100000000E-03 0. -1.
        -11    1    3    3    0    0  0.19703726742E+01 -0.57226959840E+01 -0.73496586025E+01  0.95209820730E+01  0.51100000000E-03 0.  1.
        -12    1    3    3    0    0 -0.14804956591E+02  0.23465822908E+02  0.34948341027E+02  0.44623067185E+02  0.00000000000E+00 0.  1.
</event>
<event>
 7    1  0.2641103E-015  0.9000782E+02  0.7816164E-02  0.1186339E+00
        -11   -1    0    0    0    0  0.00000000000E+00  0.00000000000E+00  0.45593999997E+02  0.45594000000E+02  0.51100000000E-03 0. -1.
         11   -1    0    0    0    0 -0.00000000000E+00 -0.00000000000E+00 -0.45593999997E+02  0.45594000000E+02  0.51100000000E-03 0.  1.
    9900012    2    1    2    0    0 -0.72546210096E+00 -0.87650499078E+00  0.31349033045E+00  0.90007816774E+02  0.90000079156E+02 0.  0.
        -12    1    1    2    0    0  0.72546210096E+00  0.87650499078E+00 -0.31349033045E+00  0.11801832256E+01  0.00000000000E+00 0.  1.
         11    1    3    3    0    0 -0.26811413475E+02 -0.13232329910E+02  0.94219004648E+01  0.31348343752E+02  0.51100000000E-03 0. -1.
        -11    1    3    3    0    0 -0.12695509832E+02 -0.62290888928E+01  0.18994279739E+01  0.14268333653E+02  0.51100000000E-03 0.  1.
        -12    1    3    3    0    0  0.38781461207E+02  0.18584913812E+02 -0.11007838108E+02  0.44391139369E+02  0.00000000000E+00 0.  1.
</event>
<event>
 7    1  0.2641103E-015  0.9000800E+02  0.7816164E-02  0.1186339E+00
        -11   -1    0    0    0    0  0.00000000000E+00  0.00000000000E+00  0.45593999997E+02  0.45594000000E+02  0.51100000000E-03 0.  1.
         11   -1    0    0    0    0 -0.00000000000E+00 -0.00000000000E+00 -0.45593999997E+02  0.45594000000E+02  0.51100000000E-03 0. -1.
    9900012    2    1    2    0    0  0.61222217138E+00  0.12737265176E+00 -0.10006767421E+01  0.90008002660E+02  0.90000267495E+02 0.  0.
        -12    1    1    2    0    0 -0.61222217138E+00 -0.12737265176E+00  0.10006767421E+01  0.11799973397E+01  0.00000000000E+00 0.  1.
         11    1    3    3    0    0 -0.13642372275E+02  0.73575723423E+01 -0.47318390563E+01  0.16206125175E+02  0.51100000000E-03 0. -1.
        -11    1    3    3    0    0 -0.16567711745E+02 -0.20786576257E+02  0.22874521562E+02  0.35068712008E+02  0.51100000000E-03 0.  1.
         12    1    3    3    0    0  0.30822306191E+02  0.13556376567E+02 -0.19143359248E+02  0.38733165477E+02  0.00000000000E+00 0. -1.
</event>
<event>
 7    1  0.2641103E-015  0.9000769E+02  0.7816164E-02  0.1186339E+00
        -11   -1    0    0    0    0  0.00000000000E+00  0.00000000000E+00  0.45593999997E+02  0.45594000000E+02  0.51100000000E-03 0.  1.
         11   -1    0    0    0    0 -0.00000000000E+00 -0.00000000000E+00 -0.45593999997E+02  0.45594000000E+02  0.51100000000E-03 0. -1.
    9900012    2    1    2    0    0 -0.92097000193E+00 -0.99616063933E-01  0.73145084408E+00  0.90007690955E+02  0.89999951675E+02 0.  0.
        -12    1    1    2    0    0  0.92097000193E+00  0.99616063933E-01 -0.73145084408E+00  0.11803090451E+01  0.00000000000E+00 0.  1.
         11    1    3    3    0    0 -0.89219943610E+01 -0.13614847145E+01  0.40065290069E+01  0.98746087998E+01  0.51100000000E-03 0. -1.
        -11    1    3    3    0    0  0.76998384271E+01 -0.60962492277E+01  0.37465984344E+02  0.38731792491E+02  0.51100000000E-03 0.  1.
         12    1    3    3    0    0  0.30118593193E+00  0.73581178783E+01 -0.40741062507E+02  0.41401289664E+02  0.00000000000E+00 0. -1.
</event>
<event>
 7    1  0.2641103E-015  0.9000812E+02  0.7816164E-02  0.1186338E+00
        -11   -1    0    0    0    0  0.00000000000E+00  0.00000000000E+00  0.45593999997E+02  0.45594000000E+02  0.51100000000E-03 0. -1.
         11   -1    0    0    0    0 -0.00000000000E+00 -0.00000000000E+00 -0.45593999997E+02  0.45594000000E+02  0.51100000000E-03 0.  1.
    9900012    2    1    2    0    0  0.86111137306E+00  0.60172645078E+00 -0.53714447686E+00  0.90008122164E+02  0.90000388576E+02 0.  0.
        -12    1    1    2    0    0 -0.86111137306E+00 -0.60172645078E+00  0.53714447686E+00  0.11798778358E+01  0.00000000000E+00 0.  1.
         11    1    3    3    0    0  0.13595375107E+01 -0.11153386119E+02  0.97159641305E+00  0.11277870544E+02  0.51100000000E-03 0. -1.
        -11    1    3    3    0    0  0.20082205171E+02  0.28942188677E+02  0.23271475931E+02  0.42219744696E+02  0.51100000000E-03 0.  1.
         12    1    3    3    0    0 -0.20580631309E+02 -0.17187076107E+02 -0.24780216821E+02  0.36510506924E+02  0.00000000000E+00 0. -1.
</event>
<event>
 7    1  0.2641103E-015  0.9000780E+02  0.7816164E-02  0.1186339E+00
        -11   -1    0    0    0    0  0.00000000000E+00  0.00000000000E+00  0.45593999997E+02  0.45594000000E+02  0.51100000000E-03 0.  1.
         11   -1    0    0    0    0 -0.00000000000E+00 -0.00000000000E+00 -0.45593999997E+02  0.45594000000E+02  0.51100000000E-03 0. -1.
    9900012    2    1    2    0    0  0.73052465482E+00  0.55577019073E-01 -0.92526645098E+00  0.90007799559E+02  0.90000061713E+02 0.  0.
        -12    1    1    2    0    0 -0.73052465482E+00 -0.55577019073E-01  0.92526645098E+00  0.11802004413E+01  0.00000000000E+00 0.  1.
         11    1    3    3    0    0  0.67438022375E+01 -0.12404508923E+02 -0.36316195871E+02  0.38964301521E+02  0.51100000000E-03 0. -1.
        -11    1    3    3    0    0 -0.66126208625E+01 -0.67740121907E+01 -0.13557361447E+01  0.95630547727E+01  0.51100000000E-03 0.  1.
        -12    1    3    3    0    0  0.59934327985E+00  0.19234098132E+02  0.36746665565E+02  0.41480443265E+02  0.00000000000E+00 0.  1.
</event>
<event>
 7    1  0.2641103E-015  0.9000770E+02  0.7816164E-02  0.1186339E+00
        -11   -1    0    0    0    0  0.00000000000E+00  0.00000000000E+00  0.45593999997E+02  0.45594000000E+02  0.51100000000E-03 0. -1.
         11   -1    0    0    0    0 -0.00000000000E+00 -0.00000000000E+00 -0.45593999997E+02  0.45594000000E+02  0.51100000000E-03 0.  1.
    9900012    2    1    2    0    0 -0.50823845158E+00  0.10570836831E+01 -0.13180239907E+00  0.90007701686E+02  0.89999962549E+02 0.  0.
        -12    1    1    2    0    0  0.50823845158E+00 -0.10570836831E+01  0.13180239907E+00  0.11802983136E+01  0.00000000000E+00 0.  1.
         11    1    3    3    0    0  0.60545849289E+01  0.18814994817E+02  0.33379081322E+02  0.38792075206E+02  0.51100000000E-03 0. -1.
        -11    1    3    3    0    0  0.98884092136E+01  0.35812861098E+00 -0.21870118229E+00  0.98973088942E+01  0.51100000000E-03 0.  1.
        -12    1    3    3    0    0 -0.16451232594E+02 -0.18116039745E+02 -0.33292182539E+02  0.41318317586E+02  0.00000000000E+00 0.  1.
</event>
<event>
 7    1  0.2641103E-015  0.9000754E+02  0.7816164E-02  0.1186339E+00
        -11   -1    0    0    0    0  0.00000000000E+00  0.00000000000E+00  0.45593999997E+02  0.45594000000E+02  0.51100000000E-03 0.  1.
         11   -1    0    0    0    0 -0.00000000000E+00 -0.00000000000E+00 -0.45593999997E+02  0.45594000000E+02  0.51100000000E-03 0. -1.
    9900012    2    1    2    0    0  0.31181815699E+00 -0.25449347962E+00 -0.11097291349E+01  0.90007535580E+02  0.89999794249E+02 0.  0.
        -12    1    1    2    0    0 -0.31181815699E+00  0.25449347962E+00  0.11097291349E+01  0.11804644201E+01  0.00000000000E+00 0.  1.
         11    1    3    3    0    0 -0.36927469584E+01 -0.48206096043E+01  0.71618343819E+01  0.93897033515E+01  0.51100000000E-03 0. -1.
        -11    1    3    3    0    0 -0.23756365195E+02 -0.16420138299E+02  0.20539875477E+02  0.35438288812E+02  0.51100000000E-03 0.  1.
         12    1    3    3    0    0  0.27760930310E+02  0.20986254424E+02 -0.28811438994E+02  0.45179543417E+02  0.00000000000E+00 0. -1.
</event>
<event>
 7    1  0.2641103E-015  0.9000774E+02  0.7816164E-02  0.1186339E+00
        -11   -1    0    0    0    0  0.00000000000E+00  0.00000000000E+00  0.45593999997E+02  0.45594000000E+02  0.51100000000E-03 0. -1.
         11   -1    0    0    0    0 -0.00000000000E+00 -0.00000000000E+00 -0.45593999997E+02  0.45594000000E+02  0.51100000000E-03 0.  1.
    9900012    2    1    2    0    0  0.64491280018E+00  0.45822369289E+00  0.87586145801E+00  0.90007739535E+02  0.90000000896E+02 0.  0.
        -12    1    1    2    0    0 -0.64491280018E+00 -0.45822369289E+00 -0.87586145801E+00  0.11802604654E+01  0.00000000000E+00 0.  1.
         11    1    3    3    0    0 -0.54081894621E+01 -0.29532146744E+02  0.27691075225E+02  0.40843504403E+02  0.51100000000E-03 0. -1.
        -11    1    3    3    0    0  0.32010547010E+01 -0.47096704290E+01 -0.72750957588E+01  0.92387642739E+01  0.51100000000E-03 0.  1.
        -12    1    3    3    0    0  0.28520475613E+01  0.34700040866E+02 -0.19540118008E+02  0.39925470857E+02  0.00000000000E+00 0.  1.
</event>
<event>
 7    1  0.2641103E-015  0.9000769E+02  0.7816164E-02  0.1186339E+00
        -11   -1    0    0    0    0  0.00000000000E+00  0.00000000000E+00  0.45593999997E+02  0.45594000000E+02  0.51100000000E-03 0. -1.
         11   -1    0    0    0    0 -0.00000000000E+00 -0.00000000000E+00 -0.45593999997E+02  0.45594000000E+02  0.51100000000E-03 0.  1.
    9900012    2    1    2    0    0  0.11441020444E+01 -0.15702927881E+00  0.24394708612E+00  0.90007687388E+02  0.89999948061E+02 0.  0.
        -12    1    1    2    0    0 -0.11441020444E+01  0.15702927881E+00 -0.24394708612E+00  0.11803126125E+01  0.00000000000E+00 0.  1.
         11    1    3    3    0    0 -0.36594131932E+02 -0.16240134856E+01 -0.59002910448E+01  0.37102309178E+02  0.51100000000E-03 0. -1.
        -11    1    3    3    0    0  0.72500749433E+00 -0.12843401283E+02  0.14395886976E+01  0.12944149577E+02  0.51100000000E-03 0.  1.
        -12    1    3    3    0    0  0.37013226483E+02  0.14310385490E+02  0.47046494333E+01  0.39961228632E+02  0.00000000000E+00 0.  1.
</event>
<event>
 7    1  0.2641103E-015  0.9000775E+02  0.7816164E-02  0.1186339E+00
        -11   -1    0    0    0    0  0.00000000000E+00  0.00000000000E+00  0.45593999997E+02  0.45594000000E+02  0.51100000000E-03 0.  1.
         11   -1    0    0    0    0 -0.00000000000E+00 -0.00000000000E+00 -0.45593999997E+02  0.45594000000E+02  0.51100000000E-03 0. -1.
    9900012    2    1    2    0    0 -0.28617720562E+00  0.11632157537E+00 -0.11391037961E+01  0.90007751907E+02  0.90000013433E+02 0.  0.
        -12    1    1    2    0    0  0.28617720562E+00 -0.11632157537E+00  0.11391037961E+01  0.11802480926E+01  0.00000000000E+00 0.  1.
         11    1    3    3    0    0 -0.13206927813E+02 -0.25730686641E+02 -0.24543700435E+02  0.37932629867E+02  0.51100000000E-03 0. -1.
        -11    1    3    3    0    0 -0.66733041900E+01 -0.39249666839E-01 -0.54683963320E+01  0.86277394521E+01  0.51100000000E-03 0.  1.
        -12    1    3    3    0    0  0.19594054798E+02  0.25886257884E+02  0.28872992971E+02  0.43447382588E+02  0.00000000000E+00 0.  1.
</event>
<event>
 7    1  0.2641103E-015  0.9000778E+02  0.7816164E-02  0.1186339E+00
        -11   -1    0    0    0    0  0.00000000000E+00  0.00000000000E+00  0.45593999997E+02  0.45594000000E+02  0.51100000000E-03 0. -1.
         11   -1    0    0    0    0 -0.00000000000E+00 -0.00000000000E+00 -0.45593999997E+02  0.45594000000E+02  0.51100000000E-03 0.  1.
    9900012    2    1    2    0    0 -0.51061410495E+00  0.10306731868E+01  0.26441209187E+00  0.90007776404E+02  0.90000038253E+02 0.  0.
        -12    1    1    2    0    0  0.51061410495E+00 -0.10306731868E+01 -0.26441209187E+00  0.11802235960E+01  0.00000000000E+00 0.  1.
         11    1    3    3    0    0  0.34010250554E+02  0.13519226162E+02 -0.12071919535E+02  0.38538264884E+02  0.51100000000E-03 0. -1.
        -11    1    3    3    0    0  0.47593581473E+01  0.49711537903E+01  0.58813787520E+00  0.69072256661E+01  0.51100000000E-03 0.  1.
        -12    1    3    3    0    0 -0.39280222806E+02 -0.17459706766E+02  0.11748193752E+02  0.44562285854E+02  0.00000000000E+00 0.  1.
</event>
<event>
 7    1  0.2641103E-015  0.9000775E+02  0.7816164E-02  0.1186339E+00
        -11   -1    0    0    0    0  0.00000000000E+00  0.00000000000E+00  0.45593999997E+02  0.45594000000E+02  0.51100000000E-03 0.  1.
         11   -1    0    0    0    0 -0.00000000000E+00 -0.00000000000E+00 -0.45593999997E+02  0.45594000000E+02  0.51100000000E-03 0. -1.
    9900012    2    1    2    0    0  0.47043124750E+00  0.94405156637E+00 -0.52956721075E+00  0.90007754115E+02  0.90000015669E+02 0.  0.
        -12    1    1    2    0    0 -0.47043124750E+00 -0.94405156637E+00  0.52956721075E+00  0.11802458851E+01  0.00000000000E+00 0.  1.
         11    1    3    3    0    0  0.55146218493E+01  0.83193035052E+01 -0.11373815097E+01  0.10045670804E+02  0.51100000000E-03 0. -1.
        -11    1    3    3    0    0 -0.24239619141E+02  0.10498965663E+02 -0.29788442837E+02  0.39813800912E+02  0.51100000000E-03 0.  1.
         12    1    3    3    0    0  0.19195428539E+02 -0.17874217602E+02  0.30396257136E+02  0.40148282399E+02  0.00000000000E+00 0. -1.
</event>
<event>
 7    1  0.2641103E-015  0.9000768E+02  0.7816164E-02  0.1186339E+00
        -11   -1    0    0    0    0  0.00000000000E+00  0.00000000000E+00  0.45593999997E+02  0.45594000000E+02  0.51100000000E-03 0. -1.
         11   -1    0    0    0    0 -0.00000000000E+00 -0.00000000000E+00 -0.45593999997E+02  0.45594000000E+02  0.51100000000E-03 0.  1.
    9900012    2    1    2    0    0  0.73281299631E+00  0.74285682272E+00  0.55163497195E+00  0.90007681277E+02  0.89999941869E+02 0.  0.
        -12    1    1    2    0    0 -0.73281299631E+00 -0.74285682272E+00 -0.55163497195E+00  0.11803187234E+01  0.00000000000E+00 0.  1.
         11    1    3    3    0    0  0.28710552958E+02 -0.24308937122E+02  0.24904412458E+01  0.37701758222E+02  0.51100000000E-03 0. -1.
        -11    1    3    3    0    0  0.58262211476E+01 -0.44046199275E+01 -0.15521363991E+01  0.74669041262E+01  0.51100000000E-03 0.  1.
        -12    1    3    3    0    0 -0.33803961109E+02  0.29456413872E+02 -0.38666987468E+00  0.44839018929E+02  0.00000000000E+00 0.  1.
</event>
<event>
 7    1  0.2641103E-015  0.9000766E+02  0.7816164E-02  0.1186339E+00
        -11   -1    0    0    0    0  0.00000000000E+00  0.00000000000E+00  0.45593999997E+02  0.45594000000E+02  0.51100000000E-03 0.  1.
         11   -1    0    0    0    0 -0.00000000000E+00 -0.00000000000E+00 -0.45593999997E+02  0.45594000000E+02  0.51100000000E-03 0. -1.
    9900012    2    1    2    0    0  0.47993942761E+00 -0.99532414609E+00 -0.41494856161E+00  0.90007663472E+02  0.89999923830E+02 0.  0.
        -12    1    1    2    0    0 -0.47993942761E+00  0.99532414609E+00  0.41494856161E+00  0.11803365278E+01  0.00000000000E+00 0.  1.
         11    1    3    3    0    0  0.34219257968E+02 -0.54606924827E+01  0.11562393999E+02  0.36530339904E+02  0.51100000000E-03 0. -1.
        -11    1    3    3    0    0  0.58139661605E+01 -0.42164752913E+01  0.58199615624E+01  0.92440694094E+01  0.51100000000E-03 0.  1.
        -12    1    3    3    0    0 -0.39553284701E+02  0.86818436279E+01 -0.17797304123E+02  0.44233254159E+02  0.00000000000E+00 0.  1.
</event>
<event>
 7    1  0.2641103E-015  0.9000775E+02  0.7816164E-02  0.1186339E+00
        -11   -1    0    0    0    0  0.00000000000E+00  0.00000000000E+00  0.45593999997E+02  0.45594000000E+02  0.51100000000E-03 0. -1.
         11   -1    0    0    0    0 -0.00000000000E+00 -0.00000000000E+00 -0.45593999997E+02  0.45594000000E+02  0.51100000000E-03 0.  1.
    9900012    2    1    2    0    0 -0.33978906773E+00  0.89580846063E+00 -0.68923914552E+00  0.90007754259E+02  0.90000015816E+02 0.  0.
        -12    1    1    2    0    0  0.33978906773E+00 -0.89580846063E+00  0.68923914552E+00  0.11802457407E+01  0.00000000000E+00 0.  1.
         11    1    3    3    0    0 -0.14675009559E+01 -0.87706227822E+01 -0.16062205830E+01  0.90364444261E+01  0.51100000000E-03 0. -1.
        -11    1    3    3    0    0  0.29719412532E+01 -0.17384071302E+02 -0.33079323245E+02  0.37487064388E+02  0.51100000000E-03 0.  1.
         12    1    3    3    0    0 -0.18442293650E+01  0.27050502545E+02  0.33996304682E+02  0.43484245445E+02  0.00000000000E+00 0. -1.
</event>
<event>
 7    1  0.2641103E-015  0.9000769E+02  0.7816164E-02  0.1186339E+00
        -11   -1    0    0    0    0  0.00000000000E+00  0.00000000000E+00  0.45593999997E+02  0.45594000000E+02  0.51100000000E-03 0.  1.
         11   -1    0    0    0    0 -0.00000000000E+00 -0.00000000000E+00 -0.45593999997E+02  0.45594000000E+02  0.51100000000E-03 0. -1.
    9900012    2    1    2    0    0  0.10949508656E+01 -0.42614084439E+00 -0.11236526225E+00  0.90007686749E+02  0.89999947414E+02 0.  0.
        -12    1    1    2    0    0 -0.10949508656E+01  0.42614084439E+00  0.11236526225E+00  0.11803132506E+01  0.00000000000E+00 0.  1.
         11    1    3    3    0    0  0.25152052700E+00  0.17661577488E+01 -0.86725016101E+01  0.88540872035E+01  0.51100000000E-03 0. -1.
        -11    1    3    3    0    0 -0.68004433443E+01  0.30952169612E+02  0.27729438400E+02  0.42109435850E+02  0.51100000000E-03 0.  1.
         12    1    3    3    0    0  0.76438736829E+01 -0.33144468206E+02 -0.19169302052E+02  0.39044163696E+02  0.00000000000E+00 0. -1.
</event>
<event>
 7    1  0.2641103E-015  0.9000770E+02  0.7816164E-02  0.1186339E+00
        -11   -1    0    0    0    0  0.00000000000E+00  0.00000000000E+00  0.45593999997E+02  0.45594000000E+02  0.51100000000E-03 0. -1.
         11   -1    0    0    0    0 -0.00000000000E+00 -0.00000000000E+00 -0.45593999997E+02  0.45594000000E+02  0.51100000000E-03 0.  1.
    9900012    2    1    2    0    0 -0.71301599368E+00  0.78480780820E+00 -0.51845187347E+00  0.90007700272E+02  0.89999961115E+02 0.  0.
        -12    1    1    2    0    0  0.71301599368E+00 -0.78480780820E+00  0.51845187347E+00  0.11802997281E+01  0.00000000000E+00 0.  1.
         11    1    3    3    0    0  0.80123058365E+01  0.42085970827E+02  0.89014081587E+00  0.42851118261E+02  0.51100000000E-03 0. -1.
        -11    1    3    3    0    0  0.17137738064E+01 -0.52648139636E+01  0.67819877937E+01  0.87550354326E+01  0.51100000000E-03 0.  1.
        -12    1    3    3    0    0 -0.10439095637E+02 -0.36036349055E+02 -0.81905804830E+01  0.38401546578E+02  0.00000000000E+00 0.  1.
</event>
<event>
 7    1  0.2641103E-015  0.9000753E+02  0.7816164E-02  0.1186339E+00
        -11   -1    0    0    0    0  0.00000000000E+00  0.00000000000E+00  0.45593999997E+02  0.45594000000E+02  0.51100000000E-03 0.  1.
         11   -1    0    0    0    0 -0.00000000000E+00 -0.00000000000E+00 -0.45593999997E+02  0.45594000000E+02  0.51100000000E-03 0. -1.
    9900012    2    1    2    0    0  0.23901773775E+00 -0.95985118016E+00 -0.64424966144E+00  0.90007533400E+02  0.89999792041E+02 0.  0.
        -12    1    1    2    0    0 -0.23901773775E+00  0.95985118016E+00  0.64424966144E+00  0.11804665998E+01  0.00000000000E+00 0.  1.
         11    1    3    3    0    0  0.51737823876E+01 -0.21749740159E+02  0.30540317868E+02  0.37848781182E+02  0.51100000000E-03 0. -1.
        -11    1    3    3    0    0 -0.11164104752E+01 -0.92895029655E+01 -0.10582920487E+01  0.94160087095E+01  0.51100000000E-03 0.  1.
        -12    1    3    3    0    0 -0.38183541746E+01  0.30079391944E+02 -0.30126275481E+02  0.42742743509E+02  0.00000000000E+00 0.  1.
</event>
<event>
 7    1  0.2641103E-015  0.9000772E+02  0.7816164E-02  0.1186339E+00
        -11   -1    0    0    0    0  0.00000000000E+00  0.00000000000E+00  0.45593999997E+02  0.45594000000E+02  0.51100000000E-03 0.  1.
         11   -1    0    0    0    0 -0.00000000000E+00 -0.00000000000E+00 -0.45593999997E+02  0.45594000000E+02  0.51100000000E-03 0. -1.
    9900012    2    1    2    0    0 -0.35844886929E+00 -0.57580198033E+00 -0.96593555679E+00  0.90007718249E+02  0.89999979330E+02 0.  0.
        -12    1    1    2    0    0  0.35844886929E+00  0.57580198033E+00  0.96593555679E+00  0.11802817512E+01  0.00000000000E+00 0.  1.
         11    1    3    3    0    0 -0.12819657209E+01 -0.80828675510E+01  0.43939921621E+01  0.92888832126E+01  0.51100000000E-03 0. -1.
        -11    1    3    3    0    0  0.28029245699E+02 -0.29341610168E+01  0.25736898503E+02  0.38165899179E+02  0.51100000000E-03 0.  1.
         12    1    3    3    0    0 -0.27105728847E+02  0.10441226587E+02 -0.31096826222E+02  0.42552935857E+02  0.00000000000E+00 0. -1.
</event>
<event>
 7    1  0.2641103E-015  0.9000765E+02  0.7816164E-02  0.1186339E+00
        -11   -1    0    0    0    0  0.00000000000E+00  0.00000000000E+00  0.45593999997E+02  0.45594000000E+02  0.51100000000E-03 0. -1.
         11   -1    0    0    0    0 -0.00000000000E+00 -0.00000000000E+00 -0.45593999997E+02  0.45594000000E+02  0.51100000000E-03 0.  1.
    9900012    2    1    2    0    0 -0.57060339005E-01  0.11651268387E+01 -0.18016624677E+00  0.90007645685E+02  0.89999905808E+02 0.  0.
        -12    1    1    2    0    0  0.57060339005E-01 -0.11651268387E+01  0.18016624677E+00  0.11803543150E+01  0.00000000000E+00 0.  1.
         11    1    3    3    0    0  0.70045011333E+01 -0.22455429256E+01  0.51764833175E+01  0.89945249433E+01  0.51100000000E-03 0. -1.
        -11    1    3    3    0    0 -0.20787372316E+02  0.37983967252E+02 -0.65666845886E+01  0.43795181958E+02  0.51100000000E-03 0.  1.
         12    1    3    3    0    0  0.13725810844E+02 -0.34573297488E+02  0.12100350244E+01  0.37217938783E+02  0.00000000000E+00 0. -1.
</event>
<event>
 7    1  0.2641103E-015  0.9000777E+02  0.7816164E-02  0.1186339E+00
        -11   -1    0    0    0    0  0.00000000000E+00  0.00000000000E+00  0.45593999997E+02  0.45594000000E+02  0.51100000000E-03 0.  1.
         11   -1    0    0    0    0 -0.00000000000E+00 -0.00000000000E+00 -0.45593999997E+02  0.45594000000E+02  0.51100000000E-03 0. -1.
    9900012    2    1    2    0    0  0.52214230448E+00 -0.10534762091E+01  0.10244481213E+00  0.90007771357E+02  0.90000033139E+02 0.  0.
        -12    1    1    2    0    0 -0.52214230448E+00  0.10534762091E+01 -0.10244481213E+00  0.11802286426E+01  0.00000000000E+00 0.  1.
         11    1    3    3    0    0 -0.95149687618E+01  0.18172684286E+02 -0.31514540934E+02  0.37602491610E+02  0.51100000000E-03 0. -1.
        -11    1    3    3    0    0  0.20054304379E+01 -0.49508357037E+01 -0.79523324336E+01  0.95797764485E+01  0.51100000000E-03 0.  1.
        -12    1    3    3    0    0  0.80316806283E+01 -0.14275324791E+02  0.39569318180E+02  0.42825503299E+02  0.00000000000E+00 0.  1.
</event>
<event>
 7    1  0.2641103E-015  0.9000772E+02  0.7816164E-02  0.1186339E+00
        -11   -1    0    0    0    0  0.00000000000E+00  0.00000000000E+00  0.45593999997E+02  0.45594000000E+02  0.51100000000E-03 0. -1.
         11   -1    0    0    0    0 -0.00000000000E+00 -0.00000000000E+00 -0.45593999997E+02  0.45594000000E+02  0.51100000000E-03 0.  1.
    9900012    2    1    2    0    0 -0.88738379802E+00  0.32109808699E-01 -0.77754693682E+00  0.90007720252E+02  0.89999981359E+02 0.  0.
        -12    1    1    2    0    0  0.88738379802E+00 -0.32109808699E-01  0.77754693682E+00  0.11802797481E+01  0.00000000000E+00 0.  1.
         11    1    3    3    0    0  0.59598836740E+01 -0.13689461968E+02 -0.21295953253E+01  0.15081669632E+02  0.51100000000E-03 0. -1.
        -11    1    3    3    0    0  0.18254440682E+02  0.26548595753E+02 -0.21418844926E+02  0.38688751070E+02  0.51100000000E-03 0.  1.
         12    1    3    3    0    0 -0.25101708154E+02 -0.12827023977E+02  0.22770893315E+02  0.36237299551E+02  0.00000000000E+00 0. -1.
</event>
<event>
 7    1  0.2641103E-015  0.9000771E+02  0.7816164E-02  0.1186339E+00
        -11   -1    0    0    0    0  0.00000000000E+00  0.00000000000E+00  0.45593999997E+02  0.45594000000E+02  0.51100000000E-03 0.  1.
         11   -1    0    0    0    0 -0.00000000000E+00 -0.00000000000E+00 -0.45593999997E+02  0.45594000000E+02  0.51100000000E-03 0. -1.
    9900012    2    1    2    0    0 -0.12989000569E+00 -0.22667898468E+00 -0.11510108099E+01  0.90007711620E+02  0.89999972613E+02 0.  0.
        -12    1    1    2    0    0  0.12989000569E+00  0.22667898468E+00  0.11510108099E+01  0.11802883801E+01  0.00000000000E+00 0.  1.
         11    1    3    3    0    0 -0.29908732880E+02 -0.17538331669E+02  0.13520836232E+02  0.37214760417E+02  0.51100000000E-03 0. -1.
        -11    1    3    3    0    0 -0.69216071806E+01 -0.28163080256E+01 -0.69979161309E+01  0.10237727643E+02  0.51100000000E-03 0.  1.
        -12    1    3    3    0    0  0.36700450055E+02  0.20127960710E+02 -0.76739309114E+01  0.42555223560E+02  0.00000000000E+00 0.  1.
</event>
<event>
 7    1  0.2641103E-015  0.9000771E+02  0.7816164E-02  0.1186339E+00
        -11   -1    0    0    0    0  0.00000000000E+00  0.00000000000E+00  0.45593999997E+02  0.45594000000E+02  0.51100000000E-03 0. -1.
         11   -1    0    0    0    0 -0.00000000000E+00 -0.00000000000E+00 -0.45593999997E+02  0.45594000000E+02  0.51100000000E-03 0.  1.
    9900012    2    1    2    0    0 -0.11013751557E+01  0.19944714791E-01  0.42387532736E+00  0.90007705410E+02  0.89999966322E+02 0.  0.
        -12    1    1    2    0    0  0.11013751557E+01 -0.19944714791E-01 -0.42387532736E+00  0.11802945897E+01  0.00000000000E+00 0.  1.
         11    1    3    3    0    0  0.22482718390E+02 -0.20642770652E+02  0.16524867171E+02  0.34708325250E+02  0.51100000000E-03 0. -1.
        -11    1    3    3    0    0  0.47565932243E+01 -0.78858781021E+01  0.43354508252E+01  0.10178820495E+02  0.51100000000E-03 0.  1.
        -12    1    3    3    0    0 -0.28340686770E+02  0.28548593468E+02 -0.20436442669E+02  0.45120559666E+02  0.00000000000E+00 0.  1.
</event>
<event>
 7    1  0.2641103E-015  0.9000780E+02  0.7816164E-02  0.1186339E+00
        -11   -1    0    0    0    0  0.00000000000E+00  0.00000000000E+00  0.45593999997E+02  0.45594000000E+02  0.51100000000E-03 0.  1.
         11   -1    0    0    0    0 -0.00000000000E+00 -0.00000000000E+00 -0.45593999997E+02  0.45594000000E+02  0.51100000000E-03 0. -1.
    9900012    2    1    2    0    0 -0.39833892551E-01  0.11211200206E+01  0.36657777653E+00  0.90007798277E+02  0.90000060415E+02 0.  0.
        -12    1    1    2    0    0  0.39833892551E-01 -0.11211200206E+01 -0.36657777653E+00  0.11802017225E+01  0.00000000000E+00 0.  1.
         11    1    3    3    0    0  0.51869838485E-01  0.41807018344E+02  0.12936765921E+02  0.43762876802E+02  0.51100000000E-03 0. -1.
        -11    1    3    3    0    0 -0.60864323280E+01 -0.77408023585E+01 -0.74982522797E+01  0.12376932865E+02  0.51100000000E-03 0.  1.
        -12    1    3    3    0    0  0.59947285969E+01 -0.32945095965E+02 -0.50719358644E+01  0.33867988610E+02  0.00000000000E+00 0.  1.
</event>
<event>
 7    1  0.2641103E-015  0.9000777E+02  0.7816164E-02  0.1186339E+00
        -11   -1    0    0    0    0  0.00000000000E+00  0.00000000000E+00  0.45593999997E+02  0.45594000000E+02  0.51100000000E-03 0.  1.
         11   -1    0    0    0    0 -0.00000000000E+00 -0.00000000000E+00 -0.45593999997E+02  0.45594000000E+02  0.51100000000E-03 0. -1.
    9900012    2    1    2    0    0  0.60183324438E+00 -0.85918335071E+00 -0.54087344195E+00  0.90007769783E+02  0.90000031544E+02 0.  0.
        -12    1    1    2    0    0 -0.60183324438E+00  0.85918335071E+00  0.54087344195E+00  0.11802302167E+01  0.00000000000E+00 0.  1.
         11    1    3    3    0    0 -0.35335448403E+02 -0.14022299464E+02 -0.93086064364E+01  0.39139097462E+02  0.51100000000E-03 0. -1.
        -11    1    3    3    0    0  0.20983836989E+01 -0.60422672614E+01 -0.64553645129E+01  0.90875705808E+01  0.51100000000E-03 0.  1.
        -12    1    3    3    0    0  0.33838897949E+02  0.19205383374E+02  0.15223097507E+02  0.41781101740E+02  0.00000000000E+00 0.  1.
</event>
<event>
 7    1  0.2641103E-015  0.9000772E+02  0.7816164E-02  0.1186339E+00
        -11   -1    0    0    0    0  0.00000000000E+00  0.00000000000E+00  0.45593999997E+02  0.45594000000E+02  0.51100000000E-03 0.  1.
         11   -1    0    0    0    0 -0.00000000000E+00 -0.00000000000E+00 -0.45593999997E+02  0.45594000000E+02  0.51100000000E-03 0. -1.
    9900012    2    1    2    0    0  0.98700927942E+00 -0.25606306544E+00 -0.59438834913E+00  0.90007723286E+02  0.89999984434E+02 0.  0.
        -12    1    1    2    0    0 -0.98700927942E+00  0.25606306544E+00  0.59438834913E+00  0.11802767136E+01  0.00000000000E+00 0.  1.
         11    1    3    3    0    0  0.50795008721E+00 -0.11904698999E+02  0.30914286330E+01  0.12310028546E+02  0.51100000000E-03 0. -1.
        -11    1    3    3    0    0 -0.26256253233E+02  0.12886231828E+02  0.24991808357E+02  0.38471239775E+02  0.51100000000E-03 0.  1.
         12    1    3    3    0    0  0.26735312426E+02 -0.12375958950E+01 -0.28677625339E+02  0.39226454966E+02  0.00000000000E+00 0. -1.
</event>
<event>
 7    1  0.3199222E-015  0.9000776E+02  0.7816164E-02  0.1186339E+00
        -11   -1    0    0    0    0  0.00000000000E+00  0.00000000000E+00  0.45593999997E+02  0.45594000000E+02  0.51100000000E-03 0.  1.
         11   -1    0    0    0    0 -0.00000000000E+00 -0.00000000000E+00 -0.45593999997E+02  0.45594000000E+02  0.51100000000E-03 0. -1.
    9900012    2    1    2    0    0  0.48271557377E+00 -0.98218329811E+00 -0.44189907973E+00  0.90007757164E+02  0.90000018758E+02 0.  0.
        -12    1    1    2    0    0 -0.48271557377E+00  0.98218329811E+00  0.44189907973E+00  0.11802428364E+01  0.00000000000E+00 0.  1.
         11    1    3    3    0    0  0.47353213749E+01 -0.82922149793E+01  0.20859757701E+01  0.97742208365E+01  0.51100000000E-03 0. -1.
        -11    1    3    3    0    0  0.61523933006E+01  0.15143728010E+01  0.37726139757E+02  0.38254501559E+02  0.51100000000E-03 0.  1.
         12    1    3    3    0    0 -0.10404999102E+02  0.57956588802E+01 -0.40254014606E+02  0.41979034768E+02  0.00000000000E+00 0. -1.
</event>
<event>
 7    1  0.2641103E-015  0.9000773E+02  0.7816164E-02  0.1186339E+00
        -11   -1    0    0    0    0  0.00000000000E+00  0.00000000000E+00  0.45593999997E+02  0.45594000000E+02  0.51100000000E-03 0.  1.
         11   -1    0    0    0    0 -0.00000000000E+00 -0.00000000000E+00 -0.45593999997E+02  0.45594000000E+02  0.51100000000E-03 0. -1.
    9900012    2    1    2    0    0 -0.82582960786E+00 -0.18012836935E+00 -0.82376350982E+00  0.90007734313E+02  0.89999995606E+02 0.  0.
        -12    1    1    2    0    0  0.82582960786E+00  0.18012836935E+00  0.82376350982E+00  0.11802656865E+01  0.00000000000E+00 0.  1.
         11    1    3    3    0    0  0.32596791779E+02 -0.12044299263E+02 -0.86712128260E+00  0.34761586249E+02  0.51100000000E-03 0. -1.
        -11    1    3    3    0    0  0.64872439961E+01 -0.71034623206E+01  0.48932178250E+01  0.10792918630E+02  0.51100000000E-03 0.  1.
        -12    1    3    3    0    0 -0.39909865383E+02  0.18967633214E+02 -0.48498600522E+01  0.44453229434E+02  0.00000000000E+00 0.  1.
</event>
<event>
 7    1  0.2641103E-015  0.9000770E+02  0.7816164E-02  0.1186339E+00
        -11   -1    0    0    0    0  0.00000000000E+00  0.00000000000E+00  0.45593999997E+02  0.45594000000E+02  0.51100000000E-03 0.  1.
         11   -1    0    0    0    0 -0.00000000000E+00 -0.00000000000E+00 -0.45593999997E+02  0.45594000000E+02  0.51100000000E-03 0. -1.
    9900012    2    1    2    0    0 -0.54621701430E+00 -0.61117929640E+00 -0.84924586909E+00  0.90007698469E+02  0.89999959288E+02 0.  0.
        -12    1    1    2    0    0  0.54621701430E+00  0.61117929640E+00  0.84924586909E+00  0.11803015315E+01  0.00000000000E+00 0.  1.
         11    1    3    3    0    0 -0.29554783157E+02 -0.89834908022E+01  0.23479389099E+02  0.38800386946E+02  0.51100000000E-03 0. -1.
        -11    1    3    3    0    0 -0.55426917413E+01 -0.53755104404E+01 -0.58252343784E+01  0.96721714242E+01  0.51100000000E-03 0.  1.
        -12    1    3    3    0    0  0.34551257884E+02  0.13747821946E+02 -0.18503400590E+02  0.41535140098E+02  0.00000000000E+00 0.  1.
</event>
<event>
 7    1  0.2641103E-015  0.9000771E+02  0.7816164E-02  0.1186339E+00
        -11   -1    0    0    0    0  0.00000000000E+00  0.00000000000E+00  0.45593999997E+02  0.45594000000E+02  0.51100000000E-03 0. -1.
         11   -1    0    0    0    0 -0.00000000000E+00 -0.00000000000E+00 -0.45593999997E+02  0.45594000000E+02  0.51100000000E-03 0.  1.
    9900012    2    1    2    0    0  0.11092415954E+01  0.21616760490E+00  0.34049854306E+00  0.90007709947E+02  0.89999970919E+02 0.  0.
        -12    1    1    2    0    0 -0.11092415954E+01 -0.21616760490E+00 -0.34049854306E+00  0.11802900526E+01  0.00000000000E+00 0.  1.
         11    1    3    3    0    0 -0.17637902527E+02  0.17806136924E+02  0.27186885480E+02  0.36976761081E+02  0.51100000000E-03 0. -1.
        -11    1    3    3    0    0 -0.10200842978E+02 -0.25244353421E+00 -0.49188176274E+00  0.10215814854E+02  0.51100000000E-03 0.  1.
        -12    1    3    3    0    0  0.28947987101E+02 -0.17337525784E+02 -0.26354505174E+02  0.42815134012E+02  0.00000000000E+00 0.  1.
</event>
<event>
 7    1  0.2641103E-015  0.9000779E+02  0.7816164E-02  0.1186339E+00
        -11   -1    0    0    0    0  0.00000000000E+00  0.00000000000E+00  0.45593999997E+02  0.45594000000E+02  0.51100000000E-03 0.  1.
         11   -1    0    0    0    0 -0.00000000000E+00 -0.00000000000E+00 -0.45593999997E+02  0.45594000000E+02  0.51100000000E-03 0. -1.
    9900012    2    1    2    0    0 -0.40225012337E+00  0.94522350339E+00 -0.58106728138E+00  0.90007791621E+02  0.90000053670E+02 0.  0.
        -12    1    1    2    0    0  0.40225012337E+00 -0.94522350339E+00  0.58106728138E+00  0.11802083793E+01  0.00000000000E+00 0.  1.
         11    1    3    3    0    0 -0.55765398975E+01  0.61930861080E+01  0.41992536887E+01  0.93319796706E+01  0.51100000000E-03 0. -1.
        -11    1    3    3    0    0 -0.18565513194E+02 -0.19265094794E+02  0.27403327579E+02  0.38298361848E+02  0.51100000000E-03 0.  1.
         12    1    3    3    0    0  0.23739802968E+02  0.14017232189E+02 -0.32183648549E+02  0.42377450102E+02  0.00000000000E+00 0. -1.
</event>
<event>
 7    1  0.2641103E-015  0.9000778E+02  0.7816164E-02  0.1186339E+00
        -11   -1    0    0    0    0  0.00000000000E+00  0.00000000000E+00  0.45593999997E+02  0.45594000000E+02  0.51100000000E-03 0. -1.
         11   -1    0    0    0    0 -0.00000000000E+00 -0.00000000000E+00 -0.45593999997E+02  0.45594000000E+02  0.51100000000E-03 0.  1.
    9900012    2    1    2    0    0  0.10888036220E+01 -0.68765196331E-01  0.45022143532E+00  0.90007779122E+02  0.90000041007E+02 0.  0.
        -12    1    1    2    0    0 -0.10888036220E+01  0.68765196331E-01 -0.45022143532E+00  0.11802208778E+01  0.00000000000E+00 0.  1.
         11    1    3    3    0    0  0.32955866532E+02 -0.94173051497E+01  0.15377920373E+02  0.37566676862E+02  0.51100000000E-03 0. -1.
        -11    1    3    3    0    0  0.34373487513E+01 -0.13264010908E+01  0.81424396647E+01  0.89372272124E+01  0.51100000000E-03 0.  1.
        -12    1    3    3    0    0 -0.35304411662E+02  0.10674941044E+02 -0.23070138602E+02  0.43503875048E+02  0.00000000000E+00 0.  1.
</event>
<event>
 7    1  0.2641103E-015  0.9000774E+02  0.7816164E-02  0.1186339E+00
        -11   -1    0    0    0    0  0.00000000000E+00  0.00000000000E+00  0.45593999997E+02  0.45594000000E+02  0.51100000000E-03 0. -1.
         11   -1    0    0    0    0 -0.00000000000E+00 -0.00000000000E+00 -0.45593999997E+02  0.45594000000E+02  0.51100000000E-03 0.  1.
    9900012    2    1    2    0    0  0.10211145490E+01 -0.55742553147E+00  0.19906539861E+00  0.90007735124E+02  0.89999996427E+02 0.  0.
        -12    1    1    2    0    0 -0.10211145490E+01  0.55742553147E+00 -0.19906539861E+00  0.11802648763E+01  0.00000000000E+00 0.  1.
         11    1    3    3    0    0 -0.15652901092E+02  0.96268938330E+01  0.33311338692E+02  0.38043865251E+02  0.51100000000E-03 0. -1.
        -11    1    3    3    0    0 -0.92446902862E+01 -0.65113908265E+01 -0.23112134216E+01  0.11541413116E+02  0.51100000000E-03 0.  1.
        -12    1    3    3    0    0  0.25918705928E+02 -0.36729285380E+01 -0.30801059872E+02  0.40422456757E+02  0.00000000000E+00 0.  1.
</event>
<event>
 7    1  0.2641103E-015  0.9000778E+02  0.7816164E-02  0.1186339E+00
        -11   -1    0    0    0    0  0.00000000000E+00  0.00000000000E+00  0.45593999997E+02  0.45594000000E+02  0.51100000000E-03 0. -1.
         11   -1    0    0    0    0 -0.00000000000E+00 -0.00000000000E+00 -0.45593999997E+02  0.45594000000E+02  0.51100000000E-03 0.  1.
    9900012    2    1    2    0    0 -0.42780393045E+00  0.37987252137E+00  0.10322834762E+01  0.90007776076E+02  0.90000037920E+02 0.  0.
        -12    1    1    2    0    0  0.42780393045E+00 -0.37987252137E+00 -0.10322834762E+01  0.11802239240E+01  0.00000000000E+00 0.  1.
         11    1    3    3    0    0  0.40934910390E+02  0.44501690484E+01  0.13743153139E+02  0.43409044583E+02  0.51100000000E-03 0. -1.
        -11    1    3    3    0    0  0.66499366965E+00  0.20489735499E-01 -0.32606682038E+01  0.33278512296E+01  0.51100000000E-03 0.  1.
        -12    1    3    3    0    0 -0.42027707990E+02 -0.40907862626E+01 -0.94502014589E+01  0.43270880263E+02  0.00000000000E+00 0.  1.
</event>
<event>
 7    1  0.2641103E-015  0.9000777E+02  0.7816164E-02  0.1186339E+00
        -11   -1    0    0    0    0  0.00000000000E+00  0.00000000000E+00  0.45593999997E+02  0.45594000000E+02  0.51100000000E-03 0.  1.
         11   -1    0    0    0    0 -0.00000000000E+00 -0.00000000000E+00 -0.45593999997E+02  0.45594000000E+02  0.51100000000E-03 0. -1.
    9900012    2    1    2    0    0 -0.75512881173E+00 -0.44591336290E+00 -0.78986231328E+00  0.90007770902E+02  0.90000032678E+02 0.  0.
        -12    1    1    2    0    0  0.75512881173E+00  0.44591336290E+00  0.78986231328E+00  0.11802290979E+01  0.00000000000E+00 0.  1.
         11    1    3    3    0    0  0.20960912353E+02  0.21139341575E+02 -0.22532101337E+02  0.37335334467E+02  0.51100000000E-03 0. -1.
        -11    1    3    3    0    0  0.20448256418E+01  0.87189005460E+01  0.12246430828E+01  0.90388212494E+01  0.51100000000E-03 0.  1.
        -12    1    3    3    0    0 -0.23760866806E+02 -0.30304155484E+02  0.20517595941E+02  0.43633615185E+02  0.00000000000E+00 0.  1.
</event>
<event>
 7    1  0.2641103E-015  0.9000780E+02  0.7816164E-02  0.1186339E+00
        -11   -1    0    0    0    0  0.00000000000E+00  0.00000000000E+00  0.45593999997E+02  0.45594000000E+02  0.51100000000E-03 0.  1.
         11   -1    0    0    0    0 -0.00000000000E+00 -0.00000000000E+00 -0.45593999997E+02  0.45594000000E+02  0.51100000000E-03 0. -1.
    9900012    2    1    2    0    0  0.64656568672E+00 -0.91597563789E+00 -0.36853824808E+00  0.90007797053E+02  0.90000059174E+02 0.  0.
        -12    1    1    2    0    0 -0.64656568672E+00  0.91597563789E+00  0.36853824808E+00  0.11802029473E+01  0.00000000000E+00 0.  1.
         11    1    3    3    0    0 -0.27422400895E+02 -0.21031558708E+01 -0.18720684908E+02  0.33269736686E+02  0.51100000000E-03 0. -1.
        -11    1    3    3    0    0 -0.12154019885E+02  0.46491479340E+01  0.19348080035E+01  0.13155921030E+02  0.51100000000E-03 0.  1.
        -12    1    3    3    0    0  0.40222986466E+02 -0.34619677011E+01  0.16417338656E+02  0.43582139337E+02  0.00000000000E+00 0.  1.
</event>
<event>
 7    1  0.2641103E-015  0.9000775E+02  0.7816164E-02  0.1186339E+00
        -11   -1    0    0    0    0  0.00000000000E+00  0.00000000000E+00  0.45593999997E+02  0.45594000000E+02  0.51100000000E-03 0.  1.
         11   -1    0    0    0    0 -0.00000000000E+00 -0.00000000000E+00 -0.45593999997E+02  0.45594000000E+02  0.51100000000E-03 0. -1.
    9900012    2    1    2    0    0 -0.74068885499E+00  0.87062819483E+00 -0.29391113631E+00  0.90007746981E+02  0.90000008441E+02 0.  0.
        -12    1    1    2    0    0  0.74068885499E+00 -0.87062819483E+00  0.29391113631E+00  0.11802530193E+01  0.00000000000E+00 0.  1.
         11    1    3    3    0    0  0.59175394185E+00 -0.27939707654E+01 -0.10247413238E+02  0.10637947344E+02  0.51100000000E-03 0. -1.
        -11    1    3    3    0    0 -0.11886144664E+02 -0.29729453069E+02  0.25617304105E+02  0.41004476397E+02  0.51100000000E-03 0.  1.
         12    1    3    3    0    0  0.10553701867E+02  0.33394052030E+02 -0.15663802003E+02  0.38365323239E+02  0.00000000000E+00 0. -1.
</event>
<event>
 7    1  0.2641103E-015  0.9000772E+02  0.7816164E-02  0.1186339E+00
        -11   -1    0    0    0    0  0.00000000000E+00  0.00000000000E+00  0.45593999997E+02  0.45594000000E+02  0.51100000000E-03 0.  1.
         11   -1    0    0    0    0 -0.00000000000E+00 -0.00000000000E+00 -0.45593999997E+02  0.45594000000E+02  0.51100000000E-03 0. -1.
    9900012    2    1    2    0    0  0.53547423240E+00  0.97546551036E+00  0.39345118128E+00  0.90007716370E+02  0.89999977426E+02 0.  0.
        -12    1    1    2    0    0 -0.53547423240E+00 -0.97546551036E+00 -0.39345118128E+00  0.11802836301E+01  0.00000000000E+00 0.  1.
         11    1    3    3    0    0  0.79315064720E+01  0.20291453288E+01 -0.19914371919E+01  0.84256778974E+01  0.51100000000E-03 0. -1.
        -11    1    3    3    0    0 -0.11409419435E+02 -0.62804015729E+00  0.41099112005E+02  0.42658015591E+02  0.51100000000E-03 0.  1.
         12    1    3    3    0    0  0.40133871956E+01 -0.42563966115E+00 -0.38714223632E+02  0.38924022882E+02  0.00000000000E+00 0. -1.
</event>
<event>
 7    1  0.2641103E-015  0.9000752E+02  0.7816164E-02  0.1186339E+00
        -11   -1    0    0    0    0  0.00000000000E+00  0.00000000000E+00  0.45593999997E+02  0.45594000000E+02  0.51100000000E-03 0. -1.
         11   -1    0    0    0    0 -0.00000000000E+00 -0.00000000000E+00 -0.45593999997E+02  0.45594000000E+02  0.51100000000E-03 0.  1.
    9900012    2    1    2    0    0  0.10355391587E+01 -0.50146357834E+00 -0.26403554528E+00  0.90007524740E+02  0.89999783267E+02 0.  0.
        -12    1    1    2    0    0 -0.10355391587E+01  0.50146357834E+00  0.26403554528E+00  0.11804752597E+01  0.00000000000E+00 0.  1.
         11    1    3    3    0    0 -0.72044934763E+01 -0.60384902705E+01  0.45239083351E+01  0.10432345752E+02  0.51100000000E-03 0. -1.
        -11    1    3    3    0    0 -0.28817711376E+02 -0.18701792517E+02  0.34762248990E+01  0.34529721576E+02  0.51100000000E-03 0.  1.
         12    1    3    3    0    0  0.37057744011E+02  0.24238819210E+02 -0.82641687794E+01  0.45045457412E+02  0.00000000000E+00 0. -1.
</event>
<event>
 7    1  0.2641103E-015  0.9000782E+02  0.7816164E-02  0.1186339E+00
        -11   -1    0    0    0    0  0.00000000000E+00  0.00000000000E+00  0.45593999997E+02  0.45594000000E+02  0.51100000000E-03 0.  1.
         11   -1    0    0    0    0 -0.00000000000E+00 -0.00000000000E+00 -0.45593999997E+02  0.45594000000E+02  0.51100000000E-03 0. -1.
    9900012    2    1    2    0    0  0.48392407784E+00 -0.79518735129E+00  0.72547980440E+00  0.90007819343E+02  0.90000081758E+02 0.  0.
        -12    1    1    2    0    0 -0.48392407784E+00  0.79518735129E+00 -0.72547980440E+00  0.11801806571E+01  0.00000000000E+00 0.  1.
         11    1    3    3    0    0 -0.35202717818E+02 -0.10109123087E+01 -0.21149440406E+02  0.41079826135E+02  0.51100000000E-03 0. -1.
        -11    1    3    3    0    0  0.66118938967E+01  0.10855400952E+02  0.49234909078E+01  0.13630760570E+02  0.51100000000E-03 0.  1.
        -12    1    3    3    0    0  0.29074748000E+02 -0.10639675995E+02  0.16951429303E+02  0.35297232638E+02  0.00000000000E+00 0.  1.
</event>
<event>
 7    1  0.2641103E-015  0.9000781E+02  0.7816164E-02  0.1186339E+00
        -11   -1    0    0    0    0  0.00000000000E+00  0.00000000000E+00  0.45593999997E+02  0.45594000000E+02  0.51100000000E-03 0.  1.
         11   -1    0    0    0    0 -0.00000000000E+00 -0.00000000000E+00 -0.45593999997E+02  0.45594000000E+02  0.51100000000E-03 0. -1.
    9900012    2    1    2    0    0 -0.49968467583E+00  0.57836709321E+00 -0.89925883101E+00  0.90007805222E+02  0.90000067451E+02 0.  0.
        -12    1    1    2    0    0  0.49968467583E+00 -0.57836709321E+00  0.89925883101E+00  0.11801947784E+01  0.00000000000E+00 0.  1.
         11    1    3    3    0    0  0.93861134531E+00 -0.23923948851E+02 -0.40260789356E+00  0.23945738937E+02  0.51100000000E-03 0. -1.
        -11    1    3    3    0    0  0.37305039634E+01 -0.13857637871E+02 -0.18466730721E+02  0.23387409668E+02  0.51100000000E-03 0.  1.
        -12    1    3    3    0    0 -0.51687999845E+01  0.38359953815E+02  0.17970079784E+02  0.42674656617E+02  0.00000000000E+00 0.  1.
</event>
<event>
 7    1  0.2641103E-015  0.9000775E+02  0.7816164E-02  0.1186339E+00
        -11   -1    0    0    0    0  0.00000000000E+00  0.00000000000E+00  0.45593999997E+02  0.45594000000E+02  0.51100000000E-03 0. -1.
         11   -1    0    0    0    0 -0.00000000000E+00 -0.00000000000E+00 -0.45593999997E+02  0.45594000000E+02  0.51100000000E-03 0.  1.
    9900012    2    1    2    0    0  0.11622211199E+01  0.43402718677E-01  0.20088998468E+00  0.90007746420E+02  0.90000007873E+02 0.  0.
        -12    1    1    2    0    0 -0.11622211199E+01 -0.43402718677E-01 -0.20088998468E+00  0.11802535802E+01  0.00000000000E+00 0.  1.
         11    1    3    3    0    0 -0.13706065426E+01 -0.11079845329E+02 -0.10013201338E+02  0.14996857541E+02  0.51100000000E-03 0. -1.
        -11    1    3    3    0    0  0.16209129180E+02  0.97725848625E+01 -0.28340799430E+02  0.34079908983E+02  0.51100000000E-03 0.  1.
         12    1    3    3    0    0 -0.13676301517E+02  0.13506631851E+01  0.38554890753E+02  0.40930979896E+02  0.00000000000E+00 0. -1.
</event>
<event>
 7    1  0.2641103E-015  0.9000771E+02  0.7816164E-02  0.1186339E+00
        -11   -1    0    0    0    0  0.00000000000E+00  0.00000000000E+00  0.45593999997E+02  0.45594000000E+02  0.51100000000E-03 0. -1.
         11   -1    0    0    0    0 -0.00000000000E+00 -0.00000000000E+00 -0.45593999997E+02  0.45594000000E+02  0.51100000000E-03 0.  1.
    9900012    2    1    2    0    0  0.38902370313E+00  0.11115337064E+01  0.79023225341E-01  0.90007707116E+02  0.89999968050E+02 0.  0.
        -12    1    1    2    0    0 -0.38902370313E+00 -0.11115337064E+01 -0.79023225341E-01  0.11802928840E+01  0.00000000000E+00 0.  1.
         11    1    3    3    0    0  0.42870118485E+01 -0.44405219256E+01  0.91753051035E+01  0.11058161220E+02  0.51100000000E-03 0. -1.
        -11    1    3    3    0    0 -0.33794593624E+02  0.19112055578E+02  0.11132909886E+02  0.40389192978E+02  0.51100000000E-03 0.  1.
         12    1    3    3    0    0  0.29896605479E+02 -0.13559999946E+02 -0.20229191764E+02  0.38560352918E+02  0.00000000000E+00 0. -1.
</event>
<event>
 7    1  0.2641103E-015  0.9000775E+02  0.7816164E-02  0.1186339E+00
        -11   -1    0    0    0    0  0.00000000000E+00  0.00000000000E+00  0.45593999997E+02  0.45594000000E+02  0.51100000000E-03 0.  1.
         11   -1    0    0    0    0 -0.00000000000E+00 -0.00000000000E+00 -0.45593999997E+02  0.45594000000E+02  0.51100000000E-03 0. -1.
    9900012    2    1    2    0    0  0.35746071470E+00 -0.26755039582E+00 -0.10925356550E+01  0.90007747682E+02  0.90000009151E+02 0.  0.
        -12    1    1    2    0    0 -0.35746071470E+00  0.26755039582E+00  0.10925356550E+01  0.11802523181E+01  0.00000000000E+00 0.  1.
         11    1    3    3    0    0 -0.90789232555E+01  0.42100115461E+01  0.26825867986E+01  0.10360855027E+02  0.51100000000E-03 0. -1.
        -11    1    3    3    0    0 -0.76495957940E+01 -0.39113311708E+02  0.46290799927E+01  0.40122261283E+02  0.51100000000E-03 0.  1.
         12    1    3    3    0    0  0.17085979764E+02  0.34635749766E+02 -0.84042024463E+01  0.39524631372E+02  0.00000000000E+00 0. -1.
</event>
<event>
 7    1  0.2641103E-015  0.9000772E+02  0.7816164E-02  0.1186339E+00
        -11   -1    0    0    0    0  0.00000000000E+00  0.00000000000E+00  0.45593999997E+02  0.45594000000E+02  0.51100000000E-03 0. -1.
         11   -1    0    0    0    0 -0.00000000000E+00 -0.00000000000E+00 -0.45593999997E+02  0.45594000000E+02  0.51100000000E-03 0.  1.
    9900012    2    1    2    0    0  0.48533106725E+00  0.99383740369E+00  0.41205855970E+00  0.90007724063E+02  0.89999985221E+02 0.  0.
        -12    1    1    2    0    0 -0.48533106725E+00 -0.99383740369E+00 -0.41205855970E+00  0.11802759366E+01  0.00000000000E+00 0.  1.
         11    1    3    3    0    0  0.24077748822E+02 -0.20041468956E+02  0.27813916710E+02  0.41892868477E+02  0.51100000000E-03 0. -1.
        -11    1    3    3    0    0  0.13236010511E+01  0.66714390077E+01  0.18952890698E+01  0.70606047259E+01  0.51100000000E-03 0.  1.
        -12    1    3    3    0    0 -0.24916018806E+02  0.14363867352E+02 -0.29297147220E+02  0.41054250860E+02  0.00000000000E+00 0.  1.
</event>
<event>
 7    1  0.2641103E-015  0.9000778E+02  0.7816164E-02  0.1186339E+00
        -11   -1    0    0    0    0  0.00000000000E+00  0.00000000000E+00  0.45593999997E+02  0.45594000000E+02  0.51100000000E-03 0. -1.
         11   -1    0    0    0    0 -0.00000000000E+00 -0.00000000000E+00 -0.45593999997E+02  0.45594000000E+02  0.51100000000E-03 0.  1.
    9900012    2    1    2    0    0  0.71358007697E+00  0.42789038106E+00  0.83703187743E+00  0.90007784313E+02  0.90000046266E+02 0.  0.
        -12    1    1    2    0    0 -0.71358007697E+00 -0.42789038106E+00 -0.83703187743E+00  0.11802156872E+01  0.00000000000E+00 0.  1.
         11    1    3    3    0    0  0.37780697837E+01  0.19343858602E+02  0.36154345131E+02  0.41177607374E+02  0.51100000000E-03 0. -1.
        -11    1    3    3    0    0  0.55914124490E+01  0.39366632300E+01 -0.13247205270E+01  0.69653496177E+01  0.51100000000E-03 0.  1.
        -12    1    3    3    0    0 -0.86559021558E+01 -0.22852631451E+02 -0.33992592726E+02  0.41864827321E+02  0.00000000000E+00 0.  1.
</event>
<event>
 7    1  0.2641103E-015  0.9000777E+02  0.7816164E-02  0.1186339E+00
        -11   -1    0    0    0    0  0.00000000000E+00  0.00000000000E+00  0.45593999997E+02  0.45594000000E+02  0.51100000000E-03 0. -1.
         11   -1    0    0    0    0 -0.00000000000E+00 -0.00000000000E+00 -0.45593999997E+02  0.45594000000E+02  0.51100000000E-03 0.  1.
    9900012    2    1    2    0    0  0.21683526683E+00 -0.10952953408E+01 -0.38242054888E+00  0.90007773372E+02  0.90000035181E+02 0.  0.
        -12    1    1    2    0    0 -0.21683526683E+00  0.10952953408E+01  0.38242054888E+00  0.11802266277E+01  0.00000000000E+00 0.  1.
         11    1    3    3    0    0  0.19440856729E+02  0.33731066046E+02 -0.32718726116E+01  0.39069641380E+02  0.51100000000E-03 0. -1.
        -11    1    3    3    0    0  0.85774552876E+01 -0.44266449794E+01  0.18756569813E+00  0.96541755804E+01  0.51100000000E-03 0.  1.
        -12    1    3    3    0    0 -0.27801476750E+02 -0.30399716407E+02  0.27018863646E+01  0.41283956412E+02  0.00000000000E+00 0.  1.
</event>
<event>
 7    1  0.2641103E-015  0.9000776E+02  0.7816164E-02  0.1186339E+00
        -11   -1    0    0    0    0  0.00000000000E+00  0.00000000000E+00  0.45593999997E+02  0.45594000000E+02  0.51100000000E-03 0.  1.
         11   -1    0    0    0    0 -0.00000000000E+00 -0.00000000000E+00 -0.45593999997E+02  0.45594000000E+02  0.51100000000E-03 0. -1.
    9900012    2    1    2    0    0 -0.15548316761E+00 -0.11356137945E+01 -0.28136320656E+00  0.90007763176E+02  0.90000024850E+02 0.  0.
        -12    1    1    2    0    0  0.15548316761E+00  0.11356137945E+01  0.28136320656E+00  0.11802368235E+01  0.00000000000E+00 0.  1.
         11    1    3    3    0    0  0.10942466111E+02 -0.22807201280E+01  0.60704234619E+00  0.11194094406E+02  0.51100000000E-03 0. -1.
        -11    1    3    3    0    0  0.17419476382E+02 -0.30915305401E+02  0.36198665453E+01  0.35669282296E+02  0.51100000000E-03 0.  1.
         12    1    3    3    0    0 -0.28517425661E+02  0.32060411735E+02 -0.45082720980E+01  0.43144386474E+02  0.00000000000E+00 0. -1.
</event>
<event>
 7    1  0.2641103E-015  0.9000675E+02  0.7816164E-02  0.1186341E+00
        -11   -1    0    0    0    0  0.00000000000E+00  0.00000000000E+00  0.45593999997E+02  0.45594000000E+02  0.51100000000E-03 0.  1.
         11   -1    0    0    0    0 -0.00000000000E+00 -0.00000000000E+00 -0.45593999997E+02  0.45594000000E+02  0.51100000000E-03 0. -1.
    9900012    2    1    2    0    0  0.52395003876E+00  0.29783614828E+00 -0.10159289909E+01  0.90006754162E+02  0.89999002512E+02 0.  0.
        -12    1    1    2    0    0 -0.52395003876E+00 -0.29783614828E+00  0.10159289909E+01  0.11812458376E+01  0.00000000000E+00 0.  1.
         11    1    3    3    0    0  0.24993402586E+01  0.16769067015E+01 -0.89104398337E+01  0.94050335515E+01  0.51100000000E-03 0. -1.
        -11    1    3    3    0    0  0.21001014077E+02 -0.28920481287E+02 -0.14218801744E+02  0.38465713999E+02  0.51100000000E-03 0.  1.
         12    1    3    3    0    0 -0.22976404297E+02  0.27541410733E+02  0.22113312587E+02  0.42136006612E+02  0.00000000000E+00 0. -1.
</event>
<event>
 7    1  0.2983874E-015  0.9000769E+02  0.7816164E-02  0.1186339E+00
        -11   -1    0    0    0    0  0.00000000000E+00  0.00000000000E+00  0.45593999997E+02  0.45594000000E+02  0.51100000000E-03 0.  1.
         11   -1    0    0    0    0 -0.00000000000E+00 -0.00000000000E+00 -0.45593999997E+02  0.45594000000E+02  0.51100000000E-03 0. -1.
    9900012    2    1    2    0    0 -0.72815703688E+00 -0.90562258495E+00 -0.20679619819E+00  0.90007690886E+02  0.89999951606E+02 0.  0.
        -12    1    1    2    0    0  0.72815703688E+00  0.90562258495E+00  0.20679619819E+00  0.11803091139E+01  0.00000000000E+00 0.  1.
         11    1    3    3    0    0  0.39934099658E+01  0.81592734994E+01 -0.32330992458E+01  0.96423025356E+01  0.51100000000E-03 0. -1.
        -11    1    3    3    0    0  0.20591836572E+02 -0.72853258628E+01  0.33945780217E+02  0.40366021616E+02  0.51100000000E-03 0.  1.
         12    1    3    3    0    0 -0.25313403574E+02 -0.17795702216E+01 -0.30919477170E+02  0.39999366734E+02  0.00000000000E+00 0. -1.
</event>
<event>
 7    1  0.2641103E-015  0.9000748E+02  0.7816164E-02  0.1186340E+00
        -11   -1    0    0    0    0  0.00000000000E+00  0.00000000000E+00  0.45593999997E+02  0.45594000000E+02  0.51100000000E-03 0.  1.
         11   -1    0    0    0    0 -0.00000000000E+00 -0.00000000000E+00 -0.45593999997E+02  0.45594000000E+02  0.51100000000E-03 0. -1.
    9900012    2    1    2    0    0 -0.11328124265E+01 -0.32855166621E+00 -0.49180522575E-01  0.90007479388E+02  0.89999737316E+02 0.  0.
        -12    1    1    2    0    0  0.11328124265E+01  0.32855166621E+00  0.49180522575E-01  0.11805206117E+01  0.00000000000E+00 0.  1.
         11    1    3    3    0    0  0.32363791466E+01 -0.56036134225E+01  0.51200746532E+01  0.82516542635E+01  0.51100000000E-03 0. -1.
        -11    1    3    3    0    0 -0.16807054913E+01 -0.38083617771E+02 -0.13173948536E+01  0.38143442987E+02  0.51100000000E-03 0.  1.
         12    1    3    3    0    0 -0.26884860817E+01  0.43358679527E+02 -0.38518603222E+01  0.43612382137E+02  0.00000000000E+00 0. -1.
</event>
<event>
 7    1  0.2641103E-015  0.9000778E+02  0.7816164E-02  0.1186339E+00
        -11   -1    0    0    0    0  0.00000000000E+00  0.00000000000E+00  0.45593999997E+02  0.45594000000E+02  0.51100000000E-03 0.  1.
         11   -1    0    0    0    0 -0.00000000000E+00 -0.00000000000E+00 -0.45593999997E+02  0.45594000000E+02  0.51100000000E-03 0. -1.
    9900012    2    1    2    0    0  0.47415401741E+00  0.53227546726E+00 -0.94062415539E+00  0.90007782644E+02  0.90000044575E+02 0.  0.
        -12    1    1    2    0    0 -0.47415401741E+00 -0.53227546726E+00  0.94062415539E+00  0.11802173558E+01  0.00000000000E+00 0.  1.
         11    1    3    3    0    0  0.28504478943E+01  0.17454084653E+02 -0.36364992049E+02  0.40437393230E+02  0.51100000000E-03 0. -1.
        -11    1    3    3    0    0  0.30517506969E+01  0.25824075880E+01 -0.37452375711E+01  0.54780303022E+01  0.51100000000E-03 0.  1.
        -12    1    3    3    0    0 -0.54280445738E+01 -0.19504216773E+02  0.39169605464E+02  0.44092359112E+02  0.00000000000E+00 0.  1.
</event>
<event>
 7    1  0.2641103E-015  0.9000770E+02  0.7816164E-02  0.1186339E+00
        -11   -1    0    0    0    0  0.00000000000E+00  0.00000000000E+00  0.45593999997E+02  0.45594000000E+02  0.51100000000E-03 0.  1.
         11   -1    0    0    0    0 -0.00000000000E+00 -0.00000000000E+00 -0.45593999997E+02  0.45594000000E+02  0.51100000000E-03 0. -1.
    9900012    2    1    2    0    0  0.10319228653E+01 -0.21457702403E+00  0.53121914665E+00  0.90007702630E+02  0.89999963505E+02 0.  0.
        -12    1    1    2    0    0 -0.10319228653E+01  0.21457702403E+00 -0.53121914665E+00  0.11802973697E+01  0.00000000000E+00 0.  1.
         11    1    3    3    0    0  0.65233743600E+01  0.11657095999E+02  0.30432464291E+00  0.13361695772E+02  0.51100000000E-03 0. -1.
        -11    1    3    3    0    0 -0.18018728622E+02 -0.61759914080E+01  0.34668713373E+02  0.39556758439E+02  0.51100000000E-03 0.  1.
         12    1    3    3    0    0  0.12527277127E+02 -0.56956816146E+01 -0.34441818869E+02  0.37089248419E+02  0.00000000000E+00 0. -1.
</event>
<event>
 7    1  0.2641103E-015  0.9000775E+02  0.7816164E-02  0.1186339E+00
        -11   -1    0    0    0    0  0.00000000000E+00  0.00000000000E+00  0.45593999997E+02  0.45594000000E+02  0.51100000000E-03 0.  1.
         11   -1    0    0    0    0 -0.00000000000E+00 -0.00000000000E+00 -0.45593999997E+02  0.45594000000E+02  0.51100000000E-03 0. -1.
    9900012    2    1    2    0    0  0.86959126536E+00  0.67550563552E+00 -0.42484246120E+00  0.90007750895E+02  0.90000012407E+02 0.  0.
        -12    1    1    2    0    0 -0.86959126536E+00 -0.67550563552E+00  0.42484246120E+00  0.11802491047E+01  0.00000000000E+00 0.  1.
         11    1    3    3    0    0  0.17631075516E+02 -0.48278052387E+01 -0.38149410147E+02  0.42302955241E+02  0.51100000000E-03 0. -1.
        -11    1    3    3    0    0  0.56442585909E+01  0.33405758047E+01  0.67155811534E+01  0.93870193479E+01  0.51100000000E-03 0.  1.
        -12    1    3    3    0    0 -0.22405742842E+02  0.21627350695E+01  0.31008986533E+02  0.38317776306E+02  0.00000000000E+00 0.  1.
</event>
<event>
 7    1  0.2641103E-015  0.9000773E+02  0.7816164E-02  0.1186339E+00
        -11   -1    0    0    0    0  0.00000000000E+00  0.00000000000E+00  0.45593999997E+02  0.45594000000E+02  0.51100000000E-03 0. -1.
         11   -1    0    0    0    0 -0.00000000000E+00 -0.00000000000E+00 -0.45593999997E+02  0.45594000000E+02  0.51100000000E-03 0.  1.
    9900012    2    1    2    0    0 -0.94267372272E+00 -0.39320873074E+00 -0.59142476934E+00  0.90007733034E+02  0.89999994310E+02 0.  0.
        -12    1    1    2    0    0  0.94267372272E+00  0.39320873074E+00  0.59142476934E+00  0.11802669661E+01  0.00000000000E+00 0.  1.
         11    1    3    3    0    0  0.14833893190E+02 -0.42605158873E+01 -0.15531390013E+02  0.21895672147E+02  0.51100000000E-03 0. -1.
        -11    1    3    3    0    0  0.99370421323E+01  0.27679735624E+02 -0.14028485355E+01  0.29442835373E+02  0.51100000000E-03 0.  1.
         12    1    3    3    0    0 -0.25713609045E+02 -0.23812428467E+02  0.16342813779E+02  0.38669225514E+02  0.00000000000E+00 0. -1.
</event>
<event>
 7    1  0.2641103E-015  0.9000769E+02  0.7816164E-02  0.1186339E+00
        -11   -1    0    0    0    0  0.00000000000E+00  0.00000000000E+00  0.45593999997E+02  0.45594000000E+02  0.51100000000E-03 0.  1.
         11   -1    0    0    0    0 -0.00000000000E+00 -0.00000000000E+00 -0.45593999997E+02  0.45594000000E+02  0.51100000000E-03 0. -1.
    9900012    2    1    2    0    0 -0.11762387064E+01  0.43747924348E-01 -0.87595093104E-01  0.90007693143E+02  0.89999953893E+02 0.  0.
        -12    1    1    2    0    0  0.11762387064E+01 -0.43747924348E-01  0.87595093104E-01  0.11803068566E+01  0.00000000000E+00 0.  1.
         11    1    3    3    0    0 -0.25928086788E+01  0.11238927274E+02 -0.29226040068E+02  0.31419700212E+02  0.51100000000E-03 0. -1.
        -11    1    3    3    0    0 -0.16776990044E+01 -0.51113543168E+01 -0.13955693988E+02  0.14956671149E+02  0.51100000000E-03 0.  1.
        -12    1    3    3    0    0  0.30942689768E+01 -0.60838250324E+01  0.43094138963E+02  0.43631321782E+02  0.00000000000E+00 0.  1.
</event>
<event>
 7    1  0.2641103E-015  0.9000777E+02  0.7816164E-02  0.1186339E+00
        -11   -1    0    0    0    0  0.00000000000E+00  0.00000000000E+00  0.45593999997E+02  0.45594000000E+02  0.51100000000E-03 0.  1.
         11   -1    0    0    0    0 -0.00000000000E+00 -0.00000000000E+00 -0.45593999997E+02  0.45594000000E+02  0.51100000000E-03 0. -1.
    9900012    2    1    2    0    0 -0.15101034053E+00  0.92296041281E-02 -0.11704958594E+01  0.90007767029E+02  0.90000028754E+02 0.  0.
        -12    1    1    2    0    0  0.15101034053E+00 -0.92296041281E-02  0.11704958594E+01  0.11802329708E+01  0.00000000000E+00 0.  1.
         11    1    3    3    0    0 -0.82412937258E+01 -0.41615969512E+01  0.29603901931E+01  0.96954485103E+01  0.51100000000E-03 0. -1.
        -11    1    3    3    0    0 -0.99189052816E+01  0.31963544949E+02 -0.24460161704E+02  0.41453014348E+02  0.51100000000E-03 0.  1.
         12    1    3    3    0    0  0.18009188667E+02 -0.27792718394E+02  0.20329275651E+02  0.38859304171E+02  0.00000000000E+00 0. -1.
</event>
<event>
 7    1  0.2641103E-015  0.9000771E+02  0.7816164E-02  0.1186339E+00
        -11   -1    0    0    0    0  0.00000000000E+00  0.00000000000E+00  0.45593999997E+02  0.45594000000E+02  0.51100000000E-03 0. -1.
         11   -1    0    0    0    0 -0.00000000000E+00 -0.00000000000E+00 -0.45593999997E+02  0.45594000000E+02  0.51100000000E-03 0.  1.
    9900012    2    1    2    0    0  0.53814906229E+00 -0.10461207126E+01  0.95492941906E-01  0.90007706875E+02  0.89999967806E+02 0.  0.
        -12    1    1    2    0    0 -0.53814906229E+00  0.10461207126E+01 -0.95492941906E-01  0.11802931248E+01  0.00000000000E+00 0.  1.
         11    1    3    3    0    0  0.20484098361E+02 -0.24855711803E+02  0.20375052553E+02  0.38112300661E+02  0.51100000000E-03 0. -1.
        -11    1    3    3    0    0  0.93713572240E+01 -0.36807857991E+00 -0.14662096650E+01  0.94925017305E+01  0.51100000000E-03 0.  1.
        -12    1    3    3    0    0 -0.29317306523E+02  0.24177669670E+02 -0.18813349946E+02  0.42402904483E+02  0.00000000000E+00 0.  1.
</event>
<event>
 7    1  0.2641103E-015  0.9000781E+02  0.7816164E-02  0.1186339E+00
        -11   -1    0    0    0    0  0.00000000000E+00  0.00000000000E+00  0.45593999997E+02  0.45594000000E+02  0.51100000000E-03 0.  1.
         11   -1    0    0    0    0 -0.00000000000E+00 -0.00000000000E+00 -0.45593999997E+02  0.45594000000E+02  0.51100000000E-03 0. -1.
    9900012    2    1    2    0    0  0.65809483704E+00  0.84735056319E+00 -0.49169457790E+00  0.90007807071E+02  0.90000069324E+02 0.  0.
        -12    1    1    2    0    0 -0.65809483704E+00 -0.84735056319E+00  0.49169457790E+00  0.11801929289E+01  0.00000000000E+00 0.  1.
         11    1    3    3    0    0 -0.35070863391E+02  0.11297921031E+02 -0.77126506513E+01  0.37644301813E+02  0.51100000000E-03 0. -1.
        -11    1    3    3    0    0 -0.31228853949E+00  0.84946919079E+00 -0.10572401111E+02  0.10611069105E+02  0.51100000000E-03 0.  1.
        -12    1    3    3    0    0  0.36041246768E+02 -0.11300039659E+02  0.17793357184E+02  0.41752436154E+02  0.00000000000E+00 0.  1.
</event>
<event>
 7    1  0.2641103E-015  0.9000774E+02  0.7816164E-02  0.1186339E+00
        -11   -1    0    0    0    0  0.00000000000E+00  0.00000000000E+00  0.45593999997E+02  0.45594000000E+02  0.51100000000E-03 0.  1.
         11   -1    0    0    0    0 -0.00000000000E+00 -0.00000000000E+00 -0.45593999997E+02  0.45594000000E+02  0.51100000000E-03 0. -1.
    9900012    2    1    2    0    0 -0.63448607609E+00 -0.75285655354E+00  0.65088362647E+00  0.90007739408E+02  0.90000000768E+02 0.  0.
        -12    1    1    2    0    0  0.63448607609E+00  0.75285655354E+00 -0.65088362647E+00  0.11802605925E+01  0.00000000000E+00 0.  1.
         11    1    3    3    0    0 -0.25660121151E+02  0.92635197628E+01 -0.26914929931E+02  0.38323205364E+02  0.51100000000E-03 0. -1.
        -11    1    3    3    0    0  0.14744481432E+01  0.80167327902E+00 -0.77217934890E+01  0.79020739253E+01  0.51100000000E-03 0.  1.
        -12    1    3    3    0    0  0.23551186932E+02 -0.10818049595E+02  0.35287607047E+02  0.43782460118E+02  0.00000000000E+00 0.  1.
</event>
<event>
 7    1  0.2641103E-015  0.9000778E+02  0.7816164E-02  0.1186339E+00
        -11   -1    0    0    0    0  0.00000000000E+00  0.00000000000E+00  0.45593999997E+02  0.45594000000E+02  0.51100000000E-03 0. -1.
         11   -1    0    0    0    0 -0.00000000000E+00 -0.00000000000E+00 -0.45593999997E+02  0.45594000000E+02  0.51100000000E-03 0.  1.
    9900012    2    1    2    0    0  0.55014029745E+00 -0.49465024497E+00  0.91956149062E+00  0.90007776908E+02  0.90000038763E+02 0.  0.
        -12    1    1    2    0    0 -0.55014029745E+00  0.49465024497E+00 -0.91956149062E+00  0.11802230919E+01  0.00000000000E+00 0.  1.
         11    1    3    3    0    0  0.11663703864E+02 -0.21712794997E+02 -0.31197150182E+02  0.39758642257E+02  0.51100000000E-03 0. -1.
        -11    1    3    3    0    0 -0.92185156311E+01  0.23712679164E+01 -0.33089332179E+01  0.10077349913E+02  0.51100000000E-03 0.  1.
        -12    1    3    3    0    0 -0.18950479351E+01  0.18846876835E+02  0.35425644890E+02  0.40171784738E+02  0.00000000000E+00 0.  1.
</event>
<event>
 7    1  0.2641103E-015  0.9000775E+02  0.7816164E-02  0.1186339E+00
        -11   -1    0    0    0    0  0.00000000000E+00  0.00000000000E+00  0.45593999997E+02  0.45594000000E+02  0.51100000000E-03 0.  1.
         11   -1    0    0    0    0 -0.00000000000E+00 -0.00000000000E+00 -0.45593999997E+02  0.45594000000E+02  0.51100000000E-03 0. -1.
    9900012    2    1    2    0    0 -0.77803045919E+00  0.59587397769E-01 -0.88549454154E+00  0.90007753146E+02  0.90000014687E+02 0.  0.
        -12    1    1    2    0    0  0.77803045919E+00 -0.59587397769E-01  0.88549454154E+00  0.11802468540E+01  0.00000000000E+00 0.  1.
         11    1    3    3    0    0 -0.75662257364E+01 -0.26291143053E+02  0.70790393447E+00  0.27367372968E+02  0.51100000000E-03 0. -1.
        -11    1    3    3    0    0 -0.12357684482E+02 -0.20511599218E+01  0.18937772095E+02  0.22705920703E+02  0.51100000000E-03 0.  1.
        -12    1    3    3    0    0  0.19145879759E+02  0.28401890373E+02 -0.20531170571E+02  0.39934459475E+02  0.00000000000E+00 0.  1.
</event>
<event>
 7    1  0.2641103E-015  0.9000694E+02  0.7816164E-02  0.1186341E+00
        -11   -1    0    0    0    0  0.00000000000E+00  0.00000000000E+00  0.45593999997E+02  0.45594000000E+02  0.51100000000E-03 0.  1.
         11   -1    0    0    0    0 -0.00000000000E+00 -0.00000000000E+00 -0.45593999997E+02  0.45594000000E+02  0.51100000000E-03 0. -1.
    9900012    2    1    2    0    0 -0.97912812731E+00 -0.26855435582E+00 -0.60339105757E+00  0.90006943651E+02  0.89999194503E+02 0.  0.
        -12    1    1    2    0    0  0.97912812731E+00  0.26855435582E+00  0.60339105757E+00  0.11810563492E+01  0.00000000000E+00 0.  1.
         11    1    3    3    0    0  0.30898096719E+02  0.10657648238E+02  0.25770690506E+02  0.41622185625E+02  0.51100000000E-03 0. -1.
        -11    1    3    3    0    0 -0.76279074358E+01 -0.66989084938E+01  0.24873733803E+01  0.10452146835E+02  0.51100000000E-03 0.  1.
        -12    1    3    3    0    0 -0.24249317411E+02 -0.42272941005E+01 -0.28861454944E+02  0.37932611191E+02  0.00000000000E+00 0.  1.
</event>
<event>
 7    1  0.2641103E-015  0.9000769E+02  0.7816164E-02  0.1186339E+00
        -11   -1    0    0    0    0  0.00000000000E+00  0.00000000000E+00  0.45593999997E+02  0.45594000000E+02  0.51100000000E-03 0. -1.
         11   -1    0    0    0    0 -0.00000000000E+00 -0.00000000000E+00 -0.45593999997E+02  0.45594000000E+02  0.51100000000E-03 0.  1.
    9900012    2    1    2    0    0  0.41784623922E-01  0.11213441651E+01 -0.36603784844E+00  0.90007685467E+02  0.89999946115E+02 0.  0.
        -12    1    1    2    0    0 -0.41784623922E-01 -0.11213441651E+01  0.36603784844E+00  0.11803145335E+01  0.00000000000E+00 0.  1.
         11    1    3    3    0    0  0.14223814436E+02 -0.63642900811E+01 -0.57678248832E+01  0.16615922769E+02  0.51100000000E-03 0. -1.
        -11    1    3    3    0    0  0.28646498141E+01 -0.26305500962E+02 -0.14978098741E+02  0.30406069157E+02  0.51100000000E-03 0.  1.
         12    1    3    3    0    0 -0.17046679626E+02  0.33791135208E+02  0.20379885776E+02  0.42985693540E+02  0.00000000000E+00 0. -1.
</event>
<event>
 7    1  0.2778731E-015  0.9000772E+02  0.7816164E-02  0.1186339E+00
        -11   -1    0    0    0    0  0.00000000000E+00  0.00000000000E+00  0.45593999997E+02  0.45594000000E+02  0.51100000000E-03 0.  1.
         11   -1    0    0    0    0 -0.00000000000E+00 -0.00000000000E+00 -0.45593999997E+02  0.45594000000E+02  0.51100000000E-03 0. -1.
    9900012    2    1    2    0    0 -0.89806136449E+00  0.33008055492E+00 -0.69108385985E+00  0.90007718555E+02  0.89999979640E+02 0.  0.
        -12    1    1    2    0    0  0.89806136449E+00 -0.33008055492E+00  0.69108385985E+00  0.11802814446E+01  0.00000000000E+00 0.  1.
         11    1    3    3    0    0 -0.10246835841E+01  0.89407008394E+01  0.20653857673E+01  0.92331969856E+01  0.51100000000E-03 0. -1.
        -11    1    3    3    0    0 -0.67861933622E+01 -0.18837956639E+02  0.35400269381E+02  0.40670629491E+02  0.51100000000E-03 0.  1.
         12    1    3    3    0    0  0.69128155818E+01  0.10227336355E+02 -0.38156739008E+02  0.40103892079E+02  0.00000000000E+00 0. -1.
</event>
<event>
 7    1  0.2641103E-015  0.9000772E+02  0.7816164E-02  0.1186339E+00
        -11   -1    0    0    0    0  0.00000000000E+00  0.00000000000E+00  0.45593999997E+02  0.45594000000E+02  0.51100000000E-03 0. -1.
         11   -1    0    0    0    0 -0.00000000000E+00 -0.00000000000E+00 -0.45593999997E+02  0.45594000000E+02  0.51100000000E-03 0.  1.
    9900012    2    1    2    0    0  0.28139463945E-01 -0.58477213203E+00  0.10248491882E+01  0.90007717773E+02  0.89999978848E+02 0.  0.
        -12    1    1    2    0    0 -0.28139463945E-01  0.58477213203E+00 -0.10248491882E+01  0.11802822266E+01  0.00000000000E+00 0.  1.
         11    1    3    3    0    0  0.30562651423E+02 -0.16123571086E+02  0.17302712290E+02  0.38644909878E+02  0.51100000000E-03 0. -1.
        -11    1    3    3    0    0  0.74520269513E+01  0.49007776435E+01 -0.68672376481E+00  0.89454970227E+01  0.51100000000E-03 0.  1.
        -12    1    3    3    0    0 -0.37986538911E+02  0.10638021311E+02 -0.15591139337E+02  0.42417310873E+02  0.00000000000E+00 0.  1.
</event>
<event>
 7    1  0.2641103E-015  0.9000773E+02  0.7816164E-02  0.1186339E+00
        -11   -1    0    0    0    0  0.00000000000E+00  0.00000000000E+00  0.45593999997E+02  0.45594000000E+02  0.51100000000E-03 0. -1.
         11   -1    0    0    0    0 -0.00000000000E+00 -0.00000000000E+00 -0.45593999997E+02  0.45594000000E+02  0.51100000000E-03 0.  1.
    9900012    2    1    2    0    0  0.11356295670E+01  0.31254533576E+00 -0.75437013722E-01  0.90007733147E+02  0.89999994425E+02 0.  0.
        -12    1    1    2    0    0 -0.11356295670E+01 -0.31254533576E+00  0.75437013722E-01  0.11802668526E+01  0.00000000000E+00 0.  1.
         11    1    3    3    0    0 -0.30524071802E+02 -0.68593815122E+01  0.18688211408E+02  0.36441999396E+02  0.51100000000E-03 0. -1.
        -11    1    3    3    0    0 -0.25112703396E+01 -0.38549773732E+01  0.76940116503E+01  0.89646608861E+01  0.51100000000E-03 0.  1.
        -12    1    3    3    0    0  0.34170971709E+02  0.11026904221E+02 -0.26457660072E+02  0.44601072865E+02  0.00000000000E+00 0.  1.
</event>
<event>
 7    1  0.2641103E-015  0.9000775E+02  0.7816164E-02  0.1186339E+00
        -11   -1    0    0    0    0  0.00000000000E+00  0.00000000000E+00  0.45593999997E+02  0.45594000000E+02  0.51100000000E-03 0.  1.
         11   -1    0    0    0    0 -0.00000000000E+00 -0.00000000000E+00 -0.45593999997E+02  0.45594000000E+02  0.51100000000E-03 0. -1.
    9900012    2    1    2    0    0 -0.94423865606E+00  0.68947157379E+00  0.16137134166E+00  0.90007746468E+02  0.90000007921E+02 0.  0.
        -12    1    1    2    0    0  0.94423865606E+00 -0.68947157379E+00 -0.16137134166E+00  0.11802535323E+01  0.00000000000E+00 0.  1.
         11    1    3    3    0    0  0.11570846897E+02 -0.29828093249E+02 -0.24807343172E+02  0.40484613377E+02  0.51100000000E-03 0. -1.
        -11    1    3    3    0    0  0.14683797106E+01 -0.33494411488E+01  0.86923104226E+01  0.94303316871E+01  0.51100000000E-03 0.  1.
        -12    1    3    3    0    0 -0.13983465263E+02  0.33867005972E+02  0.16276404091E+02  0.40092801404E+02  0.00000000000E+00 0.  1.
</event>
<event>
 7    1  0.2641103E-015  0.9000765E+02  0.7816164E-02  0.1186339E+00
        -11   -1    0    0    0    0  0.00000000000E+00  0.00000000000E+00  0.45593999997E+02  0.45594000000E+02  0.51100000000E-03 0.  1.
         11   -1    0    0    0    0 -0.00000000000E+00 -0.00000000000E+00 -0.45593999997E+02  0.45594000000E+02  0.51100000000E-03 0. -1.
    9900012    2    1    2    0    0 -0.25874592416E+00  0.25104197811E+00 -0.11239409861E+01  0.90007654767E+02  0.89999915010E+02 0.  0.
        -12    1    1    2    0    0  0.25874592416E+00 -0.25104197811E+00  0.11239409861E+01  0.11803452327E+01  0.00000000000E+00 0.  1.
         11    1    3    3    0    0 -0.14090070757E+02  0.11993088629E+02 -0.37296057821E+02  0.41633642623E+02  0.51100000000E-03 0. -1.
        -11    1    3    3    0    0  0.12140473790E+01 -0.10051991916E+02  0.10425343287E+00  0.10125577592E+02  0.51100000000E-03 0.  1.
        -12    1    3    3    0    0  0.12617277454E+02 -0.16900547345E+01  0.36067863402E+02  0.38248434553E+02  0.00000000000E+00 0.  1.
</event>
<event>
 7    1  0.2641103E-015  0.9000782E+02  0.7816164E-02  0.1186339E+00
        -11   -1    0    0    0    0  0.00000000000E+00  0.00000000000E+00  0.45593999997E+02  0.45594000000E+02  0.51100000000E-03 0. -1.
         11   -1    0    0    0    0 -0.00000000000E+00 -0.00000000000E+00 -0.45593999997E+02  0.45594000000E+02  0.51100000000E-03 0.  1.
    9900012    2    1    2    0    0 -0.37065471041E+00 -0.11041143928E+01  0.19074233093E+00  0.90007815208E+02  0.90000077569E+02 0.  0.
        -12    1    1    2    0    0  0.37065471041E+00  0.11041143928E+01 -0.19074233093E+00  0.11801847921E+01  0.00000000000E+00 0.  1.
         11    1    3    3    0    0 -0.31604440316E+01  0.47975181269E+01 -0.73173678169E+01  0.93031424091E+01  0.51100000000E-03 0. -1.
        -11    1    3    3    0    0  0.18502992530E+02  0.12509817520E+02 -0.29182718638E+02  0.36748977324E+02  0.51100000000E-03 0.  1.
         12    1    3    3    0    0 -0.15713203209E+02 -0.18411450040E+02  0.36690828786E+02  0.43955695475E+02  0.00000000000E+00 0. -1.
</event>
<event>
 7    1  0.2641103E-015  0.9000756E+02  0.7816164E-02  0.1186339E+00
        -11   -1    0    0    0    0  0.00000000000E+00  0.00000000000E+00  0.45593999997E+02  0.45594000000E+02  0.51100000000E-03 0.  1.
         11   -1    0    0    0    0 -0.00000000000E+00 -0.00000000000E+00 -0.45593999997E+02  0.45594000000E+02  0.51100000000E-03 0. -1.
    9900012    2    1    2    0    0  0.11090248680E+01  0.39723901465E+00 -0.75570214188E-01  0.90007556926E+02  0.89999815878E+02 0.  0.
        -12    1    1    2    0    0 -0.11090248680E+01 -0.39723901465E+00  0.75570214188E-01  0.11804430735E+01  0.00000000000E+00 0.  1.
         11    1    3    3    0    0  0.32630290870E+02 -0.81999328028E+01  0.22757105510E+02  0.40618476481E+02  0.51100000000E-03 0. -1.
        -11    1    3    3    0    0 -0.39705269841E+01 -0.92174328294E+01 -0.12400444476E+01  0.10112559666E+02  0.51100000000E-03 0.  1.
        -12    1    3    3    0    0 -0.27550739018E+02  0.17814604647E+02 -0.21592631276E+02  0.39276520780E+02  0.00000000000E+00 0.  1.
</event>
<event>
 7    1  0.2641103E-015  0.9000771E+02  0.7816164E-02  0.1186339E+00
        -11   -1    0    0    0    0  0.00000000000E+00  0.00000000000E+00  0.45593999997E+02  0.45594000000E+02  0.51100000000E-03 0.  1.
         11   -1    0    0    0    0 -0.00000000000E+00 -0.00000000000E+00 -0.45593999997E+02  0.45594000000E+02  0.51100000000E-03 0. -1.
    9900012    2    1    2    0    0  0.75775199707E+00  0.54053936252E+00 -0.72574681800E+00  0.90007712181E+02  0.89999973182E+02 0.  0.
        -12    1    1    2    0    0 -0.75775199707E+00 -0.54053936252E+00  0.72574681800E+00  0.11802878189E+01  0.00000000000E+00 0.  1.
         11    1    3    3    0    0  0.12954782767E+01  0.82981840038E+01  0.45086553159E+01  0.95323708880E+01  0.51100000000E-03 0. -1.
        -11    1    3    3    0    0  0.27369452149E+02 -0.24676238186E+02  0.17406831930E+02  0.40755385411E+02  0.51100000000E-03 0.  1.
         12    1    3    3    0    0 -0.27907178428E+02  0.16918593544E+02 -0.22641234063E+02  0.39719955882E+02  0.00000000000E+00 0. -1.
</event>
<event>
 7    1  0.2641103E-015  0.9000778E+02  0.7816164E-02  0.1186339E+00
        -11   -1    0    0    0    0  0.00000000000E+00  0.00000000000E+00  0.45593999997E+02  0.45594000000E+02  0.51100000000E-03 0.  1.
         11   -1    0    0    0    0 -0.00000000000E+00 -0.00000000000E+00 -0.45593999997E+02  0.45594000000E+02  0.51100000000E-03 0. -1.
    9900012    2    1    2    0    0 -0.11667682143E+01 -0.15409095321E+00  0.88477865810E-01  0.90007779503E+02  0.90000041393E+02 0.  0.
        -12    1    1    2    0    0  0.11667682143E+01  0.15409095321E+00 -0.88477865810E-01  0.11802204966E+01  0.00000000000E+00 0.  1.
         11    1    3    3    0    0  0.38113715290E+01  0.10067057369E+02  0.11623575936E+01  0.10826969680E+02  0.51100000000E-03 0. -1.
        -11    1    3    3    0    0 -0.59665185403E+01 -0.16893546114E+02  0.36683916973E+02  0.40825249645E+02  0.51100000000E-03 0.  1.
         12    1    3    3    0    0  0.98837879705E+00  0.66723977911E+01 -0.37757796701E+02  0.38355560179E+02  0.00000000000E+00 0. -1.
</event>
<event>
 7    1  0.2641103E-015  0.9000772E+02  0.7816164E-02  0.1186339E+00
        -11   -1    0    0    0    0  0.00000000000E+00  0.00000000000E+00  0.45593999997E+02  0.45594000000E+02  0.51100000000E-03 0. -1.
         11   -1    0    0    0    0 -0.00000000000E+00 -0.00000000000E+00 -0.45593999997E+02  0.45594000000E+02  0.51100000000E-03 0.  1.
    9900012    2    1    2    0    0  0.47491401176E+00 -0.44137525295E+00  0.98626102250E+00  0.90007717730E+02  0.89999978804E+02 0.  0.
        -12    1    1    2    0    0 -0.47491401176E+00  0.44137525295E+00 -0.98626102250E+00  0.11802822700E+01  0.00000000000E+00 0.  1.
         11    1    3    3    0    0 -0.37284281871E+01  0.26815788207E+01  0.11485446214E+02  0.12369620718E+02  0.51100000000E-03 0. -1.
        -11    1    3    3    0    0 -0.70909369141E+01  0.12706109918E+02  0.29649895433E+02  0.33027911151E+02  0.51100000000E-03 0.  1.
        -12    1    3    3    0    0  0.11294279113E+02 -0.15829063992E+02 -0.40149080624E+02  0.44610185861E+02  0.00000000000E+00 0.  1.
</event>
<event>
 7    1  0.2641103E-015  0.9000780E+02  0.7816164E-02  0.1186339E+00
        -11   -1    0    0    0    0  0.00000000000E+00  0.00000000000E+00  0.45593999997E+02  0.45594000000E+02  0.51100000000E-03 0.  1.
         11   -1    0    0    0    0 -0.00000000000E+00 -0.00000000000E+00 -0.45593999997E+02  0.45594000000E+02  0.51100000000E-03 0. -1.
    9900012    2    1    2    0    0  0.44339453934E+00  0.64096025086E+00 -0.88625707116E+00  0.90007796476E+02  0.90000058590E+02 0.  0.
        -12    1    1    2    0    0 -0.44339453934E+00 -0.64096025086E+00  0.88625707116E+00  0.11802035235E+01  0.00000000000E+00 0.  1.
         11    1    3    3    0    0  0.91778082628E+01 -0.30410206167E+02  0.78440335613E+01  0.32719133033E+02  0.51100000000E-03 0. -1.
        -11    1    3    3    0    0  0.10739467416E+02 -0.76711447059E+01 -0.33192254830E+01  0.13608816243E+02  0.51100000000E-03 0.  1.
        -12    1    3    3    0    0 -0.19473881139E+02  0.38722311124E+02 -0.54110651494E+01  0.43679847201E+02  0.00000000000E+00 0.  1.
</event>
<event>
 7    1  0.2641103E-015  0.9000771E+02  0.7816164E-02  0.1186339E+00
        -11   -1    0    0    0    0  0.00000000000E+00  0.00000000000E+00  0.45593999997E+02  0.45594000000E+02  0.51100000000E-03 0. -1.
         11   -1    0    0    0    0 -0.00000000000E+00 -0.00000000000E+00 -0.45593999997E+02  0.45594000000E+02  0.51100000000E-03 0.  1.
    9900012    2    1    2    0    0  0.73936024548E+00  0.16318289627E+00  0.90543467298E+00  0.90007705894E+02  0.89999966812E+02 0.  0.
        -12    1    1    2    0    0 -0.73936024548E+00 -0.16318289627E+00 -0.90543467298E+00  0.11802941063E+01  0.00000000000E+00 0.  1.
         11    1    3    3    0    0 -0.72982080070E+01  0.20900584380E+01 -0.68052115526E+01  0.10195248350E+02  0.51100000000E-03 0. -1.
        -11    1    3    3    0    0  0.13723948400E+02 -0.32719425200E+02 -0.17546464058E+02  0.39582647035E+02  0.51100000000E-03 0.  1.
         12    1    3    3    0    0 -0.56863801476E+01  0.30792549659E+02  0.25257110283E+02  0.40229810508E+02  0.00000000000E+00 0. -1.
</event>
<event>
 7    1  0.2641103E-015  0.9000772E+02  0.7816164E-02  0.1186339E+00
        -11   -1    0    0    0    0  0.00000000000E+00  0.00000000000E+00  0.45593999997E+02  0.45594000000E+02  0.51100000000E-03 0.  1.
         11   -1    0    0    0    0 -0.00000000000E+00 -0.00000000000E+00 -0.45593999997E+02  0.45594000000E+02  0.51100000000E-03 0. -1.
    9900012    2    1    2    0    0  0.56603242960E-01 -0.10408793453E+01 -0.55355358815E+00  0.90007722357E+02  0.89999983493E+02 0.  0.
        -12    1    1    2    0    0 -0.56603242960E-01  0.10408793453E+01  0.55355358815E+00  0.11802776425E+01  0.00000000000E+00 0.  1.
         11    1    3    3    0    0  0.95701093154E+01 -0.16069867013E+01  0.53575525738E+01  0.11084798979E+02  0.51100000000E-03 0. -1.
        -11    1    3    3    0    0  0.12927149738E+02 -0.21393773720E+02  0.24651036421E+02  0.35106671036E+02  0.51100000000E-03 0.  1.
         12    1    3    3    0    0 -0.22440655811E+02  0.21959881076E+02 -0.30562142583E+02  0.43816252342E+02  0.00000000000E+00 0. -1.
</event>
<event>
 7    1  0.2641103E-015  0.9000771E+02  0.7816164E-02  0.1186339E+00
        -11   -1    0    0    0    0  0.00000000000E+00  0.00000000000E+00  0.45593999997E+02  0.45594000000E+02  0.51100000000E-03 0.  1.
         11   -1    0    0    0    0 -0.00000000000E+00 -0.00000000000E+00 -0.45593999997E+02  0.45594000000E+02  0.51100000000E-03 0. -1.
    9900012    2    1    2    0    0 -0.10629711589E+01  0.31802873277E-01 -0.51201333354E+00  0.90007713272E+02  0.89999974287E+02 0.  0.
        -12    1    1    2    0    0  0.10629711589E+01 -0.31802873277E-01  0.51201333354E+00  0.11802867284E+01  0.00000000000E+00 0.  1.
         11    1    3    3    0    0  0.37727575464E+02 -0.10092385136E+01 -0.22408312677E+02  0.43892151805E+02  0.51100000000E-03 0. -1.
        -11    1    3    3    0    0 -0.55923188440E+01  0.86765895393E+00  0.87247503654E+01  0.10399429374E+02  0.51100000000E-03 0.  1.
        -12    1    3    3    0    0 -0.33198227779E+02  0.17338243294E+00  0.13171548978E+02  0.35716132092E+02  0.00000000000E+00 0.  1.
</event>
<event>
 7    1  0.2641103E-015  0.9000780E+02  0.7816164E-02  0.1186339E+00
        -11   -1    0    0    0    0  0.00000000000E+00  0.00000000000E+00  0.45593999997E+02  0.45594000000E+02  0.51100000000E-03 0.  1.
         11   -1    0    0    0    0 -0.00000000000E+00 -0.00000000000E+00 -0.45593999997E+02  0.45594000000E+02  0.51100000000E-03 0. -1.
    9900012    2    1    2    0    0 -0.88898541086E+00 -0.68245925402E+00 -0.36988646831E+00  0.90007804383E+02  0.90000066601E+02 0.  0.
        -12    1    1    2    0    0  0.88898541086E+00  0.68245925402E+00  0.36988646831E+00  0.11801956166E+01  0.00000000000E+00 0.  1.
         11    1    3    3    0    0 -0.28122131059E+02 -0.23526028857E+02 -0.71158776264E+01  0.37349216909E+02  0.51100000000E-03 0. -1.
        -11    1    3    3    0    0 -0.67073237806E+01 -0.49663698368E+01  0.10479890508E+01  0.84113793735E+01  0.51100000000E-03 0.  1.
        -12    1    3    3    0    0  0.33940469429E+02  0.27809939439E+02  0.56980021073E+01  0.44247208101E+02  0.00000000000E+00 0.  1.
</event>
<event>
 7    1  0.2641103E-015  0.9000737E+02  0.7816164E-02  0.1186340E+00
        -11   -1    0    0    0    0  0.00000000000E+00  0.00000000000E+00  0.45593999997E+02  0.45594000000E+02  0.51100000000E-03 0.  1.
         11   -1    0    0    0    0 -0.00000000000E+00 -0.00000000000E+00 -0.45593999997E+02  0.45594000000E+02  0.51100000000E-03 0. -1.
    9900012    2    1    2    0    0  0.10412088778E+01  0.42007930716E+00 -0.36510242818E+00  0.90007372059E+02  0.89999628570E+02 0.  0.
        -12    1    1    2    0    0 -0.10412088778E+01 -0.42007930716E+00  0.36510242818E+00  0.11806279408E+01  0.00000000000E+00 0.  1.
         11    1    3    3    0    0 -0.79965063088E+01 -0.21494464862E+02 -0.31401357384E+02  0.38884461918E+02  0.51100000000E-03 0. -1.
        -11    1    3    3    0    0 -0.46698650552E+01 -0.68494757193E+01  0.34576066616E+01  0.89820933724E+01  0.51100000000E-03 0.  1.
        -12    1    3    3    0    0  0.13707580242E+02  0.28764019888E+02  0.27578648294E+02  0.42140816769E+02  0.00000000000E+00 0.  1.
</event>
<event>
 7    1  0.2641103E-015  0.9000770E+02  0.7816164E-02  0.1186339E+00
        -11   -1    0    0    0    0  0.00000000000E+00  0.00000000000E+00  0.45593999997E+02  0.45594000000E+02  0.51100000000E-03 0.  1.
         11   -1    0    0    0    0 -0.00000000000E+00 -0.00000000000E+00 -0.45593999997E+02  0.45594000000E+02  0.51100000000E-03 0. -1.
    9900012    2    1    2    0    0 -0.75622467668E+00 -0.83585615072E+00  0.35012223376E+00  0.90007696291E+02  0.89999957082E+02 0.  0.
        -12    1    1    2    0    0  0.75622467668E+00  0.83585615072E+00 -0.35012223376E+00  0.11803037088E+01  0.00000000000E+00 0.  1.
         11    1    3    3    0    0 -0.32808366219E+02  0.31452388977E+00 -0.10317822448E+02  0.34393971559E+02  0.51100000000E-03 0. -1.
        -11    1    3    3    0    0 -0.11226896843E+02 -0.52061289707E+00  0.11648865826E+01  0.11299168621E+02  0.51100000000E-03 0.  1.
        -12    1    3    3    0    0  0.43279038385E+02 -0.62976714343E+00  0.95030580992E+01  0.44314556112E+02  0.00000000000E+00 0.  1.
</event>
<event>
 7    1  0.2641103E-015  0.9000766E+02  0.7816164E-02  0.1186339E+00
        -11   -1    0    0    0    0  0.00000000000E+00  0.00000000000E+00  0.45593999997E+02  0.45594000000E+02  0.51100000000E-03 0. -1.
         11   -1    0    0    0    0 -0.00000000000E+00 -0.00000000000E+00 -0.45593999997E+02  0.45594000000E+02  0.51100000000E-03 0.  1.
    9900012    2    1    2    0    0  0.68981414965E+00 -0.26518795180E+00  0.92034026889E+00  0.90007663429E+02  0.89999923786E+02 0.  0.
        -12    1    1    2    0    0 -0.68981414965E+00  0.26518795180E+00 -0.92034026889E+00  0.11803365712E+01  0.00000000000E+00 0.  1.
         11    1    3    3    0    0  0.71008420046E+00 -0.19733566687E+02  0.34321873709E+02  0.39596829278E+02  0.51100000000E-03 0. -1.
        -11    1    3    3    0    0  0.33091479337E+01  0.58534066608E+01  0.57366154499E+01  0.88386416754E+01  0.51100000000E-03 0.  1.
        -12    1    3    3    0    0 -0.33294179845E+01  0.13614972074E+02 -0.39138148890E+02  0.41572192475E+02  0.00000000000E+00 0.  1.
</event>
<event>
 7    1  0.2641103E-015  0.9000770E+02  0.7816164E-02  0.1186339E+00
        -11   -1    0    0    0    0  0.00000000000E+00  0.00000000000E+00  0.45593999997E+02  0.45594000000E+02  0.51100000000E-03 0.  1.
         11   -1    0    0    0    0 -0.00000000000E+00 -0.00000000000E+00 -0.45593999997E+02  0.45594000000E+02  0.51100000000E-03 0. -1.
    9900012    2    1    2    0    0  0.74472097991E+00 -0.31196539897E+00 -0.86091352547E+00  0.90007701798E+02  0.89999962661E+02 0.  0.
        -12    1    1    2    0    0 -0.74472097991E+00  0.31196539897E+00  0.86091352547E+00  0.11802982023E+01  0.00000000000E+00 0.  1.
         11    1    3    3    0    0  0.17894460266E+02  0.17085832500E+02 -0.25469472151E+02  0.35508187681E+02  0.51100000000E-03 0. -1.
        -11    1    3    3    0    0  0.17763068937E+01  0.85019666711E+01 -0.56829918187E+01  0.10379552000E+02  0.51100000000E-03 0.  1.
        -12    1    3    3    0    0 -0.18926046180E+02 -0.25899764570E+02  0.30291550445E+02  0.44119962116E+02  0.00000000000E+00 0.  1.
</event>
<event>
 7    1  0.2641103E-015  0.9000774E+02  0.7816164E-02  0.1186339E+00
        -11   -1    0    0    0    0  0.00000000000E+00  0.00000000000E+00  0.45593999997E+02  0.45594000000E+02  0.51100000000E-03 0. -1.
         11   -1    0    0    0    0 -0.00000000000E+00 -0.00000000000E+00 -0.45593999997E+02  0.45594000000E+02  0.51100000000E-03 0.  1.
    9900012    2    1    2    0    0  0.58257810906E+00 -0.97660483619E+00 -0.31601414769E+00  0.90007737656E+02  0.89999998993E+02 0.  0.
        -12    1    1    2    0    0 -0.58257810906E+00  0.97660483619E+00  0.31601414769E+00  0.11802623440E+01  0.00000000000E+00 0.  1.
         11    1    3    3    0    0 -0.97401224736E+01  0.44302406151E+00  0.79483771821E+01  0.12579465657E+02  0.51100000000E-03 0. -1.
        -11    1    3    3    0    0 -0.98719551198E+01  0.31942767384E+02  0.92323284140E+01  0.34684748438E+02  0.51100000000E-03 0.  1.
         12    1    3    3    0    0  0.20194655702E+02 -0.33362396282E+02 -0.17496719744E+02  0.42743523561E+02  0.00000000000E+00 0. -1.
</event>
<event>
 7    1  0.2641103E-015  0.9000770E+02  0.7816164E-02  0.1186339E+00
        -11   -1    0    0    0    0  0.00000000000E+00  0.00000000000E+00  0.45593999997E+02  0.45594000000E+02  0.51100000000E-03 0.  1.
         11   -1    0    0    0    0 -0.00000000000E+00 -0.00000000000E+00 -0.45593999997E+02  0.45594000000E+02  0.51100000000E-03 0. -1.
    9900012    2    1    2    0    0 -0.44068139548E+00  0.92932206871E+00 -0.57902619175E+00  0.90007698797E+02  0.89999959621E+02 0.  0.
        -12    1    1    2    0    0  0.44068139548E+00 -0.92932206871E+00  0.57902619175E+00  0.11803012033E+01  0.00000000000E+00 0.  1.
         11    1    3    3    0    0 -0.49436807186E+00  0.57486991870E+01 -0.95562392915E+01  0.11163048499E+02  0.51100000000E-03 0. -1.
        -11    1    3    3    0    0 -0.33650417005E+02 -0.16652485207E+02 -0.93562738231E+01  0.38693613017E+02  0.51100000000E-03 0.  1.
         12    1    3    3    0    0  0.33704103681E+02  0.11833108089E+02  0.18333486923E+02  0.40151037281E+02  0.00000000000E+00 0. -1.
</event>
<event>
 7    1  0.2641103E-015  0.9000783E+02  0.7816164E-02  0.1186339E+00
        -11   -1    0    0    0    0  0.00000000000E+00  0.00000000000E+00  0.45593999997E+02  0.45594000000E+02  0.51100000000E-03 0. -1.
         11   -1    0    0    0    0 -0.00000000000E+00 -0.00000000000E+00 -0.45593999997E+02  0.45594000000E+02  0.51100000000E-03 0.  1.
    9900012    2    1    2    0    0 -0.99079803548E+00 -0.62609505890E+00  0.13833650512E+00  0.90007825115E+02  0.90000087607E+02 0.  0.
        -12    1    1    2    0    0  0.99079803548E+00  0.62609505890E+00 -0.13833650512E+00  0.11801748847E+01  0.00000000000E+00 0.  1.
         11    1    3    3    0    0 -0.91694947601E+01 -0.40795773375E+01  0.15813263425E+01  0.10159880839E+02  0.51100000000E-03 0. -1.
        -11    1    3    3    0    0 -0.31634108911E+02 -0.12976071370E+02 -0.10636157927E+02  0.35808143355E+02  0.51100000000E-03 0.  1.
         12    1    3    3    0    0  0.39812805636E+02  0.16429553648E+02  0.91931680899E+01  0.44039800921E+02  0.00000000000E+00 0. -1.
</event>
<event>
 7    1  0.2641103E-015  0.9000778E+02  0.7816164E-02  0.1186339E+00
        -11   -1    0    0    0    0  0.00000000000E+00  0.00000000000E+00  0.45593999997E+02  0.45594000000E+02  0.51100000000E-03 0.  1.
         11   -1    0    0    0    0 -0.00000000000E+00 -0.00000000000E+00 -0.45593999997E+02  0.45594000000E+02  0.51100000000E-03 0. -1.
    9900012    2    1    2    0    0  0.86881384376E+00 -0.77270430355E+00 -0.20252869395E+00  0.90007776586E+02  0.90000038437E+02 0.  0.
        -12    1    1    2    0    0 -0.86881384376E+00  0.77270430355E+00  0.20252869395E+00  0.11802234143E+01  0.00000000000E+00 0.  1.
         11    1    3    3    0    0  0.50325032613E+01  0.42659824783E+01 -0.74293039561E+01  0.99357562929E+01  0.51100000000E-03 0. -1.
        -11    1    3    3    0    0  0.11224291792E+02  0.34583725140E+02  0.92518903712E+01  0.37518212197E+02  0.51100000000E-03 0.  1.
         12    1    3    3    0    0 -0.15387981209E+02 -0.39622411922E+02 -0.20251151091E+01  0.42553808095E+02  0.00000000000E+00 0. -1.
</event>
<event>
 7    1  0.2641103E-015  0.9000779E+02  0.7816164E-02  0.1186339E+00
        -11   -1    0    0    0    0  0.00000000000E+00  0.00000000000E+00  0.45593999997E+02  0.45594000000E+02  0.51100000000E-03 0.  1.
         11   -1    0    0    0    0 -0.00000000000E+00 -0.00000000000E+00 -0.45593999997E+02  0.45594000000E+02  0.51100000000E-03 0. -1.
    9900012    2    1    2    0    0  0.13740475458E+00 -0.11436777159E+01  0.25695445645E+00  0.90007786300E+02  0.90000048279E+02 0.  0.
        -12    1    1    2    0    0 -0.13740475458E+00  0.11436777159E+01 -0.25695445645E+00  0.11802136998E+01  0.00000000000E+00 0.  1.
         11    1    3    3    0    0 -0.74887650349E+01  0.45203713980E+01  0.26896815413E+01  0.91514887520E+01  0.51100000000E-03 0. -1.
        -11    1    3    3    0    0 -0.10558458057E+02  0.20014007572E+02  0.28730067331E+02  0.36571277046E+02  0.51100000000E-03 0.  1.
         12    1    3    3    0    0  0.18184627846E+02 -0.25678056686E+02 -0.31162794416E+02  0.44285020502E+02  0.00000000000E+00 0. -1.
</event>
<event>
 7    1  0.2641103E-015  0.9000775E+02  0.7816164E-02  0.1186339E+00
        -11   -1    0    0    0    0  0.00000000000E+00  0.00000000000E+00  0.45593999997E+02  0.45594000000E+02  0.51100000000E-03 0.  1.
         11   -1    0    0    0    0 -0.00000000000E+00 -0.00000000000E+00 -0.45593999997E+02  0.45594000000E+02  0.51100000000E-03 0. -1.
    9900012    2    1    2    0    0 -0.99277080694E+00 -0.42906907701E+00 -0.47253964024E+00  0.90007750933E+02  0.90000012446E+02 0.  0.
        -12    1    1    2    0    0  0.99277080694E+00  0.42906907701E+00  0.47253964024E+00  0.11802490668E+01  0.00000000000E+00 0.  1.
         11    1    3    3    0    0  0.14801022888E+02 -0.32161598434E+02  0.20028089069E+02  0.40676320438E+02  0.51100000000E-03 0. -1.
        -11    1    3    3    0    0  0.23232400874E+01  0.75576757108E+01  0.53699639383E+01  0.95578459714E+01  0.51100000000E-03 0.  1.
        -12    1    3    3    0    0 -0.18117033783E+02  0.24174853646E+02 -0.25870592648E+02  0.39773584523E+02  0.00000000000E+00 0.  1.
</event>
<event>
 7    1  0.2641103E-015  0.9000773E+02  0.7816164E-02  0.1186339E+00
        -11   -1    0    0    0    0  0.00000000000E+00  0.00000000000E+00  0.45593999997E+02  0.45594000000E+02  0.51100000000E-03 0.  1.
         11   -1    0    0    0    0 -0.00000000000E+00 -0.00000000000E+00 -0.45593999997E+02  0.45594000000E+02  0.51100000000E-03 0. -1.
    9900012    2    1    2    0    0 -0.68238980272E+00  0.95551137141E+00  0.11987733441E+00  0.90007733759E+02  0.89999995045E+02 0.  0.
        -12    1    1    2    0    0  0.68238980272E+00 -0.95551137141E+00 -0.11987733441E+00  0.11802662408E+01  0.00000000000E+00 0.  1.
         11    1    3    3    0    0 -0.18971934040E+02  0.11483468617E+02 -0.35940743725E+02  0.42231994891E+02  0.51100000000E-03 0. -1.
        -11    1    3    3    0    0  0.86599949496E+00  0.66149212997E+01  0.55258199825E+01  0.86626685072E+01  0.51100000000E-03 0.  1.
        -12    1    3    3    0    0  0.17423544743E+02 -0.17142878545E+02  0.30534801077E+02  0.39113070361E+02  0.00000000000E+00 0.  1.
</event>
<event>
 7    1  0.2641103E-015  0.9000769E+02  0.7816164E-02  0.1186339E+00
        -11   -1    0    0    0    0  0.00000000000E+00  0.00000000000E+00  0.45593999997E+02  0.45594000000E+02  0.51100000000E-03 0.  1.
         11   -1    0    0    0    0 -0.00000000000E+00 -0.00000000000E+00 -0.45593999997E+02  0.45594000000E+02  0.51100000000E-03 0. -1.
    9900012    2    1    2    0    0 -0.11463162393E+01  0.15313898678E+00  0.23587217042E+00  0.90007691502E+02  0.89999952230E+02 0.  0.
        -12    1    1    2    0    0  0.11463162393E+01 -0.15313898678E+00 -0.23587217042E+00  0.11803084980E+01  0.00000000000E+00 0.  1.
         11    1    3    3    0    0 -0.34666820720E+02 -0.13981239855E+02 -0.98449821861E+01  0.38654717710E+02  0.51100000000E-03 0. -1.
        -11    1    3    3    0    0 -0.37927943267E+01 -0.22137782417E+01  0.96621083159E+01  0.10613314293E+02  0.51100000000E-03 0.  1.
        -12    1    3    3    0    0  0.37313298807E+02  0.16348157083E+02  0.41874604066E+00  0.40739659500E+02  0.00000000000E+00 0.  1.
</event>
<event>
 7    1  0.2641103E-015  0.9000776E+02  0.7816164E-02  0.1186339E+00
        -11   -1    0    0    0    0  0.00000000000E+00  0.00000000000E+00  0.45593999997E+02  0.45594000000E+02  0.51100000000E-03 0. -1.
         11   -1    0    0    0    0 -0.00000000000E+00 -0.00000000000E+00 -0.45593999997E+02  0.45594000000E+02  0.51100000000E-03 0.  1.
    9900012    2    1    2    0    0  0.85197282433E+00  0.25951268514E+00  0.77444192797E+00  0.90007760691E+02  0.90000022332E+02 0.  0.
        -12    1    1    2    0    0 -0.85197282433E+00 -0.25951268514E+00 -0.77444192797E+00  0.11802393092E+01  0.00000000000E+00 0.  1.
         11    1    3    3    0    0  0.58335374648E+01 -0.17432607842E+00 -0.74041535969E+01  0.94277271748E+01  0.51100000000E-03 0. -1.
        -11    1    3    3    0    0  0.15989749571E+02  0.38024051374E+01 -0.31524941838E+02  0.35552107312E+02  0.51100000000E-03 0.  1.
         12    1    3    3    0    0 -0.20971314211E+02 -0.33685663738E+01  0.39703537363E+02  0.45027926204E+02  0.00000000000E+00 0. -1.
</event>
<event>
 7    1  0.2641103E-015  0.9000776E+02  0.7816164E-02  0.1186339E+00
        -11   -1    0    0    0    0  0.00000000000E+00  0.00000000000E+00  0.45593999997E+02  0.45594000000E+02  0.51100000000E-03 0.  1.
         11   -1    0    0    0    0 -0.00000000000E+00 -0.00000000000E+00 -0.45593999997E+02  0.45594000000E+02  0.51100000000E-03 0. -1.
    9900012    2    1    2    0    0 -0.86156096322E+00 -0.75172090903E+00 -0.29256896953E+00  0.90007759253E+02  0.90000020875E+02 0.  0.
        -12    1    1    2    0    0  0.86156096322E+00  0.75172090903E+00  0.29256896953E+00  0.11802407468E+01  0.00000000000E+00 0.  1.
         11    1    3    3    0    0 -0.52721761457E+01 -0.55619565197E+01 -0.48116887219E+01  0.90489529922E+01  0.51100000000E-03 0. -1.
        -11    1    3    3    0    0 -0.45790553510E+01 -0.19970707920E+02  0.35064144567E+02  0.40611465834E+02  0.51100000000E-03 0.  1.
         12    1    3    3    0    0  0.89896705334E+01  0.24780943530E+02 -0.30545024815E+02  0.40347340427E+02  0.00000000000E+00 0. -1.
</event>
<event>
 7    1  0.2906121E-015  0.9000777E+02  0.7816164E-02  0.1186339E+00
        -11   -1    0    0    0    0  0.00000000000E+00  0.00000000000E+00  0.45593999997E+02  0.45594000000E+02  0.51100000000E-03 0. -1.
         11   -1    0    0    0    0 -0.00000000000E+00 -0.00000000000E+00 -0.45593999997E+02  0.45594000000E+02  0.51100000000E-03 0.  1.
    9900012    2    1    2    0    0  0.22462910724E+00 -0.37725320124E-01  0.11580374263E+01  0.90007774549E+02  0.90000036373E+02 0.  0.
        -12    1    1    2    0    0 -0.22462910724E+00  0.37725320124E-01 -0.11580374263E+01  0.11802254515E+01  0.00000000000E+00 0.  1.
         11    1    3    3    0    0 -0.66512537658E+01  0.19906717824E+01 -0.71162481224E+01  0.99419785960E+01  0.51100000000E-03 0. -1.
        -11    1    3    3    0    0 -0.11718959774E+01 -0.31432165660E+02 -0.20984568804E+02  0.37811459988E+02  0.51100000000E-03 0.  1.
         12    1    3    3    0    0  0.80477788505E+01  0.29403768557E+02  0.29258854353E+02  0.42254335965E+02  0.00000000000E+00 0. -1.
</event>
<event>
 7    1  0.2641103E-015  0.9000776E+02  0.7816164E-02  0.1186339E+00
        -11   -1    0    0    0    0  0.00000000000E+00  0.00000000000E+00  0.45593999997E+02  0.45594000000E+02  0.51100000000E-03 0.  1.
         11   -1    0    0    0    0 -0.00000000000E+00 -0.00000000000E+00 -0.45593999997E+02  0.45594000000E+02  0.51100000000E-03 0. -1.
    9900012    2    1    2    0    0 -0.84373351318E+00 -0.55123990321E+00 -0.61417913802E+00  0.90007759480E+02  0.90000021105E+02 0.  0.
        -12    1    1    2    0    0  0.84373351318E+00  0.55123990321E+00  0.61417913802E+00  0.11802405203E+01  0.00000000000E+00 0.  1.
         11    1    3    3    0    0  0.11795913333E+02  0.22161162700E+01  0.38957052945E+01  0.12618687043E+02  0.51100000000E-03 0. -1.
        -11    1    3    3    0    0  0.32280021496E+02 -0.16869969540E+01 -0.20629088193E+01  0.32389833892E+02  0.51100000000E-03 0.  1.
         12    1    3    3    0    0 -0.44919668342E+02 -0.10803592192E+01 -0.24469756132E+01  0.44999238545E+02  0.00000000000E+00 0. -1.
</event>
<event>
 7    1  0.2641103E-015  0.9000779E+02  0.7816164E-02  0.1186339E+00
        -11   -1    0    0    0    0  0.00000000000E+00  0.00000000000E+00  0.45593999997E+02  0.45594000000E+02  0.51100000000E-03 0.  1.
         11   -1    0    0    0    0 -0.00000000000E+00 -0.00000000000E+00 -0.45593999997E+02  0.45594000000E+02  0.51100000000E-03 0. -1.
    9900012    2    1    2    0    0 -0.62830795666E+00 -0.32852751642E+00 -0.94350357385E+00  0.90007788065E+02  0.90000050068E+02 0.  0.
        -12    1    1    2    0    0  0.62830795666E+00  0.32852751642E+00  0.94350357385E+00  0.11802119349E+01  0.00000000000E+00 0.  1.
         11    1    3    3    0    0  0.42357489635E+00  0.87985826571E+01  0.17048077338E+01  0.89722261528E+01  0.51100000000E-03 0. -1.
        -11    1    3    3    0    0 -0.14033651531E+02  0.68815137859E+00  0.36245760074E+02  0.38873796460E+02  0.51100000000E-03 0.  1.
         12    1    3    3    0    0  0.12981768678E+02 -0.98152615521E+01 -0.38894071382E+02  0.42161765452E+02  0.00000000000E+00 0. -1.
</event>
<event>
 7    1  0.2641103E-015  0.9000763E+02  0.7816164E-02  0.1186339E+00
        -11   -1    0    0    0    0  0.00000000000E+00  0.00000000000E+00  0.45593999997E+02  0.45594000000E+02  0.51100000000E-03 0. -1.
         11   -1    0    0    0    0 -0.00000000000E+00 -0.00000000000E+00 -0.45593999997E+02  0.45594000000E+02  0.51100000000E-03 0.  1.
    9900012    2    1    2    0    0  0.94497728776E+00 -0.70380514823E+00  0.70399905137E-01  0.90007627217E+02  0.89999887096E+02 0.  0.
        -12    1    1    2    0    0 -0.94497728776E+00  0.70380514823E+00 -0.70399905137E-01  0.11803727834E+01  0.00000000000E+00 0.  1.
         11    1    3    3    0    0  0.30780645552E+01 -0.57013041922E-01  0.35955937664E+02  0.36087493477E+02  0.51100000000E-03 0. -1.
        -11    1    3    3    0    0 -0.56557932950E+00  0.23093552463E+01  0.87969227358E+01  0.91125655834E+01  0.51100000000E-03 0.  1.
        -12    1    3    3    0    0 -0.15675079379E+01 -0.29561473526E+01 -0.44682460494E+02  0.44807568157E+02  0.00000000000E+00 0.  1.
</event>
<event>
 7    1  0.2641103E-015  0.9000790E+02  0.7816164E-02  0.1186339E+00
        -11   -1    0    0    0    0  0.00000000000E+00  0.00000000000E+00  0.45593999997E+02  0.45594000000E+02  0.51100000000E-03 0.  1.
         11   -1    0    0    0    0 -0.00000000000E+00 -0.00000000000E+00 -0.45593999997E+02  0.45594000000E+02  0.51100000000E-03 0. -1.
    9900012    2    1    2    0    0  0.90273858539E+00 -0.75009627060E+00 -0.12266137180E+00  0.90007903741E+02  0.90000167270E+02 0.  0.
        -12    1    1    2    0    0 -0.90273858539E+00  0.75009627060E+00  0.12266137180E+00  0.11800962592E+01  0.00000000000E+00 0.  1.
         11    1    3    3    0    0  0.90924919855E+01 -0.75855530550E+01  0.18133377150E+01  0.11979241194E+02  0.51100000000E-03 0. -1.
        -11    1    3    3    0    0 -0.45945246781E+01 -0.31889636120E+02  0.15084980280E+02  0.35575485650E+02  0.51100000000E-03 0.  1.
         12    1    3    3    0    0 -0.35952287221E+01  0.38725092905E+02 -0.17020979367E+02  0.42453176897E+02  0.00000000000E+00 0. -1.
</event>
<event>
 7    1  0.2641103E-015  0.9000762E+02  0.7816164E-02  0.1186339E+00
        -11   -1    0    0    0    0  0.00000000000E+00  0.00000000000E+00  0.45593999997E+02  0.45594000000E+02  0.51100000000E-03 0.  1.
         11   -1    0    0    0    0 -0.00000000000E+00 -0.00000000000E+00 -0.45593999997E+02  0.45594000000E+02  0.51100000000E-03 0. -1.
    9900012    2    1    2    0    0 -0.10156674877E+00  0.11686420320E+01  0.13133507061E+00  0.90007623406E+02  0.89999883235E+02 0.  0.
        -12    1    1    2    0    0  0.10156674877E+00 -0.11686420320E+01 -0.13133507061E+00  0.11803765942E+01  0.00000000000E+00 0.  1.
         11    1    3    3    0    0  0.48845870258E+01 -0.18035085351E+02 -0.31600150982E+02  0.36710938919E+02  0.51100000000E-03 0. -1.
        -11    1    3    3    0    0 -0.52900088804E+01 -0.72852962906E+01 -0.31124620658E+01  0.95261301886E+01  0.51100000000E-03 0.  1.
        -12    1    3    3    0    0  0.30385510591E+00  0.26489023673E+02  0.34843948118E+02  0.43770554298E+02  0.00000000000E+00 0.  1.
</event>
<event>
 7    1  0.2641103E-015  0.9000771E+02  0.7816164E-02  0.1186339E+00
        -11   -1    0    0    0    0  0.00000000000E+00  0.00000000000E+00  0.45593999997E+02  0.45594000000E+02  0.51100000000E-03 0.  1.
         11   -1    0    0    0    0 -0.00000000000E+00 -0.00000000000E+00 -0.45593999997E+02  0.45594000000E+02  0.51100000000E-03 0. -1.
    9900012    2    1    2    0    0  0.20373002395E+00  0.26962617125E-01 -0.11622568023E+01  0.90007714535E+02  0.89999975566E+02 0.  0.
        -12    1    1    2    0    0 -0.20373002395E+00 -0.26962617125E-01  0.11622568023E+01  0.11802854654E+01  0.00000000000E+00 0.  1.
         11    1    3    3    0    0 -0.22254617261E+02  0.29053682223E+02 -0.52072097446E+01  0.36966193660E+02  0.51100000000E-03 0. -1.
        -11    1    3    3    0    0  0.42601680810E+01  0.93919269571E+01  0.18218685073E+01  0.10472656261E+02  0.51100000000E-03 0.  1.
        -12    1    3    3    0    0  0.18198179203E+02 -0.38418646563E+02  0.22230844349E+01  0.42568864613E+02  0.00000000000E+00 0.  1.
</event>
<event>
 7    1  0.2641103E-015  0.9000777E+02  0.7816164E-02  0.1186339E+00
        -11   -1    0    0    0    0  0.00000000000E+00  0.00000000000E+00  0.45593999997E+02  0.45594000000E+02  0.51100000000E-03 0.  1.
         11   -1    0    0    0    0 -0.00000000000E+00 -0.00000000000E+00 -0.45593999997E+02  0.45594000000E+02  0.51100000000E-03 0. -1.
    9900012    2    1    2    0    0 -0.64563356348E+00 -0.41771604163E+00 -0.89533271626E+00  0.90007766946E+02  0.90000028669E+02 0.  0.
        -12    1    1    2    0    0  0.64563356348E+00  0.41771604163E+00  0.89533271626E+00  0.11802330543E+01  0.00000000000E+00 0.  1.
         11    1    3    3    0    0 -0.13053459562E+02  0.78359566943E+01 -0.38890189828E+02  0.41764122030E+02  0.51100000000E-03 0. -1.
        -11    1    3    3    0    0  0.47870911451E+01 -0.83666595472E+01  0.15162129740E+00  0.96405509640E+01  0.51100000000E-03 0.  1.
        -12    1    3    3    0    0  0.76207348535E+01  0.11298681128E+00  0.37843235814E+02  0.38603093951E+02  0.00000000000E+00 0.  1.
</event>
<event>
 7    1  0.2641103E-015  0.9000785E+02  0.7816164E-02  0.1186339E+00
        -11   -1    0    0    0    0  0.00000000000E+00  0.00000000000E+00  0.45593999997E+02  0.45594000000E+02  0.51100000000E-03 0.  1.
         11   -1    0    0    0    0 -0.00000000000E+00 -0.00000000000E+00 -0.45593999997E+02  0.45594000000E+02  0.51100000000E-03 0. -1.
    9900012    2    1    2    0    0  0.37414125660E+00  0.69157859559E+00 -0.88005021842E+00  0.90007851272E+02  0.90000114109E+02 0.  0.
        -12    1    1    2    0    0 -0.37414125660E+00 -0.69157859559E+00  0.88005021842E+00  0.11801487282E+01  0.00000000000E+00 0.  1.
         11    1    3    3    0    0 -0.12320244345E+02  0.11388893101E+02 -0.66353694942E+01  0.18042268022E+02  0.51100000000E-03 0. -1.
        -11    1    3    3    0    0 -0.12000067759E+02  0.53903907533E+01  0.30670613050E+02  0.33372809948E+02  0.51100000000E-03 0.  1.
         12    1    3    3    0    0  0.24694453361E+02 -0.16087705258E+02 -0.24915293774E+02  0.38592773302E+02  0.00000000000E+00 0. -1.
</event>
<event>
 7    1  0.2641103E-015  0.9000773E+02  0.7816164E-02  0.1186339E+00
        -11   -1    0    0    0    0  0.00000000000E+00  0.00000000000E+00  0.45593999997E+02  0.45594000000E+02  0.51100000000E-03 0. -1.
         11   -1    0    0    0    0 -0.00000000000E+00 -0.00000000000E+00 -0.45593999997E+02  0.45594000000E+02  0.51100000000E-03 0.  1.
    9900012    2    1    2    0    0 -0.94196013365E+00  0.19233186796E+00  0.68465989982E+00  0.90007729006E+02  0.89999990229E+02 0.  0.
        -12    1    1    2    0    0  0.94196013365E+00 -0.19233186796E+00 -0.68465989982E+00  0.11802709940E+01  0.00000000000E+00 0.  1.
         11    1    3    3    0    0 -0.12873702374E+02 -0.49452933245E+01 -0.13479422637E+02  0.19284267519E+02  0.51100000000E-03 0. -1.
        -11    1    3    3    0    0  0.18166887237E+02  0.15591591693E+01 -0.24978824091E+02  0.30925853625E+02  0.51100000000E-03 0.  1.
         12    1    3    3    0    0 -0.62351449973E+01  0.35784660231E+01  0.39142906628E+02  0.39797607861E+02  0.00000000000E+00 0. -1.
</event>
<event>
 7    1  0.2641103E-015  0.9000849E+02  0.7816164E-02  0.1186338E+00
        -11   -1    0    0    0    0  0.00000000000E+00  0.00000000000E+00  0.45593999997E+02  0.45594000000E+02  0.51100000000E-03 0.  1.
         11   -1    0    0    0    0 -0.00000000000E+00 -0.00000000000E+00 -0.45593999997E+02  0.45594000000E+02  0.51100000000E-03 0. -1.
    9900012    2    1    2    0    0  0.10395003625E+01 -0.45799678757E+00 -0.31770006390E+00  0.90008485103E+02  0.90000756303E+02 0.  0.
        -12    1    1    2    0    0 -0.10395003625E+01  0.45799678757E+00  0.31770006390E+00  0.11795148967E+01  0.00000000000E+00 0.  1.
         11    1    3    3    0    0  0.44088622318E+01  0.34388765614E+02 -0.10748417285E+02  0.36298123106E+02  0.51100000000E-03 0. -1.
        -11    1    3    3    0    0 -0.54815633492E+00  0.65615735421E+01 -0.61564429744E+01  0.90142394618E+01  0.51100000000E-03 0.  1.
        -12    1    3    3    0    0 -0.28212055344E+01 -0.41408335944E+02  0.16587160195E+02  0.44696122535E+02  0.00000000000E+00 0.  1.
</event>
<event>
 7    1  0.2641103E-015  0.9000778E+02  0.7816164E-02  0.1186339E+00
        -11   -1    0    0    0    0  0.00000000000E+00  0.00000000000E+00  0.45593999997E+02  0.45594000000E+02  0.51100000000E-03 0.  1.
         11   -1    0    0    0    0 -0.00000000000E+00 -0.00000000000E+00 -0.45593999997E+02  0.45594000000E+02  0.51100000000E-03 0. -1.
    9900012    2    1    2    0    0 -0.11575627525E+01 -0.98347696181E-01  0.20809707580E+00  0.90007776213E+02  0.90000038059E+02 0.  0.
        -12    1    1    2    0    0  0.11575627525E+01  0.98347696181E-01 -0.20809707580E+00  0.11802237874E+01  0.00000000000E+00 0.  1.
         11    1    3    3    0    0 -0.22553902087E+02  0.32617925968E+01 -0.17657392476E+02  0.28828827580E+02  0.51100000000E-03 0. -1.
        -11    1    3    3    0    0 -0.10294541513E+02  0.34243199720E+01 -0.12649575974E+02  0.16664792973E+02  0.51100000000E-03 0.  1.
        -12    1    3    3    0    0  0.31690880848E+02 -0.67844602649E+01  0.30515065527E+02  0.44514155660E+02  0.00000000000E+00 0.  1.
</event>
<event>
 7    1  0.2641103E-015  0.9000780E+02  0.7816164E-02  0.1186339E+00
        -11   -1    0    0    0    0  0.00000000000E+00  0.00000000000E+00  0.45593999997E+02  0.45594000000E+02  0.51100000000E-03 0. -1.
         11   -1    0    0    0    0 -0.00000000000E+00 -0.00000000000E+00 -0.45593999997E+02  0.45594000000E+02  0.51100000000E-03 0.  1.
    9900012    2    1    2    0    0 -0.54321468793E+00  0.64477498497E+00  0.82586650751E+00  0.90007799819E+02  0.90000061977E+02 0.  0.
        -12    1    1    2    0    0  0.54321468793E+00 -0.64477498497E+00 -0.82586650751E+00  0.11802001808E+01  0.00000000000E+00 0.  1.
         11    1    3    3    0    0  0.84028398747E+01  0.24144728475E+02 -0.27129282790E+01  0.25708668017E+02  0.51100000000E-03 0. -1.
        -11    1    3    3    0    0 -0.15169396531E+02  0.12446664725E+02 -0.13718266556E+02  0.23942031899E+02  0.51100000000E-03 0.  1.
        -12    1    3    3    0    0  0.62233419689E+01 -0.35946618216E+02  0.17257061342E+02  0.40357099903E+02  0.00000000000E+00 0.  1.
</event>
<event>
 7    1  0.2641103E-015  0.9000781E+02  0.7816164E-02  0.1186339E+00
        -11   -1    0    0    0    0  0.00000000000E+00  0.00000000000E+00  0.45593999997E+02  0.45594000000E+02  0.51100000000E-03 0. -1.
         11   -1    0    0    0    0 -0.00000000000E+00 -0.00000000000E+00 -0.45593999997E+02  0.45594000000E+02  0.51100000000E-03 0.  1.
    9900012    2    1    2    0    0  0.82568773463E+00 -0.84108747292E+00 -0.60420669998E-01  0.90007813985E+02  0.90000076330E+02 0.  0.
        -12    1    1    2    0    0 -0.82568773463E+00  0.84108747292E+00  0.60420669998E-01  0.11801860148E+01  0.00000000000E+00 0.  1.
         11    1    3    3    0    0 -0.55247737171E+01  0.69006208142E+01 -0.31021941186E+01  0.93683136614E+01  0.51100000000E-03 0. -1.
        -11    1    3    3    0    0  0.12432307371E+02  0.23117753445E+02 -0.26635380434E+02  0.37395671969E+02  0.51100000000E-03 0.  1.
         12    1    3    3    0    0 -0.60818459195E+01 -0.30859461732E+02  0.29677153883E+02  0.43243828354E+02  0.00000000000E+00 0. -1.
</event>
<event>
 7    1  0.4092000E-015  0.9000774E+02  0.7816164E-02  0.1186339E+00
        -11   -1    0    0    0    0  0.00000000000E+00  0.00000000000E+00  0.45593999997E+02  0.45594000000E+02  0.51100000000E-03 0. -1.
         11   -1    0    0    0    0 -0.00000000000E+00 -0.00000000000E+00 -0.45593999997E+02  0.45594000000E+02  0.51100000000E-03 0.  1.
    9900012    2    1    2    0    0 -0.56522855206E+00 -0.97295335608E+00  0.35623573138E+00  0.90007735010E+02  0.89999996313E+02 0.  0.
        -12    1    1    2    0    0  0.56522855206E+00  0.97295335608E+00 -0.35623573138E+00  0.11802649895E+01  0.00000000000E+00 0.  1.
         11    1    3    3    0    0  0.78075661949E+01 -0.25825928718E+00 -0.48861939206E+01  0.92141021829E+01  0.51100000000E-03 0. -1.
        -11    1    3    3    0    0  0.97564940474E+01  0.22215395525E+02 -0.27652038612E+02  0.36787881348E+02  0.51100000000E-03 0.  1.
         12    1    3    3    0    0 -0.18129288794E+02 -0.22930089594E+02  0.32894468263E+02  0.44005751480E+02  0.00000000000E+00 0. -1.
</event>
<event>
 7    1  0.2641103E-015  0.9000767E+02  0.7816164E-02  0.1186339E+00
        -11   -1    0    0    0    0  0.00000000000E+00  0.00000000000E+00  0.45593999997E+02  0.45594000000E+02  0.51100000000E-03 0.  1.
         11   -1    0    0    0    0 -0.00000000000E+00 -0.00000000000E+00 -0.45593999997E+02  0.45594000000E+02  0.51100000000E-03 0. -1.
    9900012    2    1    2    0    0  0.95981086208E+00  0.67180711686E+00 -0.14360082156E+00  0.90007668314E+02  0.89999928736E+02 0.  0.
        -12    1    1    2    0    0 -0.95981086208E+00 -0.67180711686E+00  0.14360082156E+00  0.11803316861E+01  0.00000000000E+00 0.  1.
         11    1    3    3    0    0  0.33462284208E+02 -0.67859936150E+01 -0.23113844008E+02  0.41231346799E+02  0.51100000000E-03 0. -1.
        -11    1    3    3    0    0  0.17344486416E+01 -0.38575330355E+01  0.92947061441E+01  0.10211779266E+02  0.51100000000E-03 0.  1.
        -12    1    3    3    0    0 -0.34236921988E+02  0.11315333767E+02  0.13675537043E+02  0.38564542249E+02  0.00000000000E+00 0.  1.
</event>
<event>
 7    1  0.2641103E-015  0.9000763E+02  0.7816164E-02  0.1186339E+00
        -11   -1    0    0    0    0  0.00000000000E+00  0.00000000000E+00  0.45593999997E+02  0.45594000000E+02  0.51100000000E-03 0. -1.
         11   -1    0    0    0    0 -0.00000000000E+00 -0.00000000000E+00 -0.45593999997E+02  0.45594000000E+02  0.51100000000E-03 0.  1.
    9900012    2    1    2    0    0  0.31667750379E+00 -0.83206228376E+00  0.77501696480E+00  0.90007634132E+02  0.89999894103E+02 0.  0.
        -12    1    1    2    0    0 -0.31667750379E+00  0.83206228376E+00 -0.77501696480E+00  0.11803658675E+01  0.00000000000E+00 0.  1.
         11    1    3    3    0    0  0.12513355386E+01 -0.86390297730E+01 -0.88165938866E+00  0.87735967304E+01  0.51100000000E-03 0. -1.
        -11    1    3    3    0    0  0.59353399486E+01 -0.15097411410E+02 -0.34362899654E+02  0.37999591635E+02  0.51100000000E-03 0.  1.
         12    1    3    3    0    0 -0.68699979834E+01  0.22904378899E+02  0.36019576007E+02  0.43234445767E+02  0.00000000000E+00 0. -1.
</event>
<event>
 7    1  0.2641103E-015  0.9000779E+02  0.7816164E-02  0.1186339E+00
        -11   -1    0    0    0    0  0.00000000000E+00  0.00000000000E+00  0.45593999997E+02  0.45594000000E+02  0.51100000000E-03 0.  1.
         11   -1    0    0    0    0 -0.00000000000E+00 -0.00000000000E+00 -0.45593999997E+02  0.45594000000E+02  0.51100000000E-03 0. -1.
    9900012    2    1    2    0    0 -0.52151292064E+00 -0.10167358565E+01  0.29525920653E+00  0.90007785813E+02  0.90000047786E+02 0.  0.
        -12    1    1    2    0    0  0.52151292064E+00  0.10167358565E+01 -0.29525920653E+00  0.11802141871E+01  0.00000000000E+00 0.  1.
         11    1    3    3    0    0  0.14403255814E+00  0.53647655848E+01  0.90753144254E+01  0.10543376468E+02  0.51100000000E-03 0. -1.
        -11    1    3    3    0    0 -0.23803858521E+02 -0.21501730899E+01  0.27369108227E+02  0.36336139175E+02  0.51100000000E-03 0.  1.
         12    1    3    3    0    0  0.23138313042E+02 -0.42313283514E+01 -0.36149163445E+02  0.43128270170E+02  0.00000000000E+00 0. -1.
</event>
<event>
 7    1  0.2641103E-015  0.9000775E+02  0.7816164E-02  0.1186339E+00
        -11   -1    0    0    0    0  0.00000000000E+00  0.00000000000E+00  0.45593999997E+02  0.45594000000E+02  0.51100000000E-03 0. -1.
         11   -1    0    0    0    0 -0.00000000000E+00 -0.00000000000E+00 -0.45593999997E+02  0.45594000000E+02  0.51100000000E-03 0.  1.
    9900012    2    1    2    0    0 -0.20189650670E+00  0.10110741394E+01  0.57441929751E+00  0.90007749754E+02  0.90000011250E+02 0.  0.
        -12    1    1    2    0    0  0.20189650670E+00 -0.10110741394E+01 -0.57441929751E+00  0.11802502464E+01  0.00000000000E+00 0.  1.
         11    1    3    3    0    0 -0.36356499861E+02  0.64063412316E+00  0.20142642904E+02  0.41568396140E+02  0.51100000000E-03 0. -1.
        -11    1    3    3    0    0 -0.27380626242E+01  0.35116761227E+00 -0.70668659443E+01  0.75868900191E+01  0.51100000000E-03 0.  1.
        -12    1    3    3    0    0  0.38892665979E+02  0.19272403936E-01 -0.12501357662E+02  0.40852463595E+02  0.00000000000E+00 0.  1.
</event>
<event>
 7    1  0.2641103E-015  0.9000841E+02  0.7816164E-02  0.1186338E+00
        -11   -1    0    0    0    0  0.00000000000E+00  0.00000000000E+00  0.45593999997E+02  0.45594000000E+02  0.51100000000E-03 0. -1.
         11   -1    0    0    0    0 -0.00000000000E+00 -0.00000000000E+00 -0.45593999997E+02  0.45594000000E+02  0.51100000000E-03 0.  1.
    9900012    2    1    2    0    0 -0.65038477714E-01  0.45348894999E+00  0.10869860592E+01  0.90008414936E+02  0.90000685210E+02 0.  0.
        -12    1    1    2    0    0  0.65038477714E-01 -0.45348894999E+00 -0.10869860592E+01  0.11795850644E+01  0.00000000000E+00 0.  1.
         11    1    3    3    0    0  0.74313519756E+01  0.28751280632E+02 -0.27430895852E+02  0.40426664191E+02  0.51100000000E-03 0. -1.
        -11    1    3    3    0    0  0.24909228691E+00 -0.85373560285E+01 -0.50090716509E+01  0.99014793839E+01  0.51100000000E-03 0.  1.
        -12    1    3    3    0    0 -0.77454827402E+01 -0.19760435653E+02  0.33526953562E+02  0.39680271360E+02  0.00000000000E+00 0.  1.
</event>
<event>
 7    1  0.2641103E-015  0.9000774E+02  0.7816164E-02  0.1186339E+00
        -11   -1    0    0    0    0  0.00000000000E+00  0.00000000000E+00  0.45593999997E+02  0.45594000000E+02  0.51100000000E-03 0.  1.
         11   -1    0    0    0    0 -0.00000000000E+00 -0.00000000000E+00 -0.45593999997E+02  0.45594000000E+02  0.51100000000E-03 0. -1.
    9900012    2    1    2    0    0  0.81859007297E+00 -0.85005993919E+00  0.17956975113E-01  0.90007739833E+02  0.90000001199E+02 0.  0.
        -12    1    1    2    0    0 -0.81859007297E+00  0.85005993919E+00 -0.17956975113E-01  0.11802601665E+01  0.00000000000E+00 0.  1.
         11    1    3    3    0    0  0.15493247552E+01 -0.43457728170E+01 -0.63445291950E+01  0.78446924440E+01  0.51100000000E-03 0. -1.
        -11    1    3    3    0    0  0.15414292986E+02 -0.28431100201E+02 -0.19728260463E+02  0.37883138044E+02  0.51100000000E-03 0.  1.
         12    1    3    3    0    0 -0.16145027668E+02  0.31926813079E+02  0.26090746633E+02  0.44279909346E+02  0.00000000000E+00 0. -1.
</event>
<event>
 7    1  0.2641103E-015  0.9000778E+02  0.7816164E-02  0.1186339E+00
        -11   -1    0    0    0    0  0.00000000000E+00  0.00000000000E+00  0.45593999997E+02  0.45594000000E+02  0.51100000000E-03 0.  1.
         11   -1    0    0    0    0 -0.00000000000E+00 -0.00000000000E+00 -0.45593999997E+02  0.45594000000E+02  0.51100000000E-03 0. -1.
    9900012    2    1    2    0    0 -0.23534181359E+00 -0.11043186560E+01 -0.34352091109E+00  0.90007783037E+02  0.90000044973E+02 0.  0.
        -12    1    1    2    0    0  0.23534181359E+00  0.11043186560E+01  0.34352091109E+00  0.11802169629E+01  0.00000000000E+00 0.  1.
         11    1    3    3    0    0  0.61335117423E+01  0.25463987573E+02  0.28062708011E+02  0.38386849448E+02  0.51100000000E-03 0. -1.
        -11    1    3    3    0    0  0.10881027384E+02 -0.16434057297E+01 -0.15306600805E+01  0.11110376225E+02  0.51100000000E-03 0.  1.
        -12    1    3    3    0    0 -0.17249880940E+02 -0.24924900499E+02 -0.26875568842E+02  0.40510557363E+02  0.00000000000E+00 0.  1.
</event>
<event>
 7    1  0.2641103E-015  0.9000761E+02  0.7816164E-02  0.1186339E+00
        -11   -1    0    0    0    0  0.00000000000E+00  0.00000000000E+00  0.45593999997E+02  0.45594000000E+02  0.51100000000E-03 0.  1.
         11   -1    0    0    0    0 -0.00000000000E+00 -0.00000000000E+00 -0.45593999997E+02  0.45594000000E+02  0.51100000000E-03 0. -1.
    9900012    2    1    2    0    0  0.50043720550E+00  0.10454456570E+01 -0.22346008034E+00  0.90007606665E+02  0.89999866273E+02 0.  0.
        -12    1    1    2    0    0 -0.50043720550E+00 -0.10454456570E+01  0.22346008034E+00  0.11803933353E+01  0.00000000000E+00 0.  1.
         11    1    3    3    0    0 -0.35586052648E+01 -0.27816460011E+01  0.82720000614E+01  0.94248188939E+01  0.51100000000E-03 0. -1.
        -11    1    3    3    0    0  0.25952241213E+02  0.33686589602E+02  0.30638668955E+00  0.42525275026E+02  0.51100000000E-03 0.  1.
         12    1    3    3    0    0 -0.21893198743E+02 -0.29859497944E+02 -0.88018468313E+01  0.38057512744E+02  0.00000000000E+00 0. -1.
</event>
<event>
 7    1  0.2641103E-015  0.9000769E+02  0.7816164E-02  0.1186339E+00
        -11   -1    0    0    0    0  0.00000000000E+00  0.00000000000E+00  0.45593999997E+02  0.45594000000E+02  0.51100000000E-03 0. -1.
         11   -1    0    0    0    0 -0.00000000000E+00 -0.00000000000E+00 -0.45593999997E+02  0.45594000000E+02  0.51100000000E-03 0.  1.
    9900012    2    1    2    0    0 -0.73914462996E+00 -0.67165579954E+00  0.62903055786E+00  0.90007688287E+02  0.89999948972E+02 0.  0.
        -12    1    1    2    0    0  0.73914462996E+00  0.67165579954E+00 -0.62903055786E+00  0.11803117130E+01  0.00000000000E+00 0.  1.
         11    1    3    3    0    0  0.33766869926E+02  0.90143967232E+01 -0.21880351360E+02  0.41233610426E+02  0.51100000000E-03 0. -1.
        -11    1    3    3    0    0 -0.67096176633E+01  0.44989678679E+01 -0.28462486978E+01  0.85650927009E+01  0.51100000000E-03 0.  1.
        -12    1    3    3    0    0 -0.27796396893E+02 -0.14185020391E+02  0.25355630616E+02  0.40208985160E+02  0.00000000000E+00 0.  1.
</event>
<event>
 7    1  0.2641103E-015  0.9000779E+02  0.7816164E-02  0.1186339E+00
        -11   -1    0    0    0    0  0.00000000000E+00  0.00000000000E+00  0.45593999997E+02  0.45594000000E+02  0.51100000000E-03 0.  1.
         11   -1    0    0    0    0 -0.00000000000E+00 -0.00000000000E+00 -0.45593999997E+02  0.45594000000E+02  0.51100000000E-03 0. -1.
    9900012    2    1    2    0    0 -0.43018669424E+00 -0.65739541706E+00  0.88072077660E+00  0.90007788827E+02  0.90000050840E+02 0.  0.
        -12    1    1    2    0    0  0.43018669424E+00  0.65739541706E+00 -0.88072077660E+00  0.11802111729E+01  0.00000000000E+00 0.  1.
         11    1    3    3    0    0 -0.72370092651E+01  0.34250946068E+01 -0.32733784327E+02  0.33698756843E+02  0.51100000000E-03 0. -1.
        -11    1    3    3    0    0 -0.37681212876E+01  0.27136139494E+01 -0.99430280705E+01  0.10973889291E+02  0.51100000000E-03 0.  1.
        -12    1    3    3    0    0  0.10574943858E+02 -0.67961039732E+01  0.43557533174E+02  0.45335142693E+02  0.00000000000E+00 0.  1.
</event>
<event>
 7    1  0.2641103E-015  0.9000765E+02  0.7816164E-02  0.1186339E+00
        -11   -1    0    0    0    0  0.00000000000E+00  0.00000000000E+00  0.45593999997E+02  0.45594000000E+02  0.51100000000E-03 0. -1.
         11   -1    0    0    0    0 -0.00000000000E+00 -0.00000000000E+00 -0.45593999997E+02  0.45594000000E+02  0.51100000000E-03 0.  1.
    9900012    2    1    2    0    0  0.45205518216E+00  0.43832887805E+00  0.99836737132E+00  0.90007651110E+02  0.89999911305E+02 0.  0.
        -12    1    1    2    0    0 -0.45205518216E+00 -0.43832887805E+00 -0.99836737132E+00  0.11803488896E+01  0.00000000000E+00 0.  1.
         11    1    3    3    0    0 -0.18671648835E+02  0.24598891444E+02  0.28727736023E+02  0.42178415662E+02  0.51100000000E-03 0. -1.
        -11    1    3    3    0    0  0.90202049027E+01 -0.35118370343E+01  0.23601392054E+01  0.99633003152E+01  0.51100000000E-03 0.  1.
        -12    1    3    3    0    0  0.10103499114E+02 -0.20648725531E+02 -0.30089507857E+02  0.37865935133E+02  0.00000000000E+00 0.  1.
</event>
<event>
 7    1  0.2641103E-015  0.9000865E+02  0.7816164E-02  0.1186337E+00
        -11   -1    0    0    0    0  0.00000000000E+00  0.00000000000E+00  0.45593999997E+02  0.45594000000E+02  0.51100000000E-03 0.  1.
         11   -1    0    0    0    0 -0.00000000000E+00 -0.00000000000E+00 -0.45593999997E+02  0.45594000000E+02  0.51100000000E-03 0. -1.
    9900012    2    1    2    0    0 -0.56683976261E+00  0.48966693033E+00 -0.91092975355E+00  0.90008646773E+02  0.90000920105E+02 0.  0.
        -12    1    1    2    0    0  0.56683976261E+00 -0.48966693033E+00  0.91092975355E+00  0.11793532274E+01  0.00000000000E+00 0.  1.
         11    1    3    3    0    0  0.29087069342E+02  0.16021081988E+02 -0.17661749226E+02  0.37612099874E+02  0.51100000000E-03 0. -1.
        -11    1    3    3    0    0  0.74234665025E+01  0.11610738398E+01 -0.17640409532E+01  0.77180171107E+01  0.51100000000E-03 0.  1.
        -12    1    3    3    0    0 -0.37077375607E+02 -0.16692488897E+02  0.18514860426E+02  0.44678529788E+02  0.00000000000E+00 0.  1.
</event>
<event>
 7    1  0.2641103E-015  0.9000784E+02  0.7816164E-02  0.1186339E+00
        -11   -1    0    0    0    0  0.00000000000E+00  0.00000000000E+00  0.45593999997E+02  0.45594000000E+02  0.51100000000E-03 0. -1.
         11   -1    0    0    0    0 -0.00000000000E+00 -0.00000000000E+00 -0.45593999997E+02  0.45594000000E+02  0.51100000000E-03 0.  1.
    9900012    2    1    2    0    0 -0.18564484282E+00 -0.11651829785E+01 -0.25884967176E-01  0.90007836701E+02  0.90000099345E+02 0.  0.
        -12    1    1    2    0    0  0.18564484282E+00  0.11651829785E+01  0.25884967176E-01  0.11801632991E+01  0.00000000000E+00 0.  1.
         11    1    3    3    0    0 -0.99555495563E+01  0.23402270308E+02  0.26592671216E+02  0.36796051217E+02  0.51100000000E-03 0. -1.
        -11    1    3    3    0    0  0.29139889873E+01 -0.74242312621E+00  0.91838140795E+01  0.96635896656E+01  0.51100000000E-03 0.  1.
        -12    1    3    3    0    0  0.68559157261E+01 -0.23825030161E+02 -0.35802370262E+02  0.43548195818E+02  0.00000000000E+00 0.  1.
</event>
<event>
 7    1  0.2641103E-015  0.9000768E+02  0.7816164E-02  0.1186339E+00
        -11   -1    0    0    0    0  0.00000000000E+00  0.00000000000E+00  0.45593999997E+02  0.45594000000E+02  0.51100000000E-03 0.  1.
         11   -1    0    0    0    0 -0.00000000000E+00 -0.00000000000E+00 -0.45593999997E+02  0.45594000000E+02  0.51100000000E-03 0. -1.
    9900012    2    1    2    0    0 -0.56132671272E+00 -0.56274374260E+00 -0.87257512218E+00  0.90007679898E+02  0.89999940473E+02 0.  0.
        -12    1    1    2    0    0  0.56132671272E+00  0.56274374260E+00  0.87257512218E+00  0.11803201015E+01  0.00000000000E+00 0.  1.
         11    1    3    3    0    0  0.25353249143E+02  0.40158935934E+01  0.24000091218E+02  0.35141414630E+02  0.51100000000E-03 0. -1.
        -11    1    3    3    0    0  0.45298828364E+01  0.74765402838E+01  0.53975959225E+01  0.10273876344E+02  0.51100000000E-03 0.  1.
        -12    1    3    3    0    0 -0.30444458693E+02 -0.12055177620E+02 -0.30270262263E+02  0.44592388924E+02  0.00000000000E+00 0.  1.
</event>
<event>
 7    1  0.2641103E-015  0.9000754E+02  0.7816164E-02  0.1186339E+00
        -11   -1    0    0    0    0  0.00000000000E+00  0.00000000000E+00  0.45593999997E+02  0.45594000000E+02  0.51100000000E-03 0.  1.
         11   -1    0    0    0    0 -0.00000000000E+00 -0.00000000000E+00 -0.45593999997E+02  0.45594000000E+02  0.51100000000E-03 0. -1.
    9900012    2    1    2    0    0  0.11133029915E+01 -0.29097520101E+00 -0.26337232769E+00  0.90007544536E+02  0.89999803324E+02 0.  0.
        -12    1    1    2    0    0 -0.11133029915E+01  0.29097520101E+00  0.26337232769E+00  0.11804554635E+01  0.00000000000E+00 0.  1.
         11    1    3    3    0    0 -0.37001185271E+02  0.47188440890E+01  0.52028500421E+01  0.37661981491E+02  0.51100000000E-03 0. -1.
        -11    1    3    3    0    0 -0.38270258687E-01  0.10754594495E+02 -0.17662670425E+01  0.10898736940E+02  0.51100000000E-03 0.  1.
        -12    1    3    3    0    0  0.38152758521E+02 -0.15764413785E+02 -0.36999553273E+01  0.41446826105E+02  0.00000000000E+00 0.  1.
</event>
<event>
 7    1  0.2641103E-015  0.9000772E+02  0.7816164E-02  0.1186339E+00
        -11   -1    0    0    0    0  0.00000000000E+00  0.00000000000E+00  0.45593999997E+02  0.45594000000E+02  0.51100000000E-03 0.  1.
         11   -1    0    0    0    0 -0.00000000000E+00 -0.00000000000E+00 -0.45593999997E+02  0.45594000000E+02  0.51100000000E-03 0. -1.
    9900012    2    1    2    0    0  0.58382057306E-01 -0.11079548157E+01 -0.40258927474E+00  0.90007724413E+02  0.89999985575E+02 0.  0.
        -12    1    1    2    0    0 -0.58382057306E-01  0.11079548157E+01  0.40258927474E+00  0.11802755874E+01  0.00000000000E+00 0.  1.
         11    1    3    3    0    0  0.15707560075E+01 -0.47803358257E+01  0.10978190641E+02  0.12076404889E+02  0.51100000000E-03 0. -1.
        -11    1    3    3    0    0  0.31228584762E+01 -0.18799508556E+02  0.27099563193E+02  0.33129444495E+02  0.51100000000E-03 0.  1.
         12    1    3    3    0    0 -0.46352324264E+01  0.22471889567E+02 -0.38480343108E+02  0.44801875029E+02  0.00000000000E+00 0. -1.
</event>
<event>
 7    1  0.2641103E-015  0.9000739E+02  0.7816164E-02  0.1186340E+00
        -11   -1    0    0    0    0  0.00000000000E+00  0.00000000000E+00  0.45593999997E+02  0.45594000000E+02  0.51100000000E-03 0.  1.
         11   -1    0    0    0    0 -0.00000000000E+00 -0.00000000000E+00 -0.45593999997E+02  0.45594000000E+02  0.51100000000E-03 0. -1.
    9900012    2    1    2    0    0 -0.27822137760E+00 -0.10713986221E+01 -0.41053062782E+00  0.90007391031E+02  0.89999647791E+02 0.  0.
        -12    1    1    2    0    0  0.27822137760E+00  0.10713986221E+01  0.41053062782E+00  0.11806089695E+01  0.00000000000E+00 0.  1.
         11    1    3    3    0    0  0.82105863864E+01 -0.35362557212E+02  0.23237965630E+01  0.36377523447E+02  0.51100000000E-03 0. -1.
        -11    1    3    3    0    0 -0.90162469358E+01 -0.49945837996E+01  0.78312223065E+01  0.12944752574E+02  0.51100000000E-03 0.  1.
        -12    1    3    3    0    0  0.52743917178E+00  0.39285742389E+02 -0.10565549497E+02  0.40685115010E+02  0.00000000000E+00 0.  1.
</event>
<event>
 7    1  0.2641103E-015  0.9000774E+02  0.7816164E-02  0.1186339E+00
        -11   -1    0    0    0    0  0.00000000000E+00  0.00000000000E+00  0.45593999997E+02  0.45594000000E+02  0.51100000000E-03 0.  1.
         11   -1    0    0    0    0 -0.00000000000E+00 -0.00000000000E+00 -0.45593999997E+02  0.45594000000E+02  0.51100000000E-03 0. -1.
    9900012    2    1    2    0    0 -0.85935793000E+00  0.79104552175E+00 -0.16960928684E+00  0.90007738851E+02  0.90000000204E+02 0.  0.
        -12    1    1    2    0    0  0.85935793000E+00 -0.79104552175E+00  0.16960928684E+00  0.11802611489E+01  0.00000000000E+00 0.  1.
         11    1    3    3    0    0 -0.67142921273E+01  0.24074945316E+02 -0.31756944676E+02  0.40412723815E+02  0.51100000000E-03 0. -1.
        -11    1    3    3    0    0 -0.45014684223E+01 -0.66728616094E+01 -0.39931188716E+01  0.89852823327E+01  0.51100000000E-03 0.  1.
        -12    1    3    3    0    0  0.10356402620E+02 -0.16611038185E+02  0.35580454261E+02  0.40609732703E+02  0.00000000000E+00 0.  1.
</event>
<event>
 7    1  0.2641103E-015  0.9000776E+02  0.7816164E-02  0.1186339E+00
        -11   -1    0    0    0    0  0.00000000000E+00  0.00000000000E+00  0.45593999997E+02  0.45594000000E+02  0.51100000000E-03 0. -1.
         11   -1    0    0    0    0 -0.00000000000E+00 -0.00000000000E+00 -0.45593999997E+02  0.45594000000E+02  0.51100000000E-03 0.  1.
    9900012    2    1    2    0    0 -0.81789507941E+00 -0.53603780730E+00  0.66081851273E+00  0.90007758500E+02  0.90000020112E+02 0.  0.
        -12    1    1    2    0    0  0.81789507941E+00  0.53603780730E+00 -0.66081851273E+00  0.11802415001E+01  0.00000000000E+00 0.  1.
         11    1    3    3    0    0  0.50752989905E+01 -0.99713524989E+01 -0.66555445423E+00  0.11208456339E+02  0.51100000000E-03 0. -1.
        -11    1    3    3    0    0  0.13891946786E+02 -0.29785676561E+02 -0.81469043609E+01  0.33860666925E+02  0.51100000000E-03 0.  1.
         12    1    3    3    0    0 -0.19785140856E+02  0.39220991253E+02  0.94732773279E+01  0.44938635236E+02  0.00000000000E+00 0. -1.
</event>
<event>
 7    1  0.2641103E-015  0.9000770E+02  0.7816164E-02  0.1186339E+00
        -11   -1    0    0    0    0  0.00000000000E+00  0.00000000000E+00  0.45593999997E+02  0.45594000000E+02  0.51100000000E-03 0.  1.
         11   -1    0    0    0    0 -0.00000000000E+00 -0.00000000000E+00 -0.45593999997E+02  0.45594000000E+02  0.51100000000E-03 0. -1.
    9900012    2    1    2    0    0 -0.22406865671E+00 -0.81445420266E+00 -0.82435566281E+00  0.90007701449E+02  0.89999962308E+02 0.  0.
        -12    1    1    2    0    0  0.22406865671E+00  0.81445420266E+00  0.82435566281E+00  0.11802985512E+01  0.00000000000E+00 0.  1.
         11    1    3    3    0    0  0.89508733276E+00 -0.79833526198E+01 -0.33887022768E+02  0.34826217318E+02  0.51100000000E-03 0. -1.
        -11    1    3    3    0    0  0.13063505356E+02  0.93563785900E+00 -0.50528750996E+01  0.14037882227E+02  0.51100000000E-03 0.  1.
        -12    1    3    3    0    0 -0.14182661346E+02  0.62332605581E+01  0.38115542204E+02  0.41143601903E+02  0.00000000000E+00 0.  1.
</event>
<event>
 7    1  0.2641103E-015  0.9000773E+02  0.7816164E-02  0.1186339E+00
        -11   -1    0    0    0    0  0.00000000000E+00  0.00000000000E+00  0.45593999997E+02  0.45594000000E+02  0.51100000000E-03 0.  1.
         11   -1    0    0    0    0 -0.00000000000E+00 -0.00000000000E+00 -0.45593999997E+02  0.45594000000E+02  0.51100000000E-03 0. -1.
    9900012    2    1    2    0    0  0.69367813755E+00  0.44908563567E+00 -0.84271547019E+00  0.90007730272E+02  0.89999991512E+02 0.  0.
        -12    1    1    2    0    0 -0.69367813755E+00 -0.44908563567E+00  0.84271547019E+00  0.11802697278E+01  0.00000000000E+00 0.  1.
         11    1    3    3    0    0  0.18129765541E+02 -0.75331292150E+01 -0.30515467851E+02  0.36285399444E+02  0.51100000000E-03 0. -1.
        -11    1    3    3    0    0  0.29002731764E+01 -0.25452657398E+01 -0.84280212618E+01  0.92693853537E+01  0.51100000000E-03 0.  1.
        -12    1    3    3    0    0 -0.20336360580E+02  0.10527480591E+02  0.38100773643E+02  0.44452945475E+02  0.00000000000E+00 0.  1.
</event>
<event>
 7    1  0.2641103E-015  0.9000767E+02  0.7816164E-02  0.1186339E+00
        -11   -1    0    0    0    0  0.00000000000E+00  0.00000000000E+00  0.45593999997E+02  0.45594000000E+02  0.51100000000E-03 0.  1.
         11   -1    0    0    0    0 -0.00000000000E+00 -0.00000000000E+00 -0.45593999997E+02  0.45594000000E+02  0.51100000000E-03 0. -1.
    9900012    2    1    2    0    0 -0.92585065064E+00 -0.67073202790E+00 -0.29342227780E+00  0.90007670591E+02  0.89999931043E+02 0.  0.
        -12    1    1    2    0    0  0.92585065064E+00  0.67073202790E+00  0.29342227780E+00  0.11803294090E+01  0.00000000000E+00 0.  1.
         11    1    3    3    0    0  0.15285149602E+02  0.33234094241E+02 -0.11979319885E+02  0.38492141062E+02  0.51100000000E-03 0. -1.
        -11    1    3    3    0    0 -0.80797132533E+01  0.55810187815E+01  0.14947109093E+01  0.99329601761E+01  0.51100000000E-03 0.  1.
        -12    1    3    3    0    0 -0.81312869995E+01 -0.39485845051E+02  0.10191186698E+02  0.41582569353E+02  0.00000000000E+00 0.  1.
</event>
<event>
 7    1  0.2641103E-015  0.9000767E+02  0.7816164E-02  0.1186339E+00
        -11   -1    0    0    0    0  0.00000000000E+00  0.00000000000E+00  0.45593999997E+02  0.45594000000E+02  0.51100000000E-03 0. -1.
         11   -1    0    0    0    0 -0.00000000000E+00 -0.00000000000E+00 -0.45593999997E+02  0.45594000000E+02  0.51100000000E-03 0.  1.
    9900012    2    1    2    0    0 -0.99191239378E+00 -0.36482661989E+00  0.52553755761E+00  0.90007670222E+02  0.89999930669E+02 0.  0.
        -12    1    1    2    0    0  0.99191239378E+00  0.36482661989E+00 -0.52553755761E+00  0.11803297776E+01  0.00000000000E+00 0.  1.
         11    1    3    3    0    0  0.16779540605E+02  0.55888473265E+01  0.30899296287E+02  0.35602734567E+02  0.51100000000E-03 0. -1.
        -11    1    3    3    0    0  0.99141718560E+01  0.58774520243E+01  0.15643421181E+00  0.11526478986E+02  0.51100000000E-03 0.  1.
        -12    1    3    3    0    0 -0.27685624854E+02 -0.11831125971E+02 -0.30530192941E+02  0.42878456669E+02  0.00000000000E+00 0.  1.
</event>
<event>
 7    1  0.2641103E-015  0.9000769E+02  0.7816164E-02  0.1186339E+00
        -11   -1    0    0    0    0  0.00000000000E+00  0.00000000000E+00  0.45593999997E+02  0.45594000000E+02  0.51100000000E-03 0.  1.
         11   -1    0    0    0    0 -0.00000000000E+00 -0.00000000000E+00 -0.45593999997E+02  0.45594000000E+02  0.51100000000E-03 0. -1.
    9900012    2    1    2    0    0 -0.96178278825E+00 -0.38275517601E+00 -0.56709472704E+00  0.90007693224E+02  0.89999953974E+02 0.  0.
        -12    1    1    2    0    0  0.96178278825E+00  0.38275517601E+00  0.56709472704E+00  0.11803067762E+01  0.00000000000E+00 0.  1.
         11    1    3    3    0    0  0.67560426100E+01 -0.42442632960E+01  0.32353777858E-01  0.79786546298E+01  0.51100000000E-03 0. -1.
        -11    1    3    3    0    0  0.27496366584E+02 -0.23748304881E+02 -0.64510888342E+01  0.36900524488E+02  0.51100000000E-03 0.  1.
         12    1    3    3    0    0 -0.35214191983E+02  0.27609813001E+02  0.58516403293E+01  0.45128514106E+02  0.00000000000E+00 0. -1.
</event>
<event>
 7    1  0.2641103E-015  0.9000770E+02  0.7816164E-02  0.1186339E+00
        -11   -1    0    0    0    0  0.00000000000E+00  0.00000000000E+00  0.45593999997E+02  0.45594000000E+02  0.51100000000E-03 0. -1.
         11   -1    0    0    0    0 -0.00000000000E+00 -0.00000000000E+00 -0.45593999997E+02  0.45594000000E+02  0.51100000000E-03 0.  1.
    9900012    2    1    2    0    0  0.68204757427E+00 -0.91638061430E+00  0.29694042390E+00  0.90007696675E+02  0.89999957471E+02 0.  0.
        -12    1    1    2    0    0 -0.68204757427E+00  0.91638061430E+00 -0.29694042390E+00  0.11803033251E+01  0.00000000000E+00 0.  1.
         11    1    3    3    0    0  0.36087214594E+02  0.17876953148E+02 -0.60696379263E+01  0.40727300620E+02  0.51100000000E-03 0. -1.
        -11    1    3    3    0    0 -0.37653328353E+01  0.11220908471E+01  0.10932188186E+02  0.11616779159E+02  0.51100000000E-03 0.  1.
        -12    1    3    3    0    0 -0.31639834184E+02 -0.19915424609E+02 -0.45656098355E+01  0.37663616896E+02  0.00000000000E+00 0.  1.
</event>
<event>
 7    1  0.2641103E-015  0.9000778E+02  0.7816164E-02  0.1186339E+00
        -11   -1    0    0    0    0  0.00000000000E+00  0.00000000000E+00  0.45593999997E+02  0.45594000000E+02  0.51100000000E-03 0.  1.
         11   -1    0    0    0    0 -0.00000000000E+00 -0.00000000000E+00 -0.45593999997E+02  0.45594000000E+02  0.51100000000E-03 0. -1.
    9900012    2    1    2    0    0  0.22720028115E+00 -0.11133208820E+01 -0.31907668397E+00  0.90007782527E+02  0.90000044456E+02 0.  0.
        -12    1    1    2    0    0 -0.22720028115E+00  0.11133208820E+01  0.31907668397E+00  0.11802174733E+01  0.00000000000E+00 0.  1.
         11    1    3    3    0    0 -0.46839509090E+01 -0.95792776084E+01  0.61591476051E+00  0.10680885116E+02  0.51100000000E-03 0. -1.
        -11    1    3    3    0    0 -0.35031693166E+02 -0.20210286527E+01  0.10224260600E+02  0.36549139360E+02  0.51100000000E-03 0.  1.
         12    1    3    3    0    0  0.39942844356E+02  0.10486985379E+02 -0.11159252045E+02  0.42777758050E+02  0.00000000000E+00 0. -1.
</event>
<event>
 7    1  0.2641103E-015  0.9000773E+02  0.7816164E-02  0.1186339E+00
        -11   -1    0    0    0    0  0.00000000000E+00  0.00000000000E+00  0.45593999997E+02  0.45594000000E+02  0.51100000000E-03 0. -1.
         11   -1    0    0    0    0 -0.00000000000E+00 -0.00000000000E+00 -0.45593999997E+02  0.45594000000E+02  0.51100000000E-03 0.  1.
    9900012    2    1    2    0    0  0.66284586935E+00 -0.90662238890E+00  0.36291768043E+00  0.90007729673E+02  0.89999990904E+02 0.  0.
        -12    1    1    2    0    0 -0.66284586935E+00  0.90662238890E+00 -0.36291768043E+00  0.11802703272E+01  0.00000000000E+00 0.  1.
         11    1    3    3    0    0  0.73417801004E+01  0.48194023365E+01 -0.48679217472E+01  0.10041167080E+02  0.51100000000E-03 0. -1.
        -11    1    3    3    0    0  0.25579637093E+02  0.14005318728E+02 -0.19228156418E+02  0.34931200752E+02  0.51100000000E-03 0.  1.
         12    1    3    3    0    0 -0.32258571324E+02 -0.19731343453E+02  0.24458995846E+02  0.45035361841E+02  0.00000000000E+00 0. -1.
</event>
<event>
 7    1  0.2641103E-015  0.9000782E+02  0.7816164E-02  0.1186339E+00
        -11   -1    0    0    0    0  0.00000000000E+00  0.00000000000E+00  0.45593999997E+02  0.45594000000E+02  0.51100000000E-03 0.  1.
         11   -1    0    0    0    0 -0.00000000000E+00 -0.00000000000E+00 -0.45593999997E+02  0.45594000000E+02  0.51100000000E-03 0. -1.
    9900012    2    1    2    0    0 -0.24813070728E+00 -0.70453160359E+00 -0.91371881619E+00  0.90007823868E+02  0.90000086343E+02 0.  0.
        -12    1    1    2    0    0  0.24813070728E+00  0.70453160359E+00  0.91371881619E+00  0.11801761324E+01  0.00000000000E+00 0.  1.
         11    1    3    3    0    0  0.31349137462E+02  0.34674640588E+01 -0.24070653254E+02  0.39676039054E+02  0.51100000000E-03 0. -1.
        -11    1    3    3    0    0  0.58393856853E+01  0.32118529347E+00  0.74860019099E+01  0.94995689392E+01  0.51100000000E-03 0.  1.
        -12    1    3    3    0    0 -0.37436653855E+02 -0.44931809559E+01  0.15670932528E+02  0.40832215875E+02  0.00000000000E+00 0.  1.
</event>
<event>
 7    1  0.2641103E-015  0.9000782E+02  0.7816164E-02  0.1186339E+00
        -11   -1    0    0    0    0  0.00000000000E+00  0.00000000000E+00  0.45593999997E+02  0.45594000000E+02  0.51100000000E-03 0.  1.
         11   -1    0    0    0    0 -0.00000000000E+00 -0.00000000000E+00 -0.45593999997E+02  0.45594000000E+02  0.51100000000E-03 0. -1.
    9900012    2    1    2    0    0  0.90164996664E+00  0.74113793981E+00  0.17485273724E+00  0.90007817138E+02  0.90000079524E+02 0.  0.
        -12    1    1    2    0    0 -0.90164996664E+00 -0.74113793981E+00 -0.17485273724E+00  0.11801828621E+01  0.00000000000E+00 0.  1.
         11    1    3    3    0    0 -0.57949728716E+01 -0.79442831320E+01  0.16042790065E+01  0.99632854248E+01  0.51100000000E-03 0. -1.
        -11    1    3    3    0    0  0.29276854318E+02 -0.12686772829E+02  0.23961636108E+02  0.39902987467E+02  0.51100000000E-03 0.  1.
         12    1    3    3    0    0 -0.22580231480E+02  0.21372193901E+02 -0.25391062377E+02  0.40141544246E+02  0.00000000000E+00 0. -1.
</event>
<event>
 7    1  0.2641103E-015  0.9000777E+02  0.7816164E-02  0.1186339E+00
        -11   -1    0    0    0    0  0.00000000000E+00  0.00000000000E+00  0.45593999997E+02  0.45594000000E+02  0.51100000000E-03 0.  1.
         11   -1    0    0    0    0 -0.00000000000E+00 -0.00000000000E+00 -0.45593999997E+02  0.45594000000E+02  0.51100000000E-03 0. -1.
    9900012    2    1    2    0    0 -0.53106889216E+00  0.94212891567E+00  0.47254427599E+00  0.90007771567E+02  0.90000033351E+02 0.  0.
        -12    1    1    2    0    0  0.53106889216E+00 -0.94212891567E+00 -0.47254427599E+00  0.11802284333E+01  0.00000000000E+00 0.  1.
         11    1    3    3    0    0  0.36916974471E+01  0.10229834304E+02 -0.39888685619E+02  0.41344714059E+02  0.51100000000E-03 0. -1.
        -11    1    3    3    0    0  0.47677769665E+00  0.31410682336E+00 -0.34855021375E+01  0.35319549091E+01  0.51100000000E-03 0.  1.
        -12    1    3    3    0    0 -0.46995440359E+01 -0.96018122116E+01  0.43846732032E+02  0.45131102599E+02  0.00000000000E+00 0.  1.
</event>
<event>
 7    1  0.2641103E-015  0.9000781E+02  0.7816164E-02  0.1186339E+00
        -11   -1    0    0    0    0  0.00000000000E+00  0.00000000000E+00  0.45593999997E+02  0.45594000000E+02  0.51100000000E-03 0.  1.
         11   -1    0    0    0    0 -0.00000000000E+00 -0.00000000000E+00 -0.45593999997E+02  0.45594000000E+02  0.51100000000E-03 0. -1.
    9900012    2    1    2    0    0  0.87581706675E+00 -0.61087844773E-01 -0.78871279008E+00  0.90007807166E+02  0.90000069421E+02 0.  0.
        -12    1    1    2    0    0 -0.87581706675E+00  0.61087844773E-01  0.78871279008E+00  0.11801928336E+01  0.00000000000E+00 0.  1.
         11    1    3    3    0    0 -0.12841128210E+01  0.12940066048E+01  0.92888512944E+01  0.94660528977E+01  0.51100000000E-03 0. -1.
        -11    1    3    3    0    0  0.74513672806E+00  0.20721310212E+02  0.28992310539E+02  0.35643821292E+02  0.51100000000E-03 0.  1.
         12    1    3    3    0    0  0.14147931597E+01 -0.22076404662E+02 -0.39069874624E+02  0.44897932977E+02  0.00000000000E+00 0. -1.
</event>
<event>
 7    1  0.2641103E-015  0.9000769E+02  0.7816164E-02  0.1186339E+00
        -11   -1    0    0    0    0  0.00000000000E+00  0.00000000000E+00  0.45593999997E+02  0.45594000000E+02  0.51100000000E-03 0.  1.
         11   -1    0    0    0    0 -0.00000000000E+00 -0.00000000000E+00 -0.45593999997E+02  0.45594000000E+02  0.51100000000E-03 0. -1.
    9900012    2    1    2    0    0  0.10856206438E+01  0.36291185528E+00 -0.28782749284E+00  0.90007694166E+02  0.89999954929E+02 0.  0.
        -12    1    1    2    0    0 -0.10856206438E+01 -0.36291185528E+00  0.28782749284E+00  0.11803058344E+01  0.00000000000E+00 0.  1.
         11    1    3    3    0    0 -0.36355882520E+01 -0.32772108198E+02 -0.23305258915E+02  0.40377762085E+02  0.51100000000E-03 0. -1.
        -11    1    3    3    0    0  0.35547592594E+00 -0.41849683212E+01  0.82501996388E+01  0.92577598437E+01  0.51100000000E-03 0.  1.
        -12    1    3    3    0    0  0.43657329699E+01  0.37319988374E+02  0.14767231783E+02  0.40372172237E+02  0.00000000000E+00 0.  1.
</event>
<event>
 7    1  0.2641103E-015  0.9000771E+02  0.7816164E-02  0.1186339E+00
        -11   -1    0    0    0    0  0.00000000000E+00  0.00000000000E+00  0.45593999997E+02  0.45594000000E+02  0.51100000000E-03 0.  1.
         11   -1    0    0    0    0 -0.00000000000E+00 -0.00000000000E+00 -0.45593999997E+02  0.45594000000E+02  0.51100000000E-03 0. -1.
    9900012    2    1    2    0    0  0.31853179434E-01  0.10895472538E+01  0.45273297734E+00  0.90007705549E+02  0.89999966462E+02 0.  0.
        -12    1    1    2    0    0 -0.31853179434E-01 -0.10895472538E+01 -0.45273297734E+00  0.11802944514E+01  0.00000000000E+00 0.  1.
         11    1    3    3    0    0  0.18100928605E+02  0.99310731552E+01 -0.28757396139E+02  0.35401379399E+02  0.51100000000E-03 0. -1.
        -11    1    3    3    0    0  0.56644743687E+01  0.23857668533E+01 -0.73589968104E+01  0.95881691510E+01  0.51100000000E-03 0.  1.
        -12    1    3    3    0    0 -0.23733549795E+02 -0.11227292755E+02  0.36569125927E+02  0.45018156998E+02  0.00000000000E+00 0.  1.
</event>
<event>
 7    1  0.2641103E-015  0.9000779E+02  0.7816164E-02  0.1186339E+00
        -11   -1    0    0    0    0  0.00000000000E+00  0.00000000000E+00  0.45593999997E+02  0.45594000000E+02  0.51100000000E-03 0. -1.
         11   -1    0    0    0    0 -0.00000000000E+00 -0.00000000000E+00 -0.45593999997E+02  0.45594000000E+02  0.51100000000E-03 0.  1.
    9900012    2    1    2    0    0 -0.53441168406E+00 -0.16367848020E+00  0.10394732819E+01  0.90007791884E+02  0.90000053937E+02 0.  0.
        -12    1    1    2    0    0  0.53441168406E+00  0.16367848020E+00 -0.10394732819E+01  0.11802081158E+01  0.00000000000E+00 0.  1.
         11    1    3    3    0    0 -0.19181984234E+01 -0.29021748347E+01 -0.17796972272E+02  0.18133789628E+02  0.51100000000E-03 0. -1.
        -11    1    3    3    0    0 -0.16160870050E+02 -0.20762143444E+02 -0.12349372481E+02  0.29064537190E+02  0.51100000000E-03 0.  1.
         12    1    3    3    0    0  0.17544656789E+02  0.23500639798E+02  0.31185818034E+02  0.42809465066E+02  0.00000000000E+00 0. -1.
</event>
<event>
 7    1  0.2641103E-015  0.9000764E+02  0.7816164E-02  0.1186339E+00
        -11   -1    0    0    0    0  0.00000000000E+00  0.00000000000E+00  0.45593999997E+02  0.45594000000E+02  0.51100000000E-03 0.  1.
         11   -1    0    0    0    0 -0.00000000000E+00 -0.00000000000E+00 -0.45593999997E+02  0.45594000000E+02  0.51100000000E-03 0. -1.
    9900012    2    1    2    0    0 -0.11497834734E+01  0.16756941410E+00 -0.20775422061E+00  0.90007642698E+02  0.89999902782E+02 0.  0.
        -12    1    1    2    0    0  0.11497834734E+01 -0.16756941410E+00  0.20775422061E+00  0.11803573020E+01  0.00000000000E+00 0.  1.
         11    1    3    3    0    0 -0.40376123052E+01  0.29355519858E+01 -0.55692072189E+01  0.74790272026E+01  0.51100000000E-03 0. -1.
        -11    1    3    3    0    0 -0.23235997413E+02  0.27108036256E+02 -0.14025532088E+02  0.38359780448E+02  0.51100000000E-03 0.  1.
         12    1    3    3    0    0  0.26123826244E+02 -0.29876018828E+02  0.19386985087E+02  0.44168835047E+02  0.00000000000E+00 0. -1.
</event>
<event>
 7    1  0.2641103E-015  0.9000772E+02  0.7816164E-02  0.1186339E+00
        -11   -1    0    0    0    0  0.00000000000E+00  0.00000000000E+00  0.45593999997E+02  0.45594000000E+02  0.51100000000E-03 0. -1.
         11   -1    0    0    0    0 -0.00000000000E+00 -0.00000000000E+00 -0.45593999997E+02  0.45594000000E+02  0.51100000000E-03 0.  1.
    9900012    2    1    2    0    0  0.96824471917E+00 -0.61882867088E+00 -0.26945998742E+00  0.90007722302E+02  0.89999983436E+02 0.  0.
        -12    1    1    2    0    0 -0.96824471917E+00  0.61882867088E+00  0.26945998742E+00  0.11802776982E+01  0.00000000000E+00 0.  1.
         11    1    3    3    0    0 -0.17562233995E+01  0.82425378140E+01 -0.59600951652E+00  0.84486080421E+01  0.51100000000E-03 0. -1.
        -11    1    3    3    0    0  0.22930606981E+02  0.25644325521E+02 -0.16527770952E+02  0.38165578481E+02  0.51100000000E-03 0.  1.
         12    1    3    3    0    0 -0.20206138862E+02 -0.34505692005E+02  0.16854320481E+02  0.43393535778E+02  0.00000000000E+00 0. -1.
</event>
<event>
 7    1  0.2641103E-015  0.9000773E+02  0.7816164E-02  0.1186339E+00
        -11   -1    0    0    0    0  0.00000000000E+00  0.00000000000E+00  0.45593999997E+02  0.45594000000E+02  0.51100000000E-03 0. -1.
         11   -1    0    0    0    0 -0.00000000000E+00 -0.00000000000E+00 -0.45593999997E+02  0.45594000000E+02  0.51100000000E-03 0.  1.
    9900012    2    1    2    0    0 -0.59878266141E+00 -0.10017497744E+01 -0.17602827274E+00  0.90007733403E+02  0.89999994684E+02 0.  0.
        -12    1    1    2    0    0  0.59878266141E+00  0.10017497744E+01  0.17602827274E+00  0.11802665965E+01  0.00000000000E+00 0.  1.
         11    1    3    3    0    0  0.45051420114E+01  0.30207449532E+02  0.26893040882E+02  0.40694249716E+02  0.51100000000E-03 0. -1.
        -11    1    3    3    0    0  0.34696149153E+01  0.27922008206E+01 -0.85918728052E+01  0.96775457449E+01  0.51100000000E-03 0.  1.
        -12    1    3    3    0    0 -0.85735395881E+01 -0.34001400127E+02 -0.18477196350E+02  0.39635937943E+02  0.00000000000E+00 0.  1.
</event>
<event>
 7    1  0.2641103E-015  0.9000780E+02  0.7816164E-02  0.1186339E+00
        -11   -1    0    0    0    0  0.00000000000E+00  0.00000000000E+00  0.45593999997E+02  0.45594000000E+02  0.51100000000E-03 0.  1.
         11   -1    0    0    0    0 -0.00000000000E+00 -0.00000000000E+00 -0.45593999997E+02  0.45594000000E+02  0.51100000000E-03 0. -1.
    9900012    2    1    2    0    0  0.96232637202E+00  0.47663786734E+00 -0.48950766129E+00  0.90007799401E+02  0.90000061553E+02 0.  0.
        -12    1    1    2    0    0 -0.96232637202E+00 -0.47663786734E+00  0.48950766129E+00  0.11802005988E+01  0.00000000000E+00 0.  1.
         11    1    3    3    0    0  0.27413609381E+02  0.13767037639E+02 -0.18436081955E+02  0.35790032449E+02  0.51100000000E-03 0. -1.
        -11    1    3    3    0    0  0.72608666002E+01  0.41752495938E+01 -0.50965180608E+01  0.98044576373E+01  0.51100000000E-03 0.  1.
        -12    1    3    3    0    0 -0.33712149609E+02 -0.17465649365E+02  0.23043092354E+02  0.44413309314E+02  0.00000000000E+00 0.  1.
</event>
<event>
 7    1  0.2641103E-015  0.9000773E+02  0.7816164E-02  0.1186339E+00
        -11   -1    0    0    0    0  0.00000000000E+00  0.00000000000E+00  0.45593999997E+02  0.45594000000E+02  0.51100000000E-03 0. -1.
         11   -1    0    0    0    0 -0.00000000000E+00 -0.00000000000E+00 -0.45593999997E+02  0.45594000000E+02  0.51100000000E-03 0.  1.
    9900012    2    1    2    0    0  0.55263396641E+00 -0.72318229437E+00 -0.75142740529E+00  0.90007728812E+02  0.89999990032E+02 0.  0.
        -12    1    1    2    0    0 -0.55263396641E+00  0.72318229437E+00  0.75142740529E+00  0.11802711880E+01  0.00000000000E+00 0.  1.
         11    1    3    3    0    0  0.25967445727E+02  0.21057876840E+02  0.12121689854E+02  0.35562308415E+02  0.51100000000E-03 0. -1.
        -11    1    3    3    0    0 -0.90896831572E+01  0.68125770465E+01  0.93577556455E+01  0.14717375340E+02  0.51100000000E-03 0.  1.
        -12    1    3    3    0    0 -0.16325128604E+02 -0.28593636181E+02 -0.22230872905E+02  0.39728045057E+02  0.00000000000E+00 0.  1.
</event>
<event>
 7    1  0.2641103E-015  0.9000783E+02  0.7816164E-02  0.1186339E+00
        -11   -1    0    0    0    0  0.00000000000E+00  0.00000000000E+00  0.45593999997E+02  0.45594000000E+02  0.51100000000E-03 0.  1.
         11   -1    0    0    0    0 -0.00000000000E+00 -0.00000000000E+00 -0.45593999997E+02  0.45594000000E+02  0.51100000000E-03 0. -1.
    9900012    2    1    2    0    0 -0.25682084849E-01  0.11759218475E+01 -0.96683937762E-01  0.90007830714E+02  0.90000093279E+02 0.  0.
        -12    1    1    2    0    0  0.25682084849E-01 -0.11759218475E+01  0.96683937762E-01  0.11801692864E+01  0.00000000000E+00 0.  1.
         11    1    3    3    0    0 -0.12659864194E+01  0.36628165077E+02 -0.14081698008E+02  0.39262188140E+02  0.51100000000E-03 0. -1.
        -11    1    3    3    0    0 -0.20261425757E+01  0.52931976744E+01  0.74335744367E+01  0.93477924947E+01  0.51100000000E-03 0.  1.
        -12    1    3    3    0    0  0.32664469102E+01 -0.40745440904E+02  0.65514396336E+01  0.41397850079E+02  0.00000000000E+00 0.  1.
</event>
<event>
 7    1  0.2641103E-015  0.9000771E+02  0.7816164E-02  0.1186339E+00
        -11   -1    0    0    0    0  0.00000000000E+00  0.00000000000E+00  0.45593999997E+02  0.45594000000E+02  0.51100000000E-03 0.  1.
         11   -1    0    0    0    0 -0.00000000000E+00 -0.00000000000E+00 -0.45593999997E+02  0.45594000000E+02  0.51100000000E-03 0. -1.
    9900012    2    1    2    0    0 -0.81230367757E+00  0.63606123296E+00 -0.57329706109E+00  0.90007711613E+02  0.89999972606E+02 0.  0.
        -12    1    1    2    0    0  0.81230367757E+00 -0.63606123296E+00  0.57329706109E+00  0.11802883872E+01  0.00000000000E+00 0.  1.
         11    1    3    3    0    0 -0.30328539921E+02  0.14068896747E+01 -0.22570583374E+02  0.37831612527E+02  0.51100000000E-03 0. -1.
        -11    1    3    3    0    0 -0.87806726185E+01 -0.15633678687E+01  0.54303130717E+01  0.10441869136E+02  0.51100000000E-03 0.  1.
        -12    1    3    3    0    0  0.38296908862E+02  0.79253942692E+00  0.16566973241E+02  0.41734229950E+02  0.00000000000E+00 0.  1.
</event>
<event>
 7    1  0.2641103E-015  0.9000773E+02  0.7816164E-02  0.1186339E+00
        -11   -1    0    0    0    0  0.00000000000E+00  0.00000000000E+00  0.45593999997E+02  0.45594000000E+02  0.51100000000E-03 0.  1.
         11   -1    0    0    0    0 -0.00000000000E+00 -0.00000000000E+00 -0.45593999997E+02  0.45594000000E+02  0.51100000000E-03 0. -1.
    9900012    2    1    2    0    0 -0.95331182591E+00 -0.41110445134E+00 -0.56145994145E+00  0.90007725636E+02  0.89999986815E+02 0.  0.
        -12    1    1    2    0    0  0.95331182591E+00  0.41110445134E+00  0.56145994145E+00  0.11802743635E+01  0.00000000000E+00 0.  1.
         11    1    3    3    0    0 -0.19818226898E+02 -0.20119792987E+02 -0.23892916456E+02  0.36992426850E+02  0.51100000000E-03 0. -1.
        -11    1    3    3    0    0 -0.12033666855E+01 -0.10545855915E+02  0.16866860917E+01  0.10747468474E+02  0.51100000000E-03 0.  1.
        -12    1    3    3    0    0  0.20068281758E+02  0.30254544451E+02  0.21644770423E+02  0.42267830312E+02  0.00000000000E+00 0.  1.
</event>
<event>
 7    1  0.2641103E-015  0.9000770E+02  0.7816164E-02  0.1186339E+00
        -11   -1    0    0    0    0  0.00000000000E+00  0.00000000000E+00  0.45593999997E+02  0.45594000000E+02  0.51100000000E-03 0.  1.
         11   -1    0    0    0    0 -0.00000000000E+00 -0.00000000000E+00 -0.45593999997E+02  0.45594000000E+02  0.51100000000E-03 0. -1.
    9900012    2    1    2    0    0 -0.76474012051E+00 -0.63519308441E+00 -0.63624345472E+00  0.90007701970E+02  0.89999962836E+02 0.  0.
        -12    1    1    2    0    0  0.76474012051E+00  0.63519308441E+00  0.63624345472E+00  0.11802980302E+01  0.00000000000E+00 0.  1.
         11    1    3    3    0    0 -0.29884096241E+02  0.10113163542E+02 -0.47448500186E+01  0.31903744090E+02  0.51100000000E-03 0. -1.
        -11    1    3    3    0    0  0.51856835174E+01  0.28657516001E+01  0.23623365748E+02  0.24355025258E+02  0.51100000000E-03 0.  1.
         12    1    3    3    0    0  0.23933672603E+02 -0.13614108227E+02 -0.19514759185E+02  0.33748932622E+02  0.00000000000E+00 0. -1.
</event>
<event>
 7    1  0.2641103E-015  0.9000775E+02  0.7816164E-02  0.1186339E+00
        -11   -1    0    0    0    0  0.00000000000E+00  0.00000000000E+00  0.45593999997E+02  0.45594000000E+02  0.51100000000E-03 0. -1.
         11   -1    0    0    0    0 -0.00000000000E+00 -0.00000000000E+00 -0.45593999997E+02  0.45594000000E+02  0.51100000000E-03 0.  1.
    9900012    2    1    2    0    0  0.38738092277E+00  0.69332933553E+00  0.87305217648E+00  0.90007750175E+02  0.90000011677E+02 0.  0.
        -12    1    1    2    0    0 -0.38738092277E+00 -0.69332933553E+00 -0.87305217648E+00  0.11802498251E+01  0.00000000000E+00 0.  1.
         11    1    3    3    0    0 -0.81400877795E+01  0.41669989754E+01  0.13439322902E+01  0.92428926089E+01  0.51100000000E-03 0. -1.
        -11    1    3    3    0    0 -0.34830278957E+02  0.82854294840E+01  0.10095077009E+01  0.35816417744E+02  0.51100000000E-03 0.  1.
         12    1    3    3    0    0  0.43357747660E+02 -0.11759099124E+02 -0.14803878146E+01  0.44948439822E+02  0.00000000000E+00 0. -1.
</event>
<event>
 7    1  0.2641103E-015  0.9000777E+02  0.7816164E-02  0.1186339E+00
        -11   -1    0    0    0    0  0.00000000000E+00  0.00000000000E+00  0.45593999997E+02  0.45594000000E+02  0.51100000000E-03 0.  1.
         11   -1    0    0    0    0 -0.00000000000E+00 -0.00000000000E+00 -0.45593999997E+02  0.45594000000E+02  0.51100000000E-03 0. -1.
    9900012    2    1    2    0    0 -0.10486156692E+00 -0.11614652130E+01 -0.18153212828E+00  0.90007766420E+02  0.90000028137E+02 0.  0.
        -12    1    1    2    0    0  0.10486156692E+00  0.11614652130E+01  0.18153212828E+00  0.11802335797E+01  0.00000000000E+00 0.  1.
         11    1    3    3    0    0 -0.29213880830E+02  0.26340951715E+02 -0.13354201254E+02  0.41540718119E+02  0.51100000000E-03 0. -1.
        -11    1    3    3    0    0 -0.16440517356E+00 -0.24002393753E+01  0.94202142328E+01  0.97225827110E+01  0.51100000000E-03 0.  1.
        -12    1    3    3    0    0  0.29273424437E+02 -0.25102177553E+02  0.37524548929E+01  0.38744465590E+02  0.00000000000E+00 0.  1.
</event>
<event>
 7    1  0.2641103E-015  0.9000776E+02  0.7816164E-02  0.1186339E+00
        -11   -1    0    0    0    0  0.00000000000E+00  0.00000000000E+00  0.45593999997E+02  0.45594000000E+02  0.51100000000E-03 0.  1.
         11   -1    0    0    0    0 -0.00000000000E+00 -0.00000000000E+00 -0.45593999997E+02  0.45594000000E+02  0.51100000000E-03 0. -1.
    9900012    2    1    2    0    0 -0.37280747124E+00  0.39931504472E-01 -0.11191024045E+01  0.90007758445E+02  0.90000020057E+02 0.  0.
        -12    1    1    2    0    0  0.37280747124E+00 -0.39931504472E-01  0.11191024045E+01  0.11802415547E+01  0.00000000000E+00 0.  1.
         11    1    3    3    0    0 -0.12278309563E+02  0.18528133806E+01 -0.37119742281E+02  0.39141602809E+02  0.51100000000E-03 0. -1.
        -11    1    3    3    0    0  0.47750235420E+01 -0.73382448883E+01 -0.41683815607E+01  0.96967052633E+01  0.51100000000E-03 0.  1.
        -12    1    3    3    0    0  0.71304785499E+01  0.55253630122E+01  0.40169021438E+02  0.41169450373E+02  0.00000000000E+00 0.  1.
</event>
<event>
 7    1  0.4798934E-015  0.9000768E+02  0.7816164E-02  0.1186339E+00
        -11   -1    0    0    0    0  0.00000000000E+00  0.00000000000E+00  0.45593999997E+02  0.45594000000E+02  0.51100000000E-03 0. -1.
         11   -1    0    0    0    0 -0.00000000000E+00 -0.00000000000E+00 -0.45593999997E+02  0.45594000000E+02  0.51100000000E-03 0.  1.
    9900012    2    1    2    0    0  0.24377562670E+00  0.19398488563E+00  0.11384637174E+01  0.90007679566E+02  0.89999940136E+02 0.  0.
        -12    1    1    2    0    0 -0.24377562670E+00 -0.19398488563E+00 -0.11384637174E+01  0.11803204344E+01  0.00000000000E+00 0.  1.
         11    1    3    3    0    0  0.46720650749E+01 -0.66423325128E+01 -0.50839160490E+01  0.95809694671E+01  0.51100000000E-03 0. -1.
        -11    1    3    3    0    0  0.60410377557E+01  0.18497687299E+02 -0.32932601594E+02  0.38251991067E+02  0.51100000000E-03 0.  1.
         12    1    3    3    0    0 -0.10469327204E+02 -0.11661369900E+02  0.39154981361E+02  0.42174719032E+02  0.00000000000E+00 0. -1.
</event>
<event>
 7    1  0.2641103E-015  0.9000771E+02  0.7816164E-02  0.1186339E+00
        -11   -1    0    0    0    0  0.00000000000E+00  0.00000000000E+00  0.45593999997E+02  0.45594000000E+02  0.51100000000E-03 0.  1.
         11   -1    0    0    0    0 -0.00000000000E+00 -0.00000000000E+00 -0.45593999997E+02  0.45594000000E+02  0.51100000000E-03 0. -1.
    9900012    2    1    2    0    0  0.64075864976E+00  0.82379653667E+00 -0.55125479930E+00  0.90007705869E+02  0.89999966787E+02 0.  0.
        -12    1    1    2    0    0 -0.64075864976E+00 -0.82379653667E+00  0.55125479930E+00  0.11802941306E+01  0.00000000000E+00 0.  1.
         11    1    3    3    0    0  0.19416767093E+02 -0.20935845211E+02 -0.29235335905E+02  0.40865943336E+02  0.51100000000E-03 0. -1.
        -11    1    3    3    0    0  0.13576300489E+01  0.70389559844E+01 -0.38582100875E+01  0.81409978529E+01  0.51100000000E-03 0.  1.
        -12    1    3    3    0    0 -0.20133638492E+02  0.14720685763E+02  0.32542291193E+02  0.41000764680E+02  0.00000000000E+00 0.  1.
</event>
<event>
 7    1  0.3120457E-015  0.9000769E+02  0.7816164E-02  0.1186339E+00
        -11   -1    0    0    0    0  0.00000000000E+00  0.00000000000E+00  0.45593999997E+02  0.45594000000E+02  0.51100000000E-03 0.  1.
         11   -1    0    0    0    0 -0.00000000000E+00 -0.00000000000E+00 -0.45593999997E+02  0.45594000000E+02  0.51100000000E-03 0. -1.
    9900012    2    1    2    0    0  0.30377721640E+00  0.59859592379E+00 -0.97084701564E+00  0.90007685802E+02  0.89999946455E+02 0.  0.
        -12    1    1    2    0    0 -0.30377721640E+00 -0.59859592379E+00  0.97084701564E+00  0.11803141976E+01  0.00000000000E+00 0.  1.
         11    1    3    3    0    0  0.63491156141E+01  0.78068512861E+01 -0.10230726384E+01  0.10114587187E+02  0.51100000000E-03 0. -1.
        -11    1    3    3    0    0 -0.69752603342E+01  0.16783435626E+02  0.33858481928E+02  0.38428306844E+02  0.51100000000E-03 0.  1.
         12    1    3    3    0    0  0.92992193647E+00 -0.23991690988E+02 -0.33806256305E+02  0.41464791772E+02  0.00000000000E+00 0. -1.
</event>
<event>
 7    1  0.2641103E-015  0.9000765E+02  0.7816164E-02  0.1186339E+00
        -11   -1    0    0    0    0  0.00000000000E+00  0.00000000000E+00  0.45593999997E+02  0.45594000000E+02  0.51100000000E-03 0.  1.
         11   -1    0    0    0    0 -0.00000000000E+00 -0.00000000000E+00 -0.45593999997E+02  0.45594000000E+02  0.51100000000E-03 0. -1.
    9900012    2    1    2    0    0 -0.34213788618E+00 -0.10625269882E+01 -0.38366535505E+00  0.90007652154E+02  0.89999912362E+02 0.  0.
        -12    1    1    2    0    0  0.34213788618E+00  0.10625269882E+01  0.38366535505E+00  0.11803478464E+01  0.00000000000E+00 0.  1.
         11    1    3    3    0    0 -0.42091027220E+01 -0.10808094894E+02  0.14827730184E+01  0.11693163689E+02  0.51100000000E-03 0. -1.
        -11    1    3    3    0    0 -0.30213618826E+02 -0.11213554462E+02  0.14177268104E+02  0.35207974912E+02  0.51100000000E-03 0.  1.
         12    1    3    3    0    0  0.34080583662E+02  0.20959122368E+02 -0.16043706477E+02  0.43106513553E+02  0.00000000000E+00 0. -1.
</event>
<event>
 7    1  0.2641103E-015  0.9000772E+02  0.7816164E-02  0.1186339E+00
        -11   -1    0    0    0    0  0.00000000000E+00  0.00000000000E+00  0.45593999997E+02  0.45594000000E+02  0.51100000000E-03 0.  1.
         11   -1    0    0    0    0 -0.00000000000E+00 -0.00000000000E+00 -0.45593999997E+02  0.45594000000E+02  0.51100000000E-03 0. -1.
    9900012    2    1    2    0    0 -0.51892686887E+00  0.10476096474E+01 -0.16214268922E+00  0.90007719813E+02  0.89999980914E+02 0.  0.
        -12    1    1    2    0    0  0.51892686887E+00 -0.10476096474E+01  0.16214268922E+00  0.11802801872E+01  0.00000000000E+00 0.  1.
         11    1    3    3    0    0 -0.14130017258E+01 -0.20515764052E+01  0.92702813040E+01  0.95991486779E+01  0.51100000000E-03 0. -1.
        -11    1    3    3    0    0 -0.11077228940E+02  0.12307599182E+02  0.32152559967E+02  0.36165855600E+02  0.51100000000E-03 0.  1.
         12    1    3    3    0    0  0.11971303797E+02 -0.92084131295E+01 -0.41584983960E+02  0.44242715535E+02  0.00000000000E+00 0. -1.
</event>
<event>
 7    1  0.2641103E-015  0.9000754E+02  0.7816164E-02  0.1186339E+00
        -11   -1    0    0    0    0  0.00000000000E+00  0.00000000000E+00  0.45593999997E+02  0.45594000000E+02  0.51100000000E-03 0.  1.
         11   -1    0    0    0    0 -0.00000000000E+00 -0.00000000000E+00 -0.45593999997E+02  0.45594000000E+02  0.51100000000E-03 0. -1.
    9900012    2    1    2    0    0 -0.25313040870E+00  0.10134570289E+01 -0.54982258515E+00  0.90007544567E+02  0.89999803356E+02 0.  0.
        -12    1    1    2    0    0  0.25313040870E+00 -0.10134570289E+01  0.54982258515E+00  0.11804554326E+01  0.00000000000E+00 0.  1.
         11    1    3    3    0    0 -0.41823314050E+01 -0.86517956598E+01 -0.85127855956E-01  0.96100317967E+01  0.51100000000E-03 0. -1.
        -11    1    3    3    0    0  0.59322354830E+01 -0.27232775589E+02  0.23414256404E+02  0.36401138544E+02  0.51100000000E-03 0.  1.
         12    1    3    3    0    0 -0.20030344866E+01  0.36898028277E+02 -0.23878951133E+02  0.43996374227E+02  0.00000000000E+00 0. -1.
</event>
<event>
 7    1  0.2641103E-015  0.9000762E+02  0.7816164E-02  0.1186339E+00
        -11   -1    0    0    0    0  0.00000000000E+00  0.00000000000E+00  0.45593999997E+02  0.45594000000E+02  0.51100000000E-03 0. -1.
         11   -1    0    0    0    0 -0.00000000000E+00 -0.00000000000E+00 -0.45593999997E+02  0.45594000000E+02  0.51100000000E-03 0.  1.
    9900012    2    1    2    0    0  0.84748484783E+00 -0.26280153834E+00  0.77846405081E+00  0.90007618073E+02  0.89999877831E+02 0.  0.
        -12    1    1    2    0    0 -0.84748484783E+00  0.26280153834E+00 -0.77846405081E+00  0.11803819273E+01  0.00000000000E+00 0.  1.
         11    1    3    3    0    0  0.51456286955E+01 -0.15064202331E+02 -0.58219847010E+01  0.16950020433E+02  0.51100000000E-03 0. -1.
        -11    1    3    3    0    0  0.10486867612E+02  0.14939746198E+02 -0.29137043766E+02  0.34382229836E+02  0.51100000000E-03 0.  1.
         12    1    3    3    0    0 -0.14785011459E+02 -0.13834540537E+00  0.35737492518E+02  0.38675367804E+02  0.00000000000E+00 0. -1.
</event>
<event>
 7    1  0.2641103E-015  0.9000777E+02  0.7816164E-02  0.1186339E+00
        -11   -1    0    0    0    0  0.00000000000E+00  0.00000000000E+00  0.45593999997E+02  0.45594000000E+02  0.51100000000E-03 0.  1.
         11   -1    0    0    0    0 -0.00000000000E+00 -0.00000000000E+00 -0.45593999997E+02  0.45594000000E+02  0.51100000000E-03 0. -1.
    9900012    2    1    2    0    0 -0.51810517690E+00  0.11402964575E+00 -0.10542793538E+01  0.90007770916E+02  0.90000032692E+02 0.  0.
        -12    1    1    2    0    0  0.51810517690E+00 -0.11402964575E+00  0.10542793538E+01  0.11802290838E+01  0.00000000000E+00 0.  1.
         11    1    3    3    0    0  0.29213854275E+02  0.10684538823E+02  0.24743998262E+02  0.39747630140E+02  0.51100000000E-03 0. -1.
        -11    1    3    3    0    0 -0.60845550706E+01  0.73573164833E+01  0.18226384138E+01  0.97197699197E+01  0.51100000000E-03 0.  1.
        -12    1    3    3    0    0 -0.23647404381E+02 -0.17927825661E+02 -0.27620916030E+02  0.40540370857E+02  0.00000000000E+00 0.  1.
</event>
<event>
 7    1  0.2641103E-015  0.9000772E+02  0.7816164E-02  0.1186339E+00
        -11   -1    0    0    0    0  0.00000000000E+00  0.00000000000E+00  0.45593999997E+02  0.45594000000E+02  0.51100000000E-03 0. -1.
         11   -1    0    0    0    0 -0.00000000000E+00 -0.00000000000E+00 -0.45593999997E+02  0.45594000000E+02  0.51100000000E-03 0.  1.
    9900012    2    1    2    0    0  0.64063451778E+00  0.90732238298E+00  0.39927486190E+00  0.90007717446E+02  0.89999978516E+02 0.  0.
        -12    1    1    2    0    0 -0.64063451778E+00 -0.90732238298E+00 -0.39927486190E+00  0.11802825540E+01  0.00000000000E+00 0.  1.
         11    1    3    3    0    0  0.11256267550E+02 -0.30761287485E+02  0.20078754635E+02  0.38420264898E+02  0.51100000000E-03 0. -1.
        -11    1    3    3    0    0 -0.64746509757E+01  0.64080046653E+01  0.92338637976E+01  0.12971039663E+02  0.51100000000E-03 0.  1.
        -12    1    3    3    0    0 -0.41409820563E+01  0.25260605203E+02 -0.28913343571E+02  0.38616412884E+02  0.00000000000E+00 0.  1.
</event>
<event>
 7    1  0.2641103E-015  0.9000752E+02  0.7816164E-02  0.1186339E+00
        -11   -1    0    0    0    0  0.00000000000E+00  0.00000000000E+00  0.45593999997E+02  0.45594000000E+02  0.51100000000E-03 0. -1.
         11   -1    0    0    0    0 -0.00000000000E+00 -0.00000000000E+00 -0.45593999997E+02  0.45594000000E+02  0.51100000000E-03 0.  1.
    9900012    2    1    2    0    0  0.74010098088E+00 -0.54238472291E+00  0.74270240524E+00  0.90007518102E+02  0.89999776540E+02 0.  0.
        -12    1    1    2    0    0 -0.74010098088E+00  0.54238472291E+00 -0.74270240524E+00  0.11804818983E+01  0.00000000000E+00 0.  1.
         11    1    3    3    0    0  0.40806159387E+01 -0.52399563391E+01  0.82858906815E+01  0.10619065567E+02  0.51100000000E-03 0. -1.
        -11    1    3    3    0    0 -0.38490866405E+02 -0.37766762055E+01  0.88704705663E+01  0.39679910889E+02  0.51100000000E-03 0.  1.
         12    1    3    3    0    0  0.35150351448E+02  0.84742478217E+01 -0.16413658843E+02  0.39708541646E+02  0.00000000000E+00 0. -1.
</event>
<event>
 7    1  0.2641103E-015  0.9000768E+02  0.7816164E-02  0.1186339E+00
        -11   -1    0    0    0    0  0.00000000000E+00  0.00000000000E+00  0.45593999997E+02  0.45594000000E+02  0.51100000000E-03 0.  1.
         11   -1    0    0    0    0 -0.00000000000E+00 -0.00000000000E+00 -0.45593999997E+02  0.45594000000E+02  0.51100000000E-03 0. -1.
    9900012    2    1    2    0    0 -0.62246182611E+00  0.99532694437E+00 -0.12251219784E+00  0.90007684919E+02  0.89999945560E+02 0.  0.
        -12    1    1    2    0    0  0.62246182611E+00 -0.99532694437E+00  0.12251219784E+00  0.11803150807E+01  0.00000000000E+00 0.  1.
         11    1    3    3    0    0 -0.14234023220E+02  0.12978225120E+02 -0.11449224357E+02  0.22408178929E+02  0.51100000000E-03 0. -1.
        -11    1    3    3    0    0  0.31896564419E+01 -0.31610228775E+00  0.37214382879E+02  0.37352163555E+02  0.51100000000E-03 0.  1.
         12    1    3    3    0    0  0.10421904952E+02 -0.11666795888E+02 -0.25887670720E+02  0.30247342436E+02  0.00000000000E+00 0. -1.
</event>
<event>
 7    1  0.2641103E-015  0.9000780E+02  0.7816164E-02  0.1186339E+00
        -11   -1    0    0    0    0  0.00000000000E+00  0.00000000000E+00  0.45593999997E+02  0.45594000000E+02  0.51100000000E-03 0. -1.
         11   -1    0    0    0    0 -0.00000000000E+00 -0.00000000000E+00 -0.45593999997E+02  0.45594000000E+02  0.51100000000E-03 0.  1.
    9900012    2    1    2    0    0 -0.62573833982E+00 -0.48813046179E+00  0.87352766976E+00  0.90007800692E+02  0.90000062861E+02 0.  0.
        -12    1    1    2    0    0  0.62573833982E+00  0.48813046179E+00 -0.87352766976E+00  0.11801993084E+01  0.00000000000E+00 0.  1.
         11    1    3    3    0    0  0.45135330680E+01  0.75445664475E+01 -0.39697533390E+01  0.96463156423E+01  0.51100000000E-03 0. -1.
        -11    1    3    3    0    0  0.17234882548E+02  0.28439192968E+02  0.14849939562E+02  0.36419082613E+02  0.51100000000E-03 0.  1.
         12    1    3    3    0    0 -0.22374153956E+02 -0.36471889878E+02 -0.10006658553E+02  0.43942402436E+02  0.00000000000E+00 0. -1.
</event>
<event>
 7    1  0.2641103E-015  0.9000769E+02  0.7816164E-02  0.1186339E+00
        -11   -1    0    0    0    0  0.00000000000E+00  0.00000000000E+00  0.45593999997E+02  0.45594000000E+02  0.51100000000E-03 0. -1.
         11   -1    0    0    0    0 -0.00000000000E+00 -0.00000000000E+00 -0.45593999997E+02  0.45594000000E+02  0.51100000000E-03 0.  1.
    9900012    2    1    2    0    0  0.11634431804E+01 -0.75952738469E-01  0.18372395156E+00  0.90007693539E+02  0.89999954293E+02 0.  0.
        -12    1    1    2    0    0 -0.11634431804E+01  0.75952738469E-01 -0.18372395156E+00  0.11803064614E+01  0.00000000000E+00 0.  1.
         11    1    3    3    0    0  0.12588768184E+02 -0.37250129248E+01 -0.38050071676E+01  0.13668609494E+02  0.51100000000E-03 0. -1.
        -11    1    3    3    0    0 -0.34933756058E+02 -0.21665006631E+02  0.68548315388E+01  0.41674075159E+02  0.51100000000E-03 0.  1.
         12    1    3    3    0    0  0.23508431054E+02  0.25314066818E+02 -0.28661004196E+01  0.34665008886E+02  0.00000000000E+00 0. -1.
</event>
<event>
 7    1  0.2641103E-015  0.9000773E+02  0.7816164E-02  0.1186339E+00
        -11   -1    0    0    0    0  0.00000000000E+00  0.00000000000E+00  0.45593999997E+02  0.45594000000E+02  0.51100000000E-03 0.  1.
         11   -1    0    0    0    0 -0.00000000000E+00 -0.00000000000E+00 -0.45593999997E+02  0.45594000000E+02  0.51100000000E-03 0. -1.
    9900012    2    1    2    0    0 -0.84962954043E+00  0.15765078365E+00 -0.80392949482E+00  0.90007734454E+02  0.89999995749E+02 0.  0.
        -12    1    1    2    0    0  0.84962954043E+00 -0.15765078365E+00  0.80392949482E+00  0.11802655456E+01  0.00000000000E+00 0.  1.
         11    1    3    3    0    0  0.82493455082E+01 -0.27256909921E+02 -0.22607519715E+02  0.36360566382E+02  0.51100000000E-03 0. -1.
        -11    1    3    3    0    0 -0.15153008687E+01 -0.62699950507E+01 -0.63834395744E+01  0.90750909483E+01  0.51100000000E-03 0.  1.
        -12    1    3    3    0    0 -0.75836741800E+01  0.33684555755E+02  0.28187029794E+02  0.44572077124E+02  0.00000000000E+00 0.  1.
</event>
<event>
 7    1  0.2641103E-015  0.9000776E+02  0.7816164E-02  0.1186339E+00
        -11   -1    0    0    0    0  0.00000000000E+00  0.00000000000E+00  0.45593999997E+02  0.45594000000E+02  0.51100000000E-03 0.  1.
         11   -1    0    0    0    0 -0.00000000000E+00 -0.00000000000E+00 -0.45593999997E+02  0.45594000000E+02  0.51100000000E-03 0. -1.
    9900012    2    1    2    0    0 -0.47033933541E+00  0.83896647535E+00  0.68402297565E+00  0.90007757962E+02  0.90000019567E+02 0.  0.
        -12    1    1    2    0    0  0.47033933541E+00 -0.83896647535E+00 -0.68402297565E+00  0.11802420381E+01  0.00000000000E+00 0.  1.
         11    1    3    3    0    0  0.73517711957E+01 -0.72644525654E+01  0.76510460731E+01  0.12859211370E+02  0.51100000000E-03 0. -1.
        -11    1    3    3    0    0 -0.29662441685E+02 -0.19421371476E+02  0.11732177699E+02  0.37345603631E+02  0.51100000000E-03 0.  1.
         12    1    3    3    0    0  0.21840331154E+02  0.27524790517E+02 -0.18699200797E+02  0.39802942961E+02  0.00000000000E+00 0. -1.
</event>
<event>
 7    1  0.2641103E-015  0.9000787E+02  0.7816164E-02  0.1186339E+00
        -11   -1    0    0    0    0  0.00000000000E+00  0.00000000000E+00  0.45593999997E+02  0.45594000000E+02  0.51100000000E-03 0.  1.
         11   -1    0    0    0    0 -0.00000000000E+00 -0.00000000000E+00 -0.45593999997E+02  0.45594000000E+02  0.51100000000E-03 0. -1.
    9900012    2    1    2    0    0 -0.81036474388E+00  0.19243239613E+00 -0.83604719582E+00  0.90007874516E+02  0.90000137659E+02 0.  0.
        -12    1    1    2    0    0  0.81036474388E+00 -0.19243239613E+00  0.83604719582E+00  0.11801254844E+01  0.00000000000E+00 0.  1.
         11    1    3    3    0    0  0.27384615038E+02 -0.13139654196E+02  0.34930136321E+01  0.30573988906E+02  0.51100000000E-03 0. -1.
        -11    1    3    3    0    0  0.12894233585E+02 -0.28692365279E+01  0.52920118262E+01  0.14230220217E+02  0.51100000000E-03 0.  1.
        -12    1    3    3    0    0 -0.41089213366E+02  0.16201323120E+02 -0.96210726541E+01  0.45203665392E+02  0.00000000000E+00 0.  1.
</event>
<event>
 7    1  0.2641103E-015  0.9000772E+02  0.7816164E-02  0.1186339E+00
        -11   -1    0    0    0    0  0.00000000000E+00  0.00000000000E+00  0.45593999997E+02  0.45594000000E+02  0.51100000000E-03 0.  1.
         11   -1    0    0    0    0 -0.00000000000E+00 -0.00000000000E+00 -0.45593999997E+02  0.45594000000E+02  0.51100000000E-03 0. -1.
    9900012    2    1    2    0    0  0.51462559161E+00 -0.79676330100E+00 -0.70242264859E+00  0.90007716630E+02  0.89999977689E+02 0.  0.
        -12    1    1    2    0    0 -0.51462559161E+00  0.79676330100E+00  0.70242264859E+00  0.11802833705E+01  0.00000000000E+00 0.  1.
         11    1    3    3    0    0  0.61941602871E+01  0.57247751631E+01  0.33063725185E+01  0.90594023987E+01  0.51100000000E-03 0. -1.
        -11    1    3    3    0    0  0.16014481495E+02  0.12824552282E+02  0.29915165710E+02  0.36274645395E+02  0.51100000000E-03 0.  1.
         12    1    3    3    0    0 -0.21694016190E+02 -0.19346090747E+02 -0.33923960877E+02  0.44673668836E+02  0.00000000000E+00 0. -1.
</event>
<event>
 7    1  0.2641103E-015  0.9000761E+02  0.7816164E-02  0.1186339E+00
        -11   -1    0    0    0    0  0.00000000000E+00  0.00000000000E+00  0.45593999997E+02  0.45594000000E+02  0.51100000000E-03 0.  1.
         11   -1    0    0    0    0 -0.00000000000E+00 -0.00000000000E+00 -0.45593999997E+02  0.45594000000E+02  0.51100000000E-03 0. -1.
    9900012    2    1    2    0    0 -0.99596825492E+00  0.63248764921E+00 -0.36564056489E-01  0.90007605862E+02  0.89999865459E+02 0.  0.
        -12    1    1    2    0    0  0.99596825492E+00 -0.63248764921E+00  0.36564056489E-01  0.11803941382E+01  0.00000000000E+00 0.  1.
         11    1    3    3    0    0 -0.17461769092E+02  0.10947770942E+02 -0.33071434723E+02  0.38967766979E+02  0.51100000000E-03 0. -1.
        -11    1    3    3    0    0 -0.22832461566E+01  0.78770469397E+01 -0.85923254590E+00  0.82461725868E+01  0.51100000000E-03 0.  1.
        -12    1    3    3    0    0  0.18749046994E+02 -0.18192330233E+02  0.33894103212E+02  0.42793666296E+02  0.00000000000E+00 0.  1.
</event>
<event>
 7    1  0.2641103E-015  0.9000775E+02  0.7816164E-02  0.1186339E+00
        -11   -1    0    0    0    0  0.00000000000E+00  0.00000000000E+00  0.45593999997E+02  0.45594000000E+02  0.51100000000E-03 0. -1.
         11   -1    0    0    0    0 -0.00000000000E+00 -0.00000000000E+00 -0.45593999997E+02  0.45594000000E+02  0.51100000000E-03 0.  1.
    9900012    2    1    2    0    0  0.32034039011E+00 -0.10398923419E+01  0.45715961303E+00  0.90007750467E+02  0.90000011973E+02 0.  0.
        -12    1    1    2    0    0 -0.32034039011E+00  0.10398923419E+01 -0.45715961303E+00  0.11802495330E+01  0.00000000000E+00 0.  1.
         11    1    3    3    0    0 -0.45245178958E+01  0.11217660019E+01  0.16039217617E+02  0.16702877692E+02  0.51100000000E-03 0. -1.
        -11    1    3    3    0    0 -0.30002695522E+02  0.14123408046E+02 -0.68310014429E+01  0.33856978223E+02  0.51100000000E-03 0.  1.
         12    1    3    3    0    0  0.34847553808E+02 -0.16285066390E+02 -0.87510565611E+01  0.39447894553E+02  0.00000000000E+00 0. -1.
</event>
<event>
 7    1  0.2641103E-015  0.9000770E+02  0.7816164E-02  0.1186339E+00
        -11   -1    0    0    0    0  0.00000000000E+00  0.00000000000E+00  0.45593999997E+02  0.45594000000E+02  0.51100000000E-03 0.  1.
         11   -1    0    0    0    0 -0.00000000000E+00 -0.00000000000E+00 -0.45593999997E+02  0.45594000000E+02  0.51100000000E-03 0. -1.
    9900012    2    1    2    0    0  0.60049393366E+00  0.87777654903E+00 -0.51188910625E+00  0.90007697034E+02  0.89999957835E+02 0.  0.
        -12    1    1    2    0    0 -0.60049393366E+00 -0.87777654903E+00  0.51188910625E+00  0.11803029660E+01  0.00000000000E+00 0.  1.
         11    1    3    3    0    0 -0.12245188796E+01  0.98331629627E+01  0.32923997002E+01  0.10441764046E+02  0.51100000000E-03 0. -1.
        -11    1    3    3    0    0 -0.35562443509E+02  0.47980140560E+01 -0.13878539596E+02  0.38474955345E+02  0.51100000000E-03 0.  1.
         12    1    3    3    0    0  0.37387456322E+02 -0.13753400470E+02  0.10074250790E+02  0.41090977644E+02  0.00000000000E+00 0. -1.
</event>
<event>
 7    1  0.2641103E-015  0.9000751E+02  0.7816164E-02  0.1186339E+00
        -11   -1    0    0    0    0  0.00000000000E+00  0.00000000000E+00  0.45593999997E+02  0.45594000000E+02  0.51100000000E-03 0.  1.
         11   -1    0    0    0    0 -0.00000000000E+00 -0.00000000000E+00 -0.45593999997E+02  0.45594000000E+02  0.51100000000E-03 0. -1.
    9900012    2    1    2    0    0 -0.20835200062E+00  0.98080620159E+00 -0.62302457493E+00  0.90007512396E+02  0.89999770760E+02 0.  0.
        -12    1    1    2    0    0  0.20835200062E+00 -0.98080620159E+00  0.62302457493E+00  0.11804876036E+01  0.00000000000E+00 0.  1.
         11    1    3    3    0    0  0.10221199589E+02  0.17336498994E+01 -0.62838575972E+01  0.12122925785E+02  0.51100000000E-03 0. -1.
        -11    1    3    3    0    0  0.14187600065E+02  0.25189171691E+02 -0.18864254302E+02  0.34520174633E+02  0.51100000000E-03 0.  1.
         12    1    3    3    0    0 -0.24617151655E+02 -0.25942015388E+02  0.24525087324E+02  0.43364411979E+02  0.00000000000E+00 0. -1.
</event>
<event>
 7    1  0.2641103E-015  0.9000774E+02  0.7816164E-02  0.1186339E+00
        -11   -1    0    0    0    0  0.00000000000E+00  0.00000000000E+00  0.45593999997E+02  0.45594000000E+02  0.51100000000E-03 0.  1.
         11   -1    0    0    0    0 -0.00000000000E+00 -0.00000000000E+00 -0.45593999997E+02  0.45594000000E+02  0.51100000000E-03 0. -1.
    9900012    2    1    2    0    0  0.10751451558E+01  0.15678911670E+00 -0.46095764357E+00  0.90007744993E+02  0.90000006427E+02 0.  0.
        -12    1    1    2    0    0 -0.10751451558E+01 -0.15678911670E+00  0.46095764357E+00  0.11802550073E+01  0.00000000000E+00 0.  1.
         11    1    3    3    0    0  0.23398865790E+02 -0.31872486783E+01  0.42394678600E+01  0.23992468868E+02  0.51100000000E-03 0. -1.
        -11    1    3    3    0    0 -0.13905757699E+02 -0.23947656884E+02 -0.19479813804E+02  0.33857399686E+02  0.51100000000E-03 0.  1.
        -12    1    3    3    0    0 -0.84179629355E+01  0.27291694679E+02  0.14779388300E+02  0.32157876438E+02  0.00000000000E+00 0.  1.
</event>
<event>
 7    1  0.2641103E-015  0.9000764E+02  0.7816164E-02  0.1186339E+00
        -11   -1    0    0    0    0  0.00000000000E+00  0.00000000000E+00  0.45593999997E+02  0.45594000000E+02  0.51100000000E-03 0. -1.
         11   -1    0    0    0    0 -0.00000000000E+00 -0.00000000000E+00 -0.45593999997E+02  0.45594000000E+02  0.51100000000E-03 0.  1.
    9900012    2    1    2    0    0 -0.11317531256E+01  0.27210722669E+00 -0.19578204213E+00  0.90007644931E+02  0.89999905044E+02 0.  0.
        -12    1    1    2    0    0  0.11317531256E+01 -0.27210722669E+00  0.19578204213E+00  0.11803550686E+01  0.00000000000E+00 0.  1.
         11    1    3    3    0    0  0.35345293989E+01 -0.83323874585E+00  0.41169750665E+02  0.41329596598E+02  0.51100000000E-03 0. -1.
        -11    1    3    3    0    0  0.59631352387E+01  0.47766680245E+01 -0.22304736328E+01  0.79593060111E+01  0.51100000000E-03 0.  1.
        -12    1    3    3    0    0 -0.10629417763E+02 -0.36713220519E+01 -0.39135059074E+02  0.40718742322E+02  0.00000000000E+00 0.  1.
</event>
<event>
 7    1  0.2641103E-015  0.9000739E+02  0.7816164E-02  0.1186340E+00
        -11   -1    0    0    0    0  0.00000000000E+00  0.00000000000E+00  0.45593999997E+02  0.45594000000E+02  0.51100000000E-03 0. -1.
         11   -1    0    0    0    0 -0.00000000000E+00 -0.00000000000E+00 -0.45593999997E+02  0.45594000000E+02  0.51100000000E-03 0.  1.
    9900012    2    1    2    0    0  0.71166878388E+00  0.93523931671E+00  0.11272151520E+00  0.90007385254E+02  0.89999641939E+02 0.  0.
        -12    1    1    2    0    0 -0.71166878388E+00 -0.93523931671E+00 -0.11272151520E+00  0.11806147456E+01  0.00000000000E+00 0.  1.
         11    1    3    3    0    0  0.64257172190E+01 -0.66737961500E+01  0.34275061358E+01  0.98781169968E+01  0.51100000000E-03 0. -1.
        -11    1    3    3    0    0  0.36978131320E+02  0.44411453344E+01 -0.20801394348E+01  0.37301916146E+02  0.51100000000E-03 0.  1.
         12    1    3    3    0    0 -0.42692179756E+02  0.31678901323E+01 -0.12346451857E+01  0.42827352112E+02  0.00000000000E+00 0. -1.
</event>
<event>
 7    1  0.2641103E-015  0.9000767E+02  0.7816164E-02  0.1186339E+00
        -11   -1    0    0    0    0  0.00000000000E+00  0.00000000000E+00  0.45593999997E+02  0.45594000000E+02  0.51100000000E-03 0.  1.
         11   -1    0    0    0    0 -0.00000000000E+00 -0.00000000000E+00 -0.45593999997E+02  0.45594000000E+02  0.51100000000E-03 0. -1.
    9900012    2    1    2    0    0 -0.29103052852E+00 -0.94202800606E+00 -0.64889609177E+00  0.90007668830E+02  0.89999929259E+02 0.  0.
        -12    1    1    2    0    0  0.29103052852E+00  0.94202800606E+00  0.64889609177E+00  0.11803311699E+01  0.00000000000E+00 0.  1.
         11    1    3    3    0    0  0.22833645674E+02 -0.25953123351E+02 -0.98481194518E+01  0.35943364386E+02  0.51100000000E-03 0. -1.
        -11    1    3    3    0    0  0.94333553356E+01  0.12494069674E+01 -0.56994957056E+01  0.11092044997E+02  0.51100000000E-03 0.  1.
        -12    1    3    3    0    0 -0.32558031538E+02  0.23761688377E+02  0.14898719066E+02  0.42972259447E+02  0.00000000000E+00 0.  1.
</event>
<event>
 7    1  0.2641103E-015  0.9000774E+02  0.7816164E-02  0.1186339E+00
        -11   -1    0    0    0    0  0.00000000000E+00  0.00000000000E+00  0.45593999997E+02  0.45594000000E+02  0.51100000000E-03 0.  1.
         11   -1    0    0    0    0 -0.00000000000E+00 -0.00000000000E+00 -0.45593999997E+02  0.45594000000E+02  0.51100000000E-03 0. -1.
    9900012    2    1    2    0    0 -0.11315846511E+01  0.21678287521E+00 -0.25599413013E+00  0.90007740862E+02  0.90000002242E+02 0.  0.
        -12    1    1    2    0    0  0.11315846511E+01 -0.21678287521E+00  0.25599413013E+00  0.11802591377E+01  0.00000000000E+00 0.  1.
         11    1    3    3    0    0 -0.86243780594E+01 -0.13417342782E+01 -0.60960485111E+01  0.10646217896E+02  0.51100000000E-03 0. -1.
        -11    1    3    3    0    0 -0.24384533009E+02 -0.11307187957E+02  0.27721302027E+02  0.38612543764E+02  0.51100000000E-03 0.  1.
         12    1    3    3    0    0  0.31877326417E+02  0.12865705111E+02 -0.21881247646E+02  0.40748979202E+02  0.00000000000E+00 0. -1.
</event>
<event>
 7    1  0.2641103E-015  0.9000765E+02  0.7816164E-02  0.1186339E+00
        -11   -1    0    0    0    0  0.00000000000E+00  0.00000000000E+00  0.45593999997E+02  0.45594000000E+02  0.51100000000E-03 0.  1.
         11   -1    0    0    0    0 -0.00000000000E+00 -0.00000000000E+00 -0.45593999997E+02  0.45594000000E+02  0.51100000000E-03 0. -1.
    9900012    2    1    2    0    0 -0.74590136060E+00  0.53918457658E+00  0.73901606294E+00  0.90007646837E+02  0.89999906976E+02 0.  0.
        -12    1    1    2    0    0  0.74590136060E+00 -0.53918457658E+00 -0.73901606294E+00  0.11803531627E+01  0.00000000000E+00 0.  1.
         11    1    3    3    0    0  0.81816770591E+00  0.84371033781E+01  0.78928145124E+01  0.11582341430E+02  0.51100000000E-03 0. -1.
        -11    1    3    3    0    0 -0.30464674069E+02  0.44457323452E+01  0.20149614310E+02  0.36794943393E+02  0.51100000000E-03 0.  1.
         12    1    3    3    0    0  0.28900605002E+02 -0.12343651147E+02 -0.27303412759E+02  0.41630362014E+02  0.00000000000E+00 0. -1.
</event>
<event>
 7    1  0.2641103E-015  0.9000771E+02  0.7816164E-02  0.1186339E+00
        -11   -1    0    0    0    0  0.00000000000E+00  0.00000000000E+00  0.45593999997E+02  0.45594000000E+02  0.51100000000E-03 0. -1.
         11   -1    0    0    0    0 -0.00000000000E+00 -0.00000000000E+00 -0.45593999997E+02  0.45594000000E+02  0.51100000000E-03 0.  1.
    9900012    2    1    2    0    0  0.34421324427E-01  0.13324345985E+00  0.11722442097E+01  0.90007705488E+02  0.89999966401E+02 0.  0.
        -12    1    1    2    0    0 -0.34421324427E-01 -0.13324345985E+00 -0.11722442097E+01  0.11802945117E+01  0.00000000000E+00 0.  1.
         11    1    3    3    0    0 -0.27456801219E+02 -0.22837650754E+01  0.29753569143E+02  0.40550787824E+02  0.51100000000E-03 0. -1.
        -11    1    3    3    0    0 -0.17529110545E+01  0.92057904053E+01 -0.25267909819E+01  0.97058717836E+01  0.51100000000E-03 0.  1.
        -12    1    3    3    0    0  0.29244133598E+02 -0.67887818701E+01 -0.26054533952E+02  0.39751045881E+02  0.00000000000E+00 0.  1.
</event>
<event>
 7    1  0.2641103E-015  0.9000769E+02  0.7816164E-02  0.1186339E+00
        -11   -1    0    0    0    0  0.00000000000E+00  0.00000000000E+00  0.45593999997E+02  0.45594000000E+02  0.51100000000E-03 0.  1.
         11   -1    0    0    0    0 -0.00000000000E+00 -0.00000000000E+00 -0.45593999997E+02  0.45594000000E+02  0.51100000000E-03 0. -1.
    9900012    2    1    2    0    0  0.48477383103E+00 -0.64312361331E+00 -0.86285285074E+00  0.90007691273E+02  0.89999951998E+02 0.  0.
        -12    1    1    2    0    0 -0.48477383103E+00  0.64312361331E+00  0.86285285074E+00  0.11803087271E+01  0.00000000000E+00 0.  1.
         11    1    3    3    0    0  0.37305221260E+01  0.34562072339E+02 -0.17847225782E+02  0.39076554455E+02  0.51100000000E-03 0. -1.
        -11    1    3    3    0    0  0.71008560221E+01  0.32520351568E+01  0.48915634780E+00  0.78254177589E+01  0.51100000000E-03 0.  1.
        -12    1    3    3    0    0 -0.10346604317E+02 -0.38457231109E+02  0.16495216583E+02  0.43105719059E+02  0.00000000000E+00 0.  1.
</event>
<event>
 7    1  0.2641103E-015  0.9000776E+02  0.7816164E-02  0.1186339E+00
        -11   -1    0    0    0    0  0.00000000000E+00  0.00000000000E+00  0.45593999997E+02  0.45594000000E+02  0.51100000000E-03 0.  1.
         11   -1    0    0    0    0 -0.00000000000E+00 -0.00000000000E+00 -0.45593999997E+02  0.45594000000E+02  0.51100000000E-03 0. -1.
    9900012    2    1    2    0    0 -0.47960869407E+00 -0.25533820533E+00 -0.10477351462E+01  0.90007758061E+02  0.90000019667E+02 0.  0.
        -12    1    1    2    0    0  0.47960869407E+00  0.25533820533E+00  0.10477351462E+01  0.11802419392E+01  0.00000000000E+00 0.  1.
         11    1    3    3    0    0 -0.65588741223E+01  0.33406957609E+01  0.46454614813E+01  0.87039870493E+01  0.51100000000E-03 0. -1.
        -11    1    3    3    0    0 -0.28573848491E+02  0.23532378790E+02 -0.81982725885E+00  0.37025798926E+02  0.51100000000E-03 0.  1.
         12    1    3    3    0    0  0.34653113920E+02 -0.27128412756E+02 -0.48733693686E+01  0.44277972085E+02  0.00000000000E+00 0. -1.
</event>
<event>
 7    1  0.2641103E-015  0.9000777E+02  0.7816164E-02  0.1186339E+00
        -11   -1    0    0    0    0  0.00000000000E+00  0.00000000000E+00  0.45593999997E+02  0.45594000000E+02  0.51100000000E-03 0. -1.
         11   -1    0    0    0    0 -0.00000000000E+00 -0.00000000000E+00 -0.45593999997E+02  0.45594000000E+02  0.51100000000E-03 0.  1.
    9900012    2    1    2    0    0 -0.97679824663E+00 -0.66083558290E+00  0.45905058510E-01  0.90007768770E+02  0.90000030518E+02 0.  0.
        -12    1    1    2    0    0  0.97679824663E+00  0.66083558290E+00 -0.45905058510E-01  0.11802312302E+01  0.00000000000E+00 0.  1.
         11    1    3    3    0    0 -0.11455596441E+01  0.96461532184E+01 -0.14941209768E+01  0.98281725954E+01  0.51100000000E-03 0. -1.
        -11    1    3    3    0    0 -0.33866309058E+02  0.15106657108E+02 -0.41887572787E+01  0.37318677174E+02  0.51100000000E-03 0.  1.
         12    1    3    3    0    0  0.34035070456E+02 -0.25413645909E+02  0.57287833139E+01  0.42860919001E+02  0.00000000000E+00 0. -1.
</event>
<event>
 7    1  0.2641103E-015  0.9000778E+02  0.7816164E-02  0.1186339E+00
        -11   -1    0    0    0    0  0.00000000000E+00  0.00000000000E+00  0.45593999997E+02  0.45594000000E+02  0.51100000000E-03 0.  1.
         11   -1    0    0    0    0 -0.00000000000E+00 -0.00000000000E+00 -0.45593999997E+02  0.45594000000E+02  0.51100000000E-03 0. -1.
    9900012    2    1    2    0    0 -0.77596439717E+00  0.71190691494E+00 -0.53290811725E+00  0.90007778299E+02  0.90000040173E+02 0.  0.
        -12    1    1    2    0    0  0.77596439717E+00 -0.71190691494E+00  0.53290811725E+00  0.11802217006E+01  0.00000000000E+00 0.  1.
         11    1    3    3    0    0 -0.70650431138E+01  0.12846779537E+01  0.75713515344E+01  0.10435065690E+02  0.51100000000E-03 0. -1.
        -11    1    3    3    0    0  0.12098011425E+02 -0.58071580058E+01  0.34102439781E+02  0.36647801623E+02  0.51100000000E-03 0.  1.
         12    1    3    3    0    0 -0.58089327083E+01  0.52343869670E+01 -0.42206699433E+02  0.42924910986E+02  0.00000000000E+00 0. -1.
</event>
<event>
 7    1  0.2641103E-015  0.9000772E+02  0.7816164E-02  0.1186339E+00
        -11   -1    0    0    0    0  0.00000000000E+00  0.00000000000E+00  0.45593999997E+02  0.45594000000E+02  0.51100000000E-03 0.  1.
         11   -1    0    0    0    0 -0.00000000000E+00 -0.00000000000E+00 -0.45593999997E+02  0.45594000000E+02  0.51100000000E-03 0. -1.
    9900012    2    1    2    0    0  0.81532217741E+00 -0.61233557348E+00 -0.59444324118E+00  0.90007717036E+02  0.89999978101E+02 0.  0.
        -12    1    1    2    0    0 -0.81532217741E+00  0.61233557348E+00  0.59444324118E+00  0.11802829637E+01  0.00000000000E+00 0.  1.
         11    1    3    3    0    0 -0.11385401144E+02 -0.27935346344E+02 -0.19805821043E+02  0.36087137349E+02  0.51100000000E-03 0. -1.
        -11    1    3    3    0    0 -0.11486178908E+02 -0.29946282274E+01  0.36461440412E+01  0.12417506624E+02  0.51100000000E-03 0.  1.
        -12    1    3    3    0    0  0.23686902230E+02  0.30317638998E+02  0.15565233760E+02  0.41503073063E+02  0.00000000000E+00 0.  1.
</event>
<event>
 7    1  0.2641103E-015  0.9000777E+02  0.7816164E-02  0.1186339E+00
        -11   -1    0    0    0    0  0.00000000000E+00  0.00000000000E+00  0.45593999997E+02  0.45594000000E+02  0.51100000000E-03 0.  1.
         11   -1    0    0    0    0 -0.00000000000E+00 -0.00000000000E+00 -0.45593999997E+02  0.45594000000E+02  0.51100000000E-03 0. -1.
    9900012    2    1    2    0    0 -0.14822422681E+00 -0.73423250849E+00 -0.91206945378E+00  0.90007771850E+02  0.90000033638E+02 0.  0.
        -12    1    1    2    0    0  0.14822422681E+00  0.73423250849E+00  0.91206945378E+00  0.11802281502E+01  0.00000000000E+00 0.  1.
         11    1    3    3    0    0 -0.31734092857E+02  0.24500898236E+02 -0.82456335933E+01  0.40930882442E+02  0.51100000000E-03 0. -1.
        -11    1    3    3    0    0  0.68216818079E+01  0.46525316125E+01 -0.32051835736E+01  0.88574598556E+01  0.51100000000E-03 0.  1.
        -12    1    3    3    0    0  0.24764186823E+02 -0.29887662357E+02  0.10538747713E+02  0.40219429552E+02  0.00000000000E+00 0.  1.
</event>
<event>
 7    1  0.2641103E-015  0.9000838E+02  0.7816164E-02  0.1186338E+00
        -11   -1    0    0    0    0  0.00000000000E+00  0.00000000000E+00  0.45593999997E+02  0.45594000000E+02  0.51100000000E-03 0.  1.
         11   -1    0    0    0    0 -0.00000000000E+00 -0.00000000000E+00 -0.45593999997E+02  0.45594000000E+02  0.51100000000E-03 0. -1.
    9900012    2    1    2    0    0  0.40297740629E+00 -0.17519239862E+00 -0.10947200629E+01  0.90008383460E+02  0.90000653319E+02 0.  0.
        -12    1    1    2    0    0 -0.40297740629E+00  0.17519239862E+00  0.10947200629E+01  0.11796165405E+01  0.00000000000E+00 0.  1.
         11    1    3    3    0    0  0.45117784737E+01  0.31030429166E+02  0.26525901166E+02  0.41071487825E+02  0.51100000000E-03 0.  1.
        -11    1    3    3    0    0 -0.79495841787E+01 -0.14123942878E+02  0.32203579057E-01  0.16207488651E+02  0.51100000000E-03 0. -1.
        -12    1    3    3    0    0  0.38407831112E+01 -0.17081678687E+02 -0.27652824808E+02  0.32729406984E+02  0.00000000000E+00 0.  1.
</event>
<event>
 7    1  0.2641103E-015  0.9000760E+02  0.7816164E-02  0.1186339E+00
        -11   -1    0    0    0    0  0.00000000000E+00  0.00000000000E+00  0.45593999997E+02  0.45594000000E+02  0.51100000000E-03 0. -1.
         11   -1    0    0    0    0 -0.00000000000E+00 -0.00000000000E+00 -0.45593999997E+02  0.45594000000E+02  0.51100000000E-03 0.  1.
    9900012    2    1    2    0    0 -0.60966461540E+00 -0.10083320996E+01 -0.70162777901E-01  0.90007598635E+02  0.89999858137E+02 0.  0.
        -12    1    1    2    0    0  0.60966461540E+00  0.10083320996E+01  0.70162777901E-01  0.11804013647E+01  0.00000000000E+00 0.  1.
         11    1    3    3    0    0  0.28859967445E+02 -0.21870937965E+02 -0.15728844308E+02  0.39479516105E+02  0.51100000000E-03 0.  1.
        -11    1    3    3    0    0 -0.19473760484E+02 -0.46668873085E+01  0.27108695234E+01  0.20207820228E+02  0.51100000000E-03 0. -1.
        -12    1    3    3    0    0 -0.99958715761E+01  0.25529493174E+02  0.12947812006E+02  0.30320262301E+02  0.00000000000E+00 0.  1.
</event>
<event>
 7    1  0.2641103E-015  0.9000795E+02  0.7816164E-02  0.1186339E+00
        -11   -1    0    0    0    0  0.00000000000E+00  0.00000000000E+00  0.45593999997E+02  0.45594000000E+02  0.51100000000E-03 0.  1.
         11   -1    0    0    0    0 -0.00000000000E+00 -0.00000000000E+00 -0.45593999997E+02  0.45594000000E+02  0.51100000000E-03 0. -1.
    9900012    2    1    2    0    0 -0.72691957013E+00 -0.81604235102E+00 -0.44516215507E+00  0.90007954863E+02  0.90000219067E+02 0.  0.
        -12    1    1    2    0    0  0.72691957013E+00  0.81604235102E+00  0.44516215507E+00  0.11800451366E+01  0.00000000000E+00 0.  1.
         11    1    3    3    0    0  0.38253813088E+02  0.26388431499E+01 -0.21308483395E+02  0.43867632416E+02  0.51100000000E-03 0. -1.
        -11    1    3    3    0    0 -0.66951496034E+01  0.40900793373E+01  0.56066444382E+01  0.96430409786E+01  0.51100000000E-03 0.  1.
        -12    1    3    3    0    0 -0.32285583054E+02 -0.75449648382E+01  0.15256676802E+02  0.36497281469E+02  0.00000000000E+00 0.  1.
</event>
<event>
 7    1  0.2641103E-015  0.9000763E+02  0.7816164E-02  0.1186339E+00
        -11   -1    0    0    0    0  0.00000000000E+00  0.00000000000E+00  0.45593999997E+02  0.45594000000E+02  0.51100000000E-03 0.  1.
         11   -1    0    0    0    0 -0.00000000000E+00 -0.00000000000E+00 -0.45593999997E+02  0.45594000000E+02  0.51100000000E-03 0. -1.
    9900012    2    1    2    0    0 -0.10568571006E+01 -0.65784762106E-01 -0.52152907556E+00  0.90007632624E+02  0.89999892574E+02 0.  0.
        -12    1    1    2    0    0  0.10568571006E+01  0.65784762106E-01  0.52152907556E+00  0.11803673761E+01  0.00000000000E+00 0.  1.
         11    1    3    3    0    0  0.15268137939E+00 -0.34027570099E+02  0.77626699902E+01  0.34902118619E+02  0.51100000000E-03 0. -1.
        -11    1    3    3    0    0 -0.93218589409E+01 -0.61881952183E+01  0.46994089384E+01  0.12135701826E+02  0.51100000000E-03 0.  1.
        -12    1    3    3    0    0  0.81123204609E+01  0.40149980556E+02 -0.12983608004E+02  0.42969812179E+02  0.00000000000E+00 0.  1.
</event>
<event>
 7    1  0.2641103E-015  0.9000797E+02  0.7816164E-02  0.1186339E+00
        -11   -1    0    0    0    0  0.00000000000E+00  0.00000000000E+00  0.45593999997E+02  0.45594000000E+02  0.51100000000E-03 0. -1.
         11   -1    0    0    0    0 -0.00000000000E+00 -0.00000000000E+00 -0.45593999997E+02  0.45594000000E+02  0.51100000000E-03 0.  1.
    9900012    2    1    2    0    0  0.60890417697E+00  0.86251216288E+00  0.52704964536E+00  0.90007969129E+02  0.90000233521E+02 0.  0.
        -12    1    1    2    0    0 -0.60890417697E+00 -0.86251216288E+00 -0.52704964536E+00  0.11800308710E+01  0.00000000000E+00 0.  1.
         11    1    3    3    0    0  0.67983265249E+01  0.78033345656E+01  0.41823716979E+01  0.11162504520E+02  0.51100000000E-03 0. -1.
        -11    1    3    3    0    0 -0.26885719088E+01  0.15022352228E+02 -0.36281211604E+02  0.39360205806E+02  0.51100000000E-03 0.  1.
         12    1    3    3    0    0 -0.35008504392E+01 -0.21963174631E+02  0.32625889552E+02  0.39485258803E+02  0.00000000000E+00 0. -1.
</event>
<event>
 7    1  0.2641103E-015  0.9000765E+02  0.7816164E-02  0.1186339E+00
        -11   -1    0    0    0    0  0.00000000000E+00  0.00000000000E+00  0.45593999997E+02  0.45594000000E+02  0.51100000000E-03 0.  1.
         11   -1    0    0    0    0 -0.00000000000E+00 -0.00000000000E+00 -0.45593999997E+02  0.45594000000E+02  0.51100000000E-03 0. -1.
    9900012    2    1    2    0    0 -0.11020178657E+01  0.12358385947E+00  0.40435039802E+00  0.90007654461E+02  0.89999914700E+02 0.  0.
        -12    1    1    2    0    0  0.11020178657E+01 -0.12358385947E+00 -0.40435039802E+00  0.11803455388E+01  0.00000000000E+00 0.  1.
         11    1    3    3    0    0 -0.26193543846E+02 -0.19119264715E+02 -0.22547615403E+02  0.39497379446E+02  0.51100000000E-03 0. -1.
        -11    1    3    3    0    0  0.19367265016E+01 -0.57754935493E+01 -0.37981285085E+01  0.71786499920E+01  0.51100000000E-03 0.  1.
        -12    1    3    3    0    0  0.23154799479E+02  0.25018342124E+02  0.26750094310E+02  0.43331625023E+02  0.00000000000E+00 0.  1.
</event>
<event>
 7    1  0.2641103E-015  0.9000763E+02  0.7816164E-02  0.1186339E+00
        -11   -1    0    0    0    0  0.00000000000E+00  0.00000000000E+00  0.45593999997E+02  0.45594000000E+02  0.51100000000E-03 0.  1.
         11   -1    0    0    0    0 -0.00000000000E+00 -0.00000000000E+00 -0.45593999997E+02  0.45594000000E+02  0.51100000000E-03 0. -1.
    9900012    2    1    2    0    0 -0.44863209791E+00 -0.53060265580E+00 -0.95418306173E+00  0.90007629188E+02  0.89999889094E+02 0.  0.
        -12    1    1    2    0    0  0.44863209791E+00  0.53060265580E+00  0.95418306173E+00  0.11803708116E+01  0.00000000000E+00 0.  1.
         11    1    3    3    0    0  0.59220091659E+01  0.99542767672E+00  0.71134851296E+01  0.93092824520E+01  0.51100000000E-03 0. -1.
        -11    1    3    3    0    0  0.19090129741E+02 -0.75412689780E+01  0.28877057547E+02  0.35428635935E+02  0.51100000000E-03 0.  1.
         12    1    3    3    0    0 -0.25460771005E+02  0.60152386455E+01 -0.36944725739E+02  0.45269710802E+02  0.00000000000E+00 0. -1.
</event>
<event>
 7    1  0.2641103E-015  0.9000772E+02  0.7816164E-02  0.1186339E+00
        -11   -1    0    0    0    0  0.00000000000E+00  0.00000000000E+00  0.45593999997E+02  0.45594000000E+02  0.51100000000E-03 0. -1.
         11   -1    0    0    0    0 -0.00000000000E+00 -0.00000000000E+00 -0.45593999997E+02  0.45594000000E+02  0.51100000000E-03 0.  1.
    9900012    2    1    2    0    0  0.57126363866E+00  0.10199283921E+01  0.16268169025E+00  0.90007719778E+02  0.89999980879E+02 0.  0.
        -12    1    1    2    0    0 -0.57126363866E+00 -0.10199283921E+01 -0.16268169025E+00  0.11802802219E+01  0.00000000000E+00 0.  1.
         11    1    3    3    0    0  0.10739981996E+01  0.75914897127E+01 -0.66334772744E+01  0.10138402695E+02  0.51100000000E-03 0. -1.
        -11    1    3    3    0    0 -0.29118187973E+02 -0.24024311552E+02 -0.14184414079E+02  0.40326591964E+02  0.51100000000E-03 0.  1.
         12    1    3    3    0    0  0.28615453413E+02  0.17452750231E+02  0.20980573044E+02  0.39542725119E+02  0.00000000000E+00 0. -1.
</event>
<event>
 7    1  0.2641103E-015  0.9000774E+02  0.7816164E-02  0.1186339E+00
        -11   -1    0    0    0    0  0.00000000000E+00  0.00000000000E+00  0.45593999997E+02  0.45594000000E+02  0.51100000000E-03 0. -1.
         11   -1    0    0    0    0 -0.00000000000E+00 -0.00000000000E+00 -0.45593999997E+02  0.45594000000E+02  0.51100000000E-03 0.  1.
    9900012    2    1    2    0    0 -0.11767163321E+01  0.15869859716E-01  0.90030835692E-01  0.90007737855E+02  0.89999999195E+02 0.  0.
        -12    1    1    2    0    0  0.11767163321E+01 -0.15869859716E-01 -0.90030835692E-01  0.11802621446E+01  0.00000000000E+00 0.  1.
         11    1    3    3    0    0  0.24150540602E+02  0.14547236579E+02  0.22063501925E+02  0.35800402524E+02  0.51100000000E-03 0. -1.
        -11    1    3    3    0    0  0.66101524059E+01  0.55838023282E+01  0.27586239784E+01  0.90820135315E+01  0.51100000000E-03 0.  1.
        -12    1    3    3    0    0 -0.31937409340E+02 -0.20115169047E+02 -0.24732095067E+02  0.45125321800E+02  0.00000000000E+00 0.  1.
</event>
<event>
 7    1  0.2641103E-015  0.9000767E+02  0.7816164E-02  0.1186339E+00
        -11   -1    0    0    0    0  0.00000000000E+00  0.00000000000E+00  0.45593999997E+02  0.45594000000E+02  0.51100000000E-03 0.  1.
         11   -1    0    0    0    0 -0.00000000000E+00 -0.00000000000E+00 -0.45593999997E+02  0.45594000000E+02  0.51100000000E-03 0. -1.
    9900012    2    1    2    0    0  0.11774992815E+01  0.48011738209E-01  0.66056082218E-01  0.90007672465E+02  0.89999932941E+02 0.  0.
        -12    1    1    2    0    0 -0.11774992815E+01 -0.48011738209E-01 -0.66056082218E-01  0.11803275355E+01  0.00000000000E+00 0.  1.
         11    1    3    3    0    0 -0.10799274081E+01 -0.32762902127E+02 -0.74432760218E+01  0.33615120961E+02  0.51100000000E-03 0. -1.
        -11    1    3    3    0    0 -0.11573470828E+02  0.18119123254E+00  0.16192677872E+02  0.19904292858E+02  0.51100000000E-03 0.  1.
        -12    1    3    3    0    0  0.13830897517E+02  0.32629722633E+02 -0.86833457681E+01  0.36488258645E+02  0.00000000000E+00 0.  1.
</event>
<event>
 7    1  0.2641103E-015  0.9000775E+02  0.7816164E-02  0.1186339E+00
        -11   -1    0    0    0    0  0.00000000000E+00  0.00000000000E+00  0.45593999997E+02  0.45594000000E+02  0.51100000000E-03 0.  1.
         11   -1    0    0    0    0 -0.00000000000E+00 -0.00000000000E+00 -0.45593999997E+02  0.45594000000E+02  0.51100000000E-03 0. -1.
    9900012    2    1    2    0    0 -0.67572681977E-01  0.11385268989E+01 -0.30362537765E+00  0.90007746664E+02  0.90000008120E+02 0.  0.
        -12    1    1    2    0    0  0.67572681977E-01 -0.11385268989E+01  0.30362537765E+00  0.11802533359E+01  0.00000000000E+00 0.  1.
         11    1    3    3    0    0 -0.26335468433E+02 -0.47541396284E+00  0.13731167859E+02  0.29704004563E+02  0.51100000000E-03 0. -1.
        -11    1    3    3    0    0  0.11286258169E+01 -0.12711496314E+02  0.14740169901E+02  0.19496885488E+02  0.51100000000E-03 0.  1.
        -12    1    3    3    0    0  0.25139269934E+02  0.14325437176E+02 -0.28774963137E+02  0.40806856613E+02  0.00000000000E+00 0.  1.
</event>
<event>
 7    1  0.2641103E-015  0.9000767E+02  0.7816164E-02  0.1186339E+00
        -11   -1    0    0    0    0  0.00000000000E+00  0.00000000000E+00  0.45593999997E+02  0.45594000000E+02  0.51100000000E-03 0.  1.
         11   -1    0    0    0    0 -0.00000000000E+00 -0.00000000000E+00 -0.45593999997E+02  0.45594000000E+02  0.51100000000E-03 0. -1.
    9900012    2    1    2    0    0 -0.84733566037E+00 -0.81062059577E+00  0.13452754917E+00  0.90007669058E+02  0.89999929489E+02 0.  0.
        -12    1    1    2    0    0  0.84733566037E+00  0.81062059577E+00 -0.13452754917E+00  0.11803309422E+01  0.00000000000E+00 0.  1.
         11    1    3    3    0    0 -0.36511052433E+02  0.15626487324E+01 -0.45321830745E+00  0.36547287559E+02  0.51100000000E-03 0. -1.
        -11    1    3    3    0    0 -0.82616642982E+01  0.60979950430E+00  0.41960357585E+01  0.92862085244E+01  0.51100000000E-03 0.  1.
        -12    1    3    3    0    0  0.43925381071E+02 -0.29830688324E+01 -0.36082899019E+01  0.44174172974E+02  0.00000000000E+00 0.  1.
</event>
<event>
 7    1  0.2641103E-015  0.9000752E+02  0.7816164E-02  0.1186339E+00
        -11   -1    0    0    0    0  0.00000000000E+00  0.00000000000E+00  0.45593999997E+02  0.45594000000E+02  0.51100000000E-03 0. -1.
         11   -1    0    0    0    0 -0.00000000000E+00 -0.00000000000E+00 -0.45593999997E+02  0.45594000000E+02  0.51100000000E-03 0.  1.
    9900012    2    1    2    0    0 -0.34756107166E+00 -0.11018513961E+01 -0.24217138784E+00  0.90007524596E+02  0.89999783121E+02 0.  0.
        -12    1    1    2    0    0  0.34756107166E+00  0.11018513961E+01  0.24217138784E+00  0.11804754037E+01  0.00000000000E+00 0.  1.
         11    1    3    3    0    0 -0.22861574356E+01 -0.61931724762E+00 -0.11387567319E+02  0.11631283651E+02  0.51100000000E-03 0. -1.
        -11    1    3    3    0    0 -0.37712181270E+02 -0.83790287776E+00  0.25821950062E+01  0.37809766314E+02  0.51100000000E-03 0.  1.
         12    1    3    3    0    0  0.39650777634E+02  0.35536872927E+00  0.85632009249E+01  0.40566474631E+02  0.00000000000E+00 0. -1.
</event>
<event>
 7    1  0.2641103E-015  0.9000772E+02  0.7816164E-02  0.1186339E+00
        -11   -1    0    0    0    0  0.00000000000E+00  0.00000000000E+00  0.45593999997E+02  0.45594000000E+02  0.51100000000E-03 0.  1.
         11   -1    0    0    0    0 -0.00000000000E+00 -0.00000000000E+00 -0.45593999997E+02  0.45594000000E+02  0.51100000000E-03 0. -1.
    9900012    2    1    2    0    0 -0.44484138702E-02 -0.21880428005E+00 -0.11598170833E+01  0.90007715810E+02  0.89999976859E+02 0.  0.
        -12    1    1    2    0    0  0.44484138702E-02  0.21880428005E+00  0.11598170833E+01  0.11802841895E+01  0.00000000000E+00 0.  1.
         11    1    3    3    0    0 -0.25071181434E+02  0.31433106541E+02 -0.75402522717E+01  0.40907942137E+02  0.51100000000E-03 0. -1.
        -11    1    3    3    0    0 -0.55006095197E+01 -0.80271938417E+01  0.35689878955E+01  0.10364855084E+02  0.51100000000E-03 0.  1.
        -12    1    3    3    0    0  0.30567342539E+02 -0.23624716979E+02  0.28114472929E+01  0.38734918590E+02  0.00000000000E+00 0.  1.
</event>
<event>
 7    1  0.2641103E-015  0.9000768E+02  0.7816164E-02  0.1186339E+00
        -11   -1    0    0    0    0  0.00000000000E+00  0.00000000000E+00  0.45593999997E+02  0.45594000000E+02  0.51100000000E-03 0. -1.
         11   -1    0    0    0    0 -0.00000000000E+00 -0.00000000000E+00 -0.45593999997E+02  0.45594000000E+02  0.51100000000E-03 0.  1.
    9900012    2    1    2    0    0 -0.73423456369E+00 -0.92287935269E+00 -0.48478871681E-01  0.90007679325E+02  0.89999939892E+02 0.  0.
        -12    1    1    2    0    0  0.73423456369E+00  0.92287935269E+00  0.48478871681E-01  0.11803206747E+01  0.00000000000E+00 0.  1.
         11    1    3    3    0    0 -0.14454862090E+02 -0.16317316921E+01  0.69243495244E+01  0.16110623916E+02  0.51100000000E-03 0. -1.
        -11    1    3    3    0    0 -0.25387590966E+02  0.15617498843E+02 -0.11175967272E+02  0.31832974883E+02  0.51100000000E-03 0.  1.
         12    1    3    3    0    0  0.39108218492E+02 -0.14908646503E+02  0.42031388763E+01  0.42064080527E+02  0.00000000000E+00 0. -1.
</event>
<event>
 7    1  0.2641103E-015  0.9000774E+02  0.7816164E-02  0.1186339E+00
        -11   -1    0    0    0    0  0.00000000000E+00  0.00000000000E+00  0.45593999997E+02  0.45594000000E+02  0.51100000000E-03 0. -1.
         11   -1    0    0    0    0 -0.00000000000E+00 -0.00000000000E+00 -0.45593999997E+02  0.45594000000E+02  0.51100000000E-03 0.  1.
    9900012    2    1    2    0    0 -0.66394298848E+00 -0.24669573280E+00  0.94410518355E+00  0.90007739997E+02  0.90000001365E+02 0.  0.
        -12    1    1    2    0    0  0.66394298848E+00  0.24669573280E+00 -0.94410518355E+00  0.11802600028E+01  0.00000000000E+00 0.  1.
         11    1    3    3    0    0  0.75952997712E+01  0.49663623183E+01  0.38713574219E+01  0.98661411829E+01  0.51100000000E-03 0. -1.
        -11    1    3    3    0    0 -0.38909396339E+02 -0.15216747519E+02  0.13566161979E+02  0.43926430308E+02  0.51100000000E-03 0.  1.
         12    1    3    3    0    0  0.30650153579E+02  0.10003689468E+02 -0.16493414218E+02  0.36215168506E+02  0.00000000000E+00 0. -1.
</event>
<event>
 7    1  0.2641103E-015  0.9000773E+02  0.7816164E-02  0.1186339E+00
        -11   -1    0    0    0    0  0.00000000000E+00  0.00000000000E+00  0.45593999997E+02  0.45594000000E+02  0.51100000000E-03 0. -1.
         11   -1    0    0    0    0 -0.00000000000E+00 -0.00000000000E+00 -0.45593999997E+02  0.45594000000E+02  0.51100000000E-03 0.  1.
    9900012    2    1    2    0    0 -0.18791858069E+00  0.98334829454E+00 -0.62510166257E+00  0.90007729120E+02  0.89999990345E+02 0.  0.
        -12    1    1    2    0    0  0.18791858069E+00 -0.98334829454E+00  0.62510166257E+00  0.11802708799E+01  0.00000000000E+00 0.  1.
         11    1    3    3    0    0 -0.23135446501E+02  0.10573846521E+02  0.13180402442E+02  0.28649225537E+02  0.51100000000E-03 0. -1.
        -11    1    3    3    0    0  0.10364241001E+02 -0.79902055651E+01  0.20759145977E+02  0.24539825151E+02  0.51100000000E-03 0.  1.
        -12    1    3    3    0    0  0.12583286919E+02 -0.16002926613E+01 -0.34564650081E+02  0.36818678432E+02  0.00000000000E+00 0.  1.
</event>
<event>
 7    1  0.2641103E-015  0.9000737E+02  0.7816164E-02  0.1186340E+00
        -11   -1    0    0    0    0  0.00000000000E+00  0.00000000000E+00  0.45593999997E+02  0.45594000000E+02  0.51100000000E-03 0.  1.
         11   -1    0    0    0    0 -0.00000000000E+00 -0.00000000000E+00 -0.45593999997E+02  0.45594000000E+02  0.51100000000E-03 0. -1.
    9900012    2    1    2    0    0 -0.10984919406E+01  0.34043588484E+00  0.26701272169E+00  0.90007374349E+02  0.89999630889E+02 0.  0.
        -12    1    1    2    0    0  0.10984919406E+01 -0.34043588484E+00 -0.26701272169E+00  0.11806256514E+01  0.00000000000E+00 0.  1.
         11    1    3    3    0    0 -0.22753031263E+02 -0.22604020616E+02 -0.17478574930E+02  0.36525919037E+02  0.51100000000E-03 0. -1.
        -11    1    3    3    0    0 -0.80488764458E-01 -0.35471158599E+01 -0.92185687425E+01  0.98777790664E+01  0.51100000000E-03 0.  1.
        -12    1    3    3    0    0  0.21735028087E+02  0.26491572360E+02  0.26964156394E+02  0.43603676245E+02  0.00000000000E+00 0.  1.
</event>
<event>
 7    1  0.2641103E-015  0.9000770E+02  0.7816164E-02  0.1186339E+00
        -11   -1    0    0    0    0  0.00000000000E+00  0.00000000000E+00  0.45593999997E+02  0.45594000000E+02  0.51100000000E-03 0.  1.
         11   -1    0    0    0    0 -0.00000000000E+00 -0.00000000000E+00 -0.45593999997E+02  0.45594000000E+02  0.51100000000E-03 0. -1.
    9900012    2    1    2    0    0 -0.94594681073E+00 -0.49498459604E+00  0.50327458490E+00  0.90007699010E+02  0.89999959837E+02 0.  0.
        -12    1    1    2    0    0  0.94594681073E+00  0.49498459604E+00 -0.50327458490E+00  0.11803009899E+01  0.00000000000E+00 0.  1.
         11    1    3    3    0    0  0.81372264340E+01  0.31910691767E+02 -0.46207747767E+01  0.33254447264E+02  0.51100000000E-03 0. -1.
        -11    1    3    3    0    0  0.33640305144E+01  0.97504990894E+01 -0.52741219986E+01  0.11584700985E+02  0.51100000000E-03 0.  1.
        -12    1    3    3    0    0 -0.12447203759E+02 -0.42156175452E+02  0.10398171360E+02  0.45168550761E+02  0.00000000000E+00 0.  1.
</event>
<event>
 7    1  0.2641103E-015  0.9000774E+02  0.7816164E-02  0.1186339E+00
        -11   -1    0    0    0    0  0.00000000000E+00  0.00000000000E+00  0.45593999997E+02  0.45594000000E+02  0.51100000000E-03 0.  1.
         11   -1    0    0    0    0 -0.00000000000E+00 -0.00000000000E+00 -0.45593999997E+02  0.45594000000E+02  0.51100000000E-03 0. -1.
    9900012    2    1    2    0    0  0.38136952473E+00  0.99260958105E+00 -0.51216008840E+00  0.90007735432E+02  0.89999996740E+02 0.  0.
        -12    1    1    2    0    0 -0.38136952473E+00 -0.99260958105E+00  0.51216008840E+00  0.11802645682E+01  0.00000000000E+00 0.  1.
         11    1    3    3    0    0 -0.31265027340E+02 -0.43949457090E+01 -0.24833410242E+02  0.40168591547E+02  0.51100000000E-03 0. -1.
        -11    1    3    3    0    0  0.10456686332E+01 -0.94148433201E+01  0.44710956034E+01  0.10474893498E+02  0.51100000000E-03 0.  1.
        -12    1    3    3    0    0  0.30600728231E+02  0.14802398610E+02  0.19850154550E+02  0.39364250387E+02  0.00000000000E+00 0.  1.
</event>
<event>
 7    1  0.2641103E-015  0.9000777E+02  0.7816164E-02  0.1186339E+00
        -11   -1    0    0    0    0  0.00000000000E+00  0.00000000000E+00  0.45593999997E+02  0.45594000000E+02  0.51100000000E-03 0.  1.
         11   -1    0    0    0    0 -0.00000000000E+00 -0.00000000000E+00 -0.45593999997E+02  0.45594000000E+02  0.51100000000E-03 0. -1.
    9900012    2    1    2    0    0  0.31111552991E+00  0.19818472591E+00 -0.11210995680E+01  0.90007773623E+02  0.90000035435E+02 0.  0.
        -12    1    1    2    0    0 -0.31111552991E+00 -0.19818472591E+00  0.11210995680E+01  0.11802263765E+01  0.00000000000E+00 0.  1.
         11    1    3    3    0    0 -0.51123230544E+01 -0.10403580989E+01  0.95546213819E+01  0.10886183078E+02  0.51100000000E-03 0. -1.
        -11    1    3    3    0    0 -0.22899882026E+02 -0.20368387888E+02 -0.26144446934E+02  0.40284090255E+02  0.51100000000E-03 0.  1.
         12    1    3    3    0    0  0.28323320611E+02  0.21606930713E+02  0.15468725984E+02  0.38837500290E+02  0.00000000000E+00 0. -1.
</event>
<event>
 7    1  0.3913902E-015  0.9000775E+02  0.7816164E-02  0.1186339E+00
        -11   -1    0    0    0    0  0.00000000000E+00  0.00000000000E+00  0.45593999997E+02  0.45594000000E+02  0.51100000000E-03 0.  1.
         11   -1    0    0    0    0 -0.00000000000E+00 -0.00000000000E+00 -0.45593999997E+02  0.45594000000E+02  0.51100000000E-03 0. -1.
    9900012    2    1    2    0    0  0.37096584058E+00  0.96979940380E+00 -0.56112682651E+00  0.90007750088E+02  0.90000011590E+02 0.  0.
        -12    1    1    2    0    0 -0.37096584058E+00 -0.96979940380E+00  0.56112682651E+00  0.11802499116E+01  0.00000000000E+00 0.  1.
         11    1    3    3    0    0 -0.33188913618E+01 -0.12769745857E+01  0.83562313960E+01  0.90814265051E+01  0.51100000000E-03 0. -1.
        -11    1    3    3    0    0 -0.50542663212E+01 -0.22374989662E+02  0.27686002049E+02  0.35954144131E+02  0.51100000000E-03 0.  1.
         12    1    3    3    0    0  0.87441235235E+01  0.24621763652E+02 -0.36603360272E+02  0.44972179453E+02  0.00000000000E+00 0. -1.
</event>
<event>
 7    1  0.2641103E-015  0.9000770E+02  0.7816164E-02  0.1186339E+00
        -11   -1    0    0    0    0  0.00000000000E+00  0.00000000000E+00  0.45593999997E+02  0.45594000000E+02  0.51100000000E-03 0.  1.
         11   -1    0    0    0    0 -0.00000000000E+00 -0.00000000000E+00 -0.45593999997E+02  0.45594000000E+02  0.51100000000E-03 0. -1.
    9900012    2    1    2    0    0 -0.67462668050E+00 -0.98364096621E-01 -0.96349206137E+00  0.90007697663E+02  0.89999958473E+02 0.  0.
        -12    1    1    2    0    0  0.67462668050E+00  0.98364096621E-01  0.96349206137E+00  0.11803023366E+01  0.00000000000E+00 0.  1.
         11    1    3    3    0    0  0.72795617300E+01 -0.30364708779E+02 -0.24814905254E+01  0.31323559085E+02  0.51100000000E-03 0. -1.
        -11    1    3    3    0    0  0.12488389966E+02 -0.61905162852E+00  0.14765409858E+02  0.19348396249E+02  0.51100000000E-03 0.  1.
        -12    1    3    3    0    0 -0.20442578377E+02  0.30885396311E+02 -0.13247411394E+02  0.39335742330E+02  0.00000000000E+00 0.  1.
</event>
<event>
 7    1  0.2641103E-015  0.9000773E+02  0.7816164E-02  0.1186339E+00
        -11   -1    0    0    0    0  0.00000000000E+00  0.00000000000E+00  0.45593999997E+02  0.45594000000E+02  0.51100000000E-03 0. -1.
         11   -1    0    0    0    0 -0.00000000000E+00 -0.00000000000E+00 -0.45593999997E+02  0.45594000000E+02  0.51100000000E-03 0.  1.
    9900012    2    1    2    0    0 -0.69058844960E+00  0.93968240092E+00  0.18200234516E+00  0.90007728728E+02  0.89999989947E+02 0.  0.
        -12    1    1    2    0    0  0.69058844960E+00 -0.93968240092E+00 -0.18200234516E+00  0.11802712718E+01  0.00000000000E+00 0.  1.
         11    1    3    3    0    0 -0.28829177896E+02 -0.73271122098E+01 -0.66204238599E+01  0.30473563688E+02  0.51100000000E-03 0. -1.
        -11    1    3    3    0    0  0.10130067666E+02  0.55728936189E+01 -0.22349329066E+02  0.25162828223E+02  0.51100000000E-03 0.  1.
         12    1    3    3    0    0  0.18008521780E+02  0.26939009919E+01  0.29151755271E+02  0.34371336818E+02  0.00000000000E+00 0. -1.
</event>
<event>
 7    1  0.2641103E-015  0.9000781E+02  0.7816164E-02  0.1186339E+00
        -11   -1    0    0    0    0  0.00000000000E+00  0.00000000000E+00  0.45593999997E+02  0.45594000000E+02  0.51100000000E-03 0.  1.
         11   -1    0    0    0    0 -0.00000000000E+00 -0.00000000000E+00 -0.45593999997E+02  0.45594000000E+02  0.51100000000E-03 0. -1.
    9900012    2    1    2    0    0 -0.11474350242E+01 -0.12575976708E+00 -0.24579288402E+00  0.90007814932E+02  0.90000077289E+02 0.  0.
        -12    1    1    2    0    0  0.11474350242E+01  0.12575976708E+00  0.24579288402E+00  0.11801850684E+01  0.00000000000E+00 0.  1.
         11    1    3    3    0    0 -0.11577066905E+02  0.14881683965E+02  0.20439257537E+02  0.27807485408E+02  0.51100000000E-03 0. -1.
        -11    1    3    3    0    0  0.17527028968E+02 -0.17274943125E+02  0.12909226623E+02  0.27789719983E+02  0.51100000000E-03 0.  1.
        -12    1    3    3    0    0 -0.70973970871E+01  0.22674993928E+01 -0.33594277044E+02  0.34410609542E+02  0.00000000000E+00 0.  1.
</event>
<event>
 7    1  0.2641103E-015  0.9000773E+02  0.7816164E-02  0.1186339E+00
        -11   -1    0    0    0    0  0.00000000000E+00  0.00000000000E+00  0.45593999997E+02  0.45594000000E+02  0.51100000000E-03 0. -1.
         11   -1    0    0    0    0 -0.00000000000E+00 -0.00000000000E+00 -0.45593999997E+02  0.45594000000E+02  0.51100000000E-03 0.  1.
    9900012    2    1    2    0    0  0.54412677561E+00 -0.10048075968E+01 -0.29552388736E+00  0.90007726039E+02  0.89999987223E+02 0.  0.
        -12    1    1    2    0    0 -0.54412677561E+00  0.10048075968E+01  0.29552388736E+00  0.11802739608E+01  0.00000000000E+00 0.  1.
         11    1    3    3    0    0  0.26184791046E+01 -0.35481559895E+02  0.22007285096E+01  0.35646047910E+02  0.51100000000E-03 0. -1.
        -11    1    3    3    0    0  0.40184399744E+01 -0.88980116481E+01  0.30089477164E+01  0.10216468947E+02  0.51100000000E-03 0.  1.
        -12    1    3    3    0    0 -0.60927923034E+01  0.43374763946E+02 -0.55052001133E+01  0.44145209182E+02  0.00000000000E+00 0.  1.
</event>
<event>
 7    1  0.2641103E-015  0.9000748E+02  0.7816164E-02  0.1186340E+00
        -11   -1    0    0    0    0  0.00000000000E+00  0.00000000000E+00  0.45593999997E+02  0.45594000000E+02  0.51100000000E-03 0.  1.
         11   -1    0    0    0    0 -0.00000000000E+00 -0.00000000000E+00 -0.45593999997E+02  0.45594000000E+02  0.51100000000E-03 0. -1.
    9900012    2    1    2    0    0  0.74435193105E-01 -0.10164791073E+01 -0.59570121258E+00  0.90007478798E+02  0.89999736718E+02 0.  0.
        -12    1    1    2    0    0 -0.74435193105E-01  0.10164791073E+01  0.59570121258E+00  0.11805212019E+01  0.00000000000E+00 0.  1.
         11    1    3    3    0    0 -0.21011137447E+01 -0.91025588274E+01 -0.36451164099E+02  0.37629225618E+02  0.51100000000E-03 0. -1.
        -11    1    3    3    0    0 -0.12824481946E+01 -0.83387341959E+01 -0.38477929478E+01  0.92727920387E+01  0.51100000000E-03 0.  1.
        -12    1    3    3    0    0  0.34579971323E+01  0.16424813916E+02  0.39703255834E+02  0.43105461141E+02  0.00000000000E+00 0.  1.
</event>
<event>
 7    1  0.2641103E-015  0.9000768E+02  0.7816164E-02  0.1186339E+00
        -11   -1    0    0    0    0  0.00000000000E+00  0.00000000000E+00  0.45593999997E+02  0.45594000000E+02  0.51100000000E-03 0.  1.
         11   -1    0    0    0    0 -0.00000000000E+00 -0.00000000000E+00 -0.45593999997E+02  0.45594000000E+02  0.51100000000E-03 0. -1.
    9900012    2    1    2    0    0 -0.69626916209E+00  0.81055316402E-01 -0.94962601815E+00  0.90007682126E+02  0.89999942730E+02 0.  0.
        -12    1    1    2    0    0  0.69626916209E+00 -0.81055316402E-01  0.94962601815E+00  0.11803178744E+01  0.00000000000E+00 0.  1.
         11    1    3    3    0    0 -0.28036228827E+01 -0.18421495497E+02 -0.38831391610E+02  0.43070741487E+02  0.51100000000E-03 0. -1.
        -11    1    3    3    0    0 -0.71143667852E+01  0.42081071684E+01  0.43580580055E+01  0.93442522727E+01  0.51100000000E-03 0.  1.
        -12    1    3    3    0    0  0.92217205058E+01  0.14294443645E+02  0.33523707587E+02  0.37592688366E+02  0.00000000000E+00 0.  1.
</event>
<event>
 7    1  0.2641103E-015  0.9000775E+02  0.7816164E-02  0.1186339E+00
        -11   -1    0    0    0    0  0.00000000000E+00  0.00000000000E+00  0.45593999997E+02  0.45594000000E+02  0.51100000000E-03 0.  1.
         11   -1    0    0    0    0 -0.00000000000E+00 -0.00000000000E+00 -0.45593999997E+02  0.45594000000E+02  0.51100000000E-03 0. -1.
    9900012    2    1    2    0    0 -0.83238535435E+00  0.54738675227E+00 -0.63285048851E+00  0.90007746902E+02  0.90000008361E+02 0.  0.
        -12    1    1    2    0    0  0.83238535435E+00 -0.54738675227E+00  0.63285048851E+00  0.11802530981E+01  0.00000000000E+00 0.  1.
         11    1    3    3    0    0  0.15076990278E+00  0.84508450019E+01  0.17415604588E+01  0.86297477311E+01  0.51100000000E-03 0. -1.
        -11    1    3    3    0    0  0.32163379547E+02 -0.39264577062E+01  0.22753987185E+02  0.39593484150E+02  0.51100000000E-03 0.  1.
         12    1    3    3    0    0 -0.33146534805E+02 -0.39770005434E+01 -0.25128398132E+02  0.41784515021E+02  0.00000000000E+00 0. -1.
</event>
<event>
 7    1  0.2641103E-015  0.9000771E+02  0.7816164E-02  0.1186339E+00
        -11   -1    0    0    0    0  0.00000000000E+00  0.00000000000E+00  0.45593999997E+02  0.45594000000E+02  0.51100000000E-03 0.  1.
         11   -1    0    0    0    0 -0.00000000000E+00 -0.00000000000E+00 -0.45593999997E+02  0.45594000000E+02  0.51100000000E-03 0. -1.
    9900012    2    1    2    0    0  0.80316410324E+00 -0.82998076254E+00  0.24321339298E+00  0.90007706224E+02  0.89999967146E+02 0.  0.
        -12    1    1    2    0    0 -0.80316410324E+00  0.82998076254E+00 -0.24321339298E+00  0.11802937759E+01  0.00000000000E+00 0.  1.
         11    1    3    3    0    0 -0.21100015510E+02 -0.28345571846E+02  0.39138827943E+01  0.35552785778E+02  0.51100000000E-03 0. -1.
        -11    1    3    3    0    0 -0.73719965924E+01 -0.59009980327E+01 -0.33739265705E+01  0.10027536702E+02  0.51100000000E-03 0.  1.
        -12    1    3    3    0    0  0.29275176206E+02  0.33416589116E+02 -0.29674283089E+00  0.44427383744E+02  0.00000000000E+00 0.  1.
</event>
<event>
 7    1  0.2641103E-015  0.9000770E+02  0.7816164E-02  0.1186339E+00
        -11   -1    0    0    0    0  0.00000000000E+00  0.00000000000E+00  0.45593999997E+02  0.45594000000E+02  0.51100000000E-03 0. -1.
         11   -1    0    0    0    0 -0.00000000000E+00 -0.00000000000E+00 -0.45593999997E+02  0.45594000000E+02  0.51100000000E-03 0.  1.
    9900012    2    1    2    0    0  0.73268139973E+00  0.50986662103E+00  0.77222563405E+00  0.90007695618E+02  0.89999956400E+02 0.  0.
        -12    1    1    2    0    0 -0.73268139973E+00 -0.50986662103E+00 -0.77222563405E+00  0.11803043822E+01  0.00000000000E+00 0.  1.
         11    1    3    3    0    0  0.39587120514E+02  0.53109879166E+01 -0.73347293669E+01  0.40609665825E+02  0.51100000000E-03 0. -1.
        -11    1    3    3    0    0  0.25401882792E+01  0.28957958997E+01 -0.40346389514E+01  0.55782167505E+01  0.51100000000E-03 0.  1.
        -12    1    3    3    0    0 -0.41394627394E+02 -0.76969171953E+01  0.12141593952E+02  0.43819813042E+02  0.00000000000E+00 0.  1.
</event>
<event>
 7    1  0.2641103E-015  0.9000776E+02  0.7816164E-02  0.1186339E+00
        -11   -1    0    0    0    0  0.00000000000E+00  0.00000000000E+00  0.45593999997E+02  0.45594000000E+02  0.51100000000E-03 0. -1.
         11   -1    0    0    0    0 -0.00000000000E+00 -0.00000000000E+00 -0.45593999997E+02  0.45594000000E+02  0.51100000000E-03 0.  1.
    9900012    2    1    2    0    0  0.66678522456E+00  0.96687868172E+00 -0.11623682487E+00  0.90007759380E+02  0.90000021004E+02 0.  0.
        -12    1    1    2    0    0 -0.66678522456E+00 -0.96687868172E+00  0.11623682487E+00  0.11802406197E+01  0.00000000000E+00 0.  1.
         11    1    3    3    0    0  0.73279374369E+01  0.42449170131E+01  0.40522247390E+01  0.93882113911E+01  0.51100000000E-03 0. -1.
        -11    1    3    3    0    0  0.34745098098E+02 -0.37617154297E+01 -0.14665800290E+02  0.37900633810E+02  0.51100000000E-03 0.  1.
         12    1    3    3    0    0 -0.41406250311E+02  0.48367709832E+00  0.10497338726E+02  0.42718914179E+02  0.00000000000E+00 0. -1.
</event>
<event>
 7    1  0.2641103E-015  0.9000781E+02  0.7816164E-02  0.1186339E+00
        -11   -1    0    0    0    0  0.00000000000E+00  0.00000000000E+00  0.45593999997E+02  0.45594000000E+02  0.51100000000E-03 0. -1.
         11   -1    0    0    0    0 -0.00000000000E+00 -0.00000000000E+00 -0.45593999997E+02  0.45594000000E+02  0.51100000000E-03 0.  1.
    9900012    2    1    2    0    0 -0.10371534439E+01  0.48502672284E+00  0.28618710696E+00  0.90007813045E+02  0.90000075377E+02 0.  0.
        -12    1    1    2    0    0  0.10371534439E+01 -0.48502672284E+00 -0.28618710696E+00  0.11801869548E+01  0.00000000000E+00 0.  1.
         11    1    3    3    0    0 -0.19368213500E+02  0.44445556561E+01 -0.72218995267E+01  0.21143263754E+02  0.51100000000E-03 0. -1.
        -11    1    3    3    0    0  0.10177305440E+02  0.18789133206E+02 -0.22036544273E+02  0.30695575518E+02  0.51100000000E-03 0.  1.
         12    1    3    3    0    0  0.81537546152E+01 -0.22748662139E+02  0.29544630907E+02  0.38168973773E+02  0.00000000000E+00 0. -1.
</event>
<event>
 7    1  0.2641103E-015  0.9000796E+02  0.7816164E-02  0.1186339E+00
        -11   -1    0    0    0    0  0.00000000000E+00  0.00000000000E+00  0.45593999997E+02  0.45594000000E+02  0.51100000000E-03 0.  1.
         11   -1    0    0    0    0 -0.00000000000E+00 -0.00000000000E+00 -0.45593999997E+02  0.45594000000E+02  0.51100000000E-03 0. -1.
    9900012    2    1    2    0    0  0.24386704982E+00  0.10325390848E+01  0.51661881888E+00  0.90007956313E+02  0.90000220536E+02 0.  0.
        -12    1    1    2    0    0 -0.24386704982E+00 -0.10325390848E+01 -0.51661881888E+00  0.11800436872E+01  0.00000000000E+00 0.  1.
         11    1    3    3    0    0  0.72766453819E+00 -0.11191895046E+02  0.99360797319E+01  0.14983780935E+02  0.51100000000E-03 0. -1.
        -11    1    3    3    0    0 -0.36238803591E+02  0.12898390733E+02 -0.21113573674E+01  0.38523722554E+02  0.51100000000E-03 0.  1.
         12    1    3    3    0    0  0.35755006103E+02 -0.67395660231E+00 -0.73081035456E+01  0.36500452824E+02  0.00000000000E+00 0. -1.
</event>
<event>
 7    1  0.2641103E-015  0.9000770E+02  0.7816164E-02  0.1186339E+00
        -11   -1    0    0    0    0  0.00000000000E+00  0.00000000000E+00  0.45593999997E+02  0.45594000000E+02  0.51100000000E-03 0. -1.
         11   -1    0    0    0    0 -0.00000000000E+00 -0.00000000000E+00 -0.45593999997E+02  0.45594000000E+02  0.51100000000E-03 0.  1.
    9900012    2    1    2    0    0  0.54464955781E-01  0.40102724979E-01  0.11783571147E+01  0.90007703364E+02  0.89999964248E+02 0.  0.
        -12    1    1    2    0    0 -0.54464955781E-01 -0.40102724979E-01 -0.11783571147E+01  0.11802966363E+01  0.00000000000E+00 0.  1.
         11    1    3    3    0    0  0.60261456961E+01  0.18482264773E+02  0.39137525342E+02  0.43699593055E+02  0.51100000000E-03 0. -1.
        -11    1    3    3    0    0 -0.75648136007E+01 -0.30837730219E+01 -0.42006596189E+01  0.91859459153E+01  0.51100000000E-03 0.  1.
        -12    1    3    3    0    0  0.15931328603E+01 -0.15358389026E+02 -0.33758508608E+02  0.37122164393E+02  0.00000000000E+00 0.  1.
</event>
<event>
 7    1  0.2641103E-015  0.9000783E+02  0.7816164E-02  0.1186339E+00
        -11   -1    0    0    0    0  0.00000000000E+00  0.00000000000E+00  0.45593999997E+02  0.45594000000E+02  0.51100000000E-03 0. -1.
         11   -1    0    0    0    0 -0.00000000000E+00 -0.00000000000E+00 -0.45593999997E+02  0.45594000000E+02  0.51100000000E-03 0.  1.
    9900012    2    1    2    0    0 -0.29831391555E-01  0.60869682606E+00  0.10106476315E+01  0.90007826126E+02  0.90000088631E+02 0.  0.
        -12    1    1    2    0    0  0.29831391555E-01 -0.60869682606E+00 -0.10106476315E+01  0.11801738741E+01  0.00000000000E+00 0.  1.
         11    1    3    3    0    0 -0.27562640432E+02  0.11886635609E+02  0.17628759234E+02  0.34810406577E+02  0.51100000000E-03 0. -1.
        -11    1    3    3    0    0 -0.10658331433E+02  0.23070784921E+01  0.10967797313E+01  0.10960180936E+02  0.51100000000E-03 0.  1.
        -12    1    3    3    0    0  0.38191140474E+02 -0.13585017275E+02 -0.17714891334E+02  0.44237238612E+02  0.00000000000E+00 0.  1.
</event>
<event>
 7    1  0.3033091E-015  0.9000771E+02  0.7816164E-02  0.1186339E+00
        -11   -1    0    0    0    0  0.00000000000E+00  0.00000000000E+00  0.45593999997E+02  0.45594000000E+02  0.51100000000E-03 0.  1.
         11   -1    0    0    0    0 -0.00000000000E+00 -0.00000000000E+00 -0.45593999997E+02  0.45594000000E+02  0.51100000000E-03 0. -1.
    9900012    2    1    2    0    0  0.86392056611E-01  0.90327089909E+00 -0.75480690250E+00  0.90007705391E+02  0.89999966302E+02 0.  0.
        -12    1    1    2    0    0 -0.86392056611E-01 -0.90327089909E+00  0.75480690250E+00  0.11802946093E+01  0.00000000000E+00 0.  1.
         11    1    3    3    0    0 -0.18158562032E+01 -0.85289352248E+01 -0.35829832090E+01  0.94275043758E+01  0.51100000000E-03 0. -1.
        -11    1    3    3    0    0  0.21796579079E+02 -0.26623510526E+02  0.15150920758E+02  0.37595911644E+02  0.51100000000E-03 0.  1.
         12    1    3    3    0    0 -0.19894330819E+02  0.36055716650E+02 -0.12322744452E+02  0.42984289371E+02  0.00000000000E+00 0. -1.
</event>
<event>
 7    1  0.2641103E-015  0.9000774E+02  0.7816164E-02  0.1186339E+00
        -11   -1    0    0    0    0  0.00000000000E+00  0.00000000000E+00  0.45593999997E+02  0.45594000000E+02  0.51100000000E-03 0.  1.
         11   -1    0    0    0    0 -0.00000000000E+00 -0.00000000000E+00 -0.45593999997E+02  0.45594000000E+02  0.51100000000E-03 0. -1.
    9900012    2    1    2    0    0 -0.35224109240E+00  0.11013741571E+01 -0.23644634736E+00  0.90007743377E+02  0.90000004790E+02 0.  0.
        -12    1    1    2    0    0  0.35224109240E+00 -0.11013741571E+01  0.23644634736E+00  0.11802566231E+01  0.00000000000E+00 0.  1.
         11    1    3    3    0    0  0.37514362663E-01 -0.49965350932E+01 -0.76846489569E+01  0.91662751495E+01  0.51100000000E-03 0. -1.
        -11    1    3    3    0    0 -0.10105237411E+02 -0.12873683770E+02  0.39268270748E+02  0.42542268919E+02  0.51100000000E-03 0.  1.
         12    1    3    3    0    0  0.97154819557E+01  0.18971593020E+02 -0.31820068138E+02  0.38299199309E+02  0.00000000000E+00 0. -1.
</event>
<event>
 7    1  0.2641103E-015  0.9000777E+02  0.7816164E-02  0.1186339E+00
        -11   -1    0    0    0    0  0.00000000000E+00  0.00000000000E+00  0.45593999997E+02  0.45594000000E+02  0.51100000000E-03 0.  1.
         11   -1    0    0    0    0 -0.00000000000E+00 -0.00000000000E+00 -0.45593999997E+02  0.45594000000E+02  0.51100000000E-03 0. -1.
    9900012    2    1    2    0    0  0.11509946206E+00  0.68638697355E-01 -0.11726005415E+01  0.90007766469E+02  0.90000028187E+02 0.  0.
        -12    1    1    2    0    0 -0.11509946206E+00 -0.68638697355E-01  0.11726005415E+01  0.11802335306E+01  0.00000000000E+00 0.  1.
         11    1    3    3    0    0 -0.32772072604E+02  0.86059048637E+01 -0.59059945990E+01  0.34394056372E+02  0.51100000000E-03 0. -1.
        -11    1    3    3    0    0 -0.93176242341E+01  0.39344570449E+01 -0.37639478903E+01  0.10791912601E+02  0.51100000000E-03 0.  1.
        -12    1    3    3    0    0  0.42204796300E+02 -0.12471723211E+02  0.84973419479E+01  0.44821797496E+02  0.00000000000E+00 0.  1.
</event>
<event>
 7    1  0.2641103E-015  0.9000765E+02  0.7816164E-02  0.1186339E+00
        -11   -1    0    0    0    0  0.00000000000E+00  0.00000000000E+00  0.45593999997E+02  0.45594000000E+02  0.51100000000E-03 0.  1.
         11   -1    0    0    0    0 -0.00000000000E+00 -0.00000000000E+00 -0.45593999997E+02  0.45594000000E+02  0.51100000000E-03 0. -1.
    9900012    2    1    2    0    0 -0.11292354648E+01 -0.20722544077E+00 -0.27407433006E+00  0.90007647571E+02  0.89999907719E+02 0.  0.
        -12    1    1    2    0    0  0.11292354648E+01  0.20722544077E+00  0.27407433006E+00  0.11803524290E+01  0.00000000000E+00 0.  1.
         11    1    3    3    0    0  0.25288825175E+02 -0.95936466815E+01  0.28706449197E+02  0.39441386400E+02  0.51100000000E-03 0. -1.
        -11    1    3    3    0    0  0.65644729368E+01 -0.59772706071E+00 -0.73814867938E+01  0.98962583902E+01  0.51100000000E-03 0.  1.
        -12    1    3    3    0    0 -0.32982533576E+02  0.99841483014E+01 -0.21599036733E+02  0.40670002781E+02  0.00000000000E+00 0.  1.
</event>
<event>
 7    1  0.2641103E-015  0.9000791E+02  0.7816164E-02  0.1186339E+00
        -11   -1    0    0    0    0  0.00000000000E+00  0.00000000000E+00  0.45593999997E+02  0.45594000000E+02  0.51100000000E-03 0.  1.
         11   -1    0    0    0    0 -0.00000000000E+00 -0.00000000000E+00 -0.45593999997E+02  0.45594000000E+02  0.51100000000E-03 0. -1.
    9900012    2    1    2    0    0 -0.36823160194E+00 -0.75622878164E+00 -0.82772341042E+00  0.90007914187E+02  0.90000177854E+02 0.  0.
        -12    1    1    2    0    0  0.36823160194E+00  0.75622878164E+00  0.82772341042E+00  0.11800858134E+01  0.00000000000E+00 0.  1.
         11    1    3    3    0    0  0.78170150126E+01 -0.30398461564E+01  0.40636699899E+00  0.83971139543E+01  0.51100000000E-03 0. -1.
        -11    1    3    3    0    0 -0.13564948295E+02  0.27172023242E+02  0.29062266952E+02  0.42035009575E+02  0.51100000000E-03 0.  1.
         12    1    3    3    0    0  0.53797016804E+01 -0.24888405868E+02 -0.30296357361E+02  0.39575790657E+02  0.00000000000E+00 0. -1.
</event>
<event>
 7    1  0.3796935E-015  0.9000770E+02  0.7816164E-02  0.1186339E+00
        -11   -1    0    0    0    0  0.00000000000E+00  0.00000000000E+00  0.45593999997E+02  0.45594000000E+02  0.51100000000E-03 0. -1.
         11   -1    0    0    0    0 -0.00000000000E+00 -0.00000000000E+00 -0.45593999997E+02  0.45594000000E+02  0.51100000000E-03 0.  1.
    9900012    2    1    2    0    0 -0.66382697338E+00  0.24466321305E+00  0.94476891915E+00  0.90007697221E+02  0.89999958025E+02 0.  0.
        -12    1    1    2    0    0  0.66382697338E+00 -0.24466321305E+00 -0.94476891915E+00  0.11803027785E+01  0.00000000000E+00 0.  1.
         11    1    3    3    0    0 -0.86758742097E+01  0.35462663658E+01  0.36608785770E+00  0.93798091143E+01  0.51100000000E-03 0. -1.
        -11    1    3    3    0    0  0.31190929454E+01 -0.95271426091E+01 -0.38998518488E+02  0.40266358560E+02  0.51100000000E-03 0.  1.
         12    1    3    3    0    0  0.48929542909E+01  0.62255394563E+01  0.39577199550E+02  0.40361529548E+02  0.00000000000E+00 0. -1.
</event>
<event>
 7    1  0.2641103E-015  0.9000772E+02  0.7816164E-02  0.1186339E+00
        -11   -1    0    0    0    0  0.00000000000E+00  0.00000000000E+00  0.45593999997E+02  0.45594000000E+02  0.51100000000E-03 0.  1.
         11   -1    0    0    0    0 -0.00000000000E+00 -0.00000000000E+00 -0.45593999997E+02  0.45594000000E+02  0.51100000000E-03 0. -1.
    9900012    2    1    2    0    0 -0.60856018614E-01 -0.11237692025E+01  0.35566712571E+00  0.90007720465E+02  0.89999981576E+02 0.  0.
        -12    1    1    2    0    0  0.60856018614E-01  0.11237692025E+01 -0.35566712571E+00  0.11802795346E+01  0.00000000000E+00 0.  1.
         11    1    3    3    0    0  0.28291463099E+02  0.17378657400E+02 -0.24231329858E+02  0.41104524863E+02  0.51100000000E-03 0. -1.
        -11    1    3    3    0    0  0.33362853216E+01 -0.83590668413E+01  0.53022396668E+01  0.10445982192E+02  0.51100000000E-03 0.  1.
        -12    1    3    3    0    0 -0.31688604439E+02 -0.10143359761E+02  0.19284757317E+02  0.38457213410E+02  0.00000000000E+00 0.  1.
</event>
<event>
 7    1  0.2641103E-015  0.9000765E+02  0.7816164E-02  0.1186339E+00
        -11   -1    0    0    0    0  0.00000000000E+00  0.00000000000E+00  0.45593999997E+02  0.45594000000E+02  0.51100000000E-03 0.  1.
         11   -1    0    0    0    0 -0.00000000000E+00 -0.00000000000E+00 -0.45593999997E+02  0.45594000000E+02  0.51100000000E-03 0. -1.
    9900012    2    1    2    0    0 -0.12344078335E+00 -0.11668531145E+01  0.12821947016E+00  0.90007650878E+02  0.89999911069E+02 0.  0.
        -12    1    1    2    0    0  0.12344078335E+00  0.11668531145E+01 -0.12821947016E+00  0.11803491222E+01  0.00000000000E+00 0.  1.
         11    1    3    3    0    0 -0.83886608852E+01  0.36752111916E+01  0.38544245980E+01  0.99364680845E+01  0.51100000000E-03 0. -1.
        -11    1    3    3    0    0 -0.29086192664E+02 -0.23763576168E+02 -0.64617507370E+01  0.38111263149E+02  0.51100000000E-03 0.  1.
         12    1    3    3    0    0  0.37351412766E+02  0.18921511862E+02  0.27355456091E+01  0.41959919644E+02  0.00000000000E+00 0. -1.
</event>
<event>
 7    1  0.2641103E-015  0.9000781E+02  0.7816164E-02  0.1186339E+00
        -11   -1    0    0    0    0  0.00000000000E+00  0.00000000000E+00  0.45593999997E+02  0.45594000000E+02  0.51100000000E-03 0.  1.
         11   -1    0    0    0    0 -0.00000000000E+00 -0.00000000000E+00 -0.45593999997E+02  0.45594000000E+02  0.51100000000E-03 0. -1.
    9900012    2    1    2    0    0  0.73939496214E-01 -0.93795028045E+00 -0.71247988694E+00  0.90007811300E+02  0.90000073609E+02 0.  0.
        -12    1    1    2    0    0 -0.73939496214E-01  0.93795028045E+00  0.71247988694E+00  0.11801886997E+01  0.00000000000E+00 0.  1.
         11    1    3    3    0    0 -0.29648717283E+01 -0.46852570367E+01 -0.90906134255E+01  0.10648067927E+02  0.51100000000E-03 0. -1.
        -11    1    3    3    0    0  0.19734597948E+02  0.35485915598E+02 -0.53595972877E+01  0.40956438388E+02  0.51100000000E-03 0.  1.
         12    1    3    3    0    0 -0.16695786724E+02 -0.31738608842E+02  0.13737730826E+02  0.38403304986E+02  0.00000000000E+00 0. -1.
</event>
<event>
 7    1  0.2641103E-015  0.9000781E+02  0.7816164E-02  0.1186339E+00
        -11   -1    0    0    0    0  0.00000000000E+00  0.00000000000E+00  0.45593999997E+02  0.45594000000E+02  0.51100000000E-03 0. -1.
         11   -1    0    0    0    0 -0.00000000000E+00 -0.00000000000E+00 -0.45593999997E+02  0.45594000000E+02  0.51100000000E-03 0.  1.
    9900012    2    1    2    0    0 -0.11645288544E+01  0.18900478927E+00 -0.31657478237E-01  0.90007808296E+02  0.90000070565E+02 0.  0.
        -12    1    1    2    0    0  0.11645288544E+01 -0.18900478927E+00  0.31657478237E-01  0.11801917043E+01  0.00000000000E+00 0.  1.
         11    1    3    3    0    0  0.54694851940E+01  0.39063596472E+01 -0.87367232576E+01  0.11022941872E+02  0.51100000000E-03 0. -1.
        -11    1    3    3    0    0  0.82521351178E+01  0.94547264168E+01 -0.31624191843E+02  0.34023214069E+02  0.51100000000E-03 0.  1.
         12    1    3    3    0    0 -0.14886149166E+02 -0.13172081275E+02  0.40329257622E+02  0.44961652354E+02  0.00000000000E+00 0. -1.
</event>
<event>
 7    1  0.2641103E-015  0.9000775E+02  0.7816164E-02  0.1186339E+00
        -11   -1    0    0    0    0  0.00000000000E+00  0.00000000000E+00  0.45593999997E+02  0.45594000000E+02  0.51100000000E-03 0.  1.
         11   -1    0    0    0    0 -0.00000000000E+00 -0.00000000000E+00 -0.45593999997E+02  0.45594000000E+02  0.51100000000E-03 0. -1.
    9900012    2    1    2    0    0  0.25649565616E+00  0.58423935826E+00  0.99290643435E+00  0.90007750519E+02  0.90000012026E+02 0.  0.
        -12    1    1    2    0    0 -0.25649565616E+00 -0.58423935826E+00 -0.99290643435E+00  0.11802494807E+01  0.00000000000E+00 0.  1.
         11    1    3    3    0    0  0.10204193700E+02  0.10087390851E+02 -0.11808950087E+02  0.18583119375E+02  0.51100000000E-03 0. -1.
        -11    1    3    3    0    0 -0.39635882670E+02 -0.50568066368E+01  0.10519508134E+02  0.41318694801E+02  0.51100000000E-03 0.  1.
         12    1    3    3    0    0  0.29688184626E+02 -0.44463448563E+01  0.22823483874E+01  0.30105936344E+02  0.00000000000E+00 0. -1.
</event>
<event>
 7    1  0.2641103E-015  0.9000769E+02  0.7816164E-02  0.1186339E+00
        -11   -1    0    0    0    0  0.00000000000E+00  0.00000000000E+00  0.45593999997E+02  0.45594000000E+02  0.51100000000E-03 0.  1.
         11   -1    0    0    0    0 -0.00000000000E+00 -0.00000000000E+00 -0.45593999997E+02  0.45594000000E+02  0.51100000000E-03 0. -1.
    9900012    2    1    2    0    0  0.86126230077E-01 -0.44814201411E+00 -0.10885201081E+01  0.90007692829E+02  0.89999953574E+02 0.  0.
        -12    1    1    2    0    0 -0.86126230077E-01  0.44814201411E+00  0.10885201081E+01  0.11803071711E+01  0.00000000000E+00 0.  1.
         11    1    3    3    0    0 -0.60582746445E+01 -0.55832986078E+01 -0.41559440007E+01  0.92275557875E+01  0.51100000000E-03 0. -1.
        -11    1    3    3    0    0 -0.24317685090E+02  0.18641954736E+02  0.26118249004E+02  0.40262081613E+02  0.51100000000E-03 0.  1.
         12    1    3    3    0    0  0.30462085965E+02 -0.13506798143E+02 -0.23050825111E+02  0.40518055428E+02  0.00000000000E+00 0. -1.
</event>
<event>
 7    1  0.2641103E-015  0.9000773E+02  0.7816164E-02  0.1186339E+00
        -11   -1    0    0    0    0  0.00000000000E+00  0.00000000000E+00  0.45593999997E+02  0.45594000000E+02  0.51100000000E-03 0.  1.
         11   -1    0    0    0    0 -0.00000000000E+00 -0.00000000000E+00 -0.45593999997E+02  0.45594000000E+02  0.51100000000E-03 0. -1.
    9900012    2    1    2    0    0 -0.88363267256E+00  0.25993489729E+00 -0.73800952858E+00  0.90007732693E+02  0.89999993965E+02 0.  0.
        -12    1    1    2    0    0  0.88363267256E+00 -0.25993489729E+00  0.73800952858E+00  0.11802673066E+01  0.00000000000E+00 0.  1.
         11    1    3    3    0    0 -0.82871295960E+01 -0.18705281429E+01 -0.44637844396E+00  0.85073289845E+01  0.51100000000E-03 0. -1.
        -11    1    3    3    0    0 -0.15443629633E+02  0.36773498458E+02 -0.23208842614E+01  0.39952251364E+02  0.51100000000E-03 0.  1.
         12    1    3    3    0    0  0.22847126556E+02 -0.34643035417E+02  0.20292531768E+01  0.41548152345E+02  0.00000000000E+00 0. -1.
</event>
<event>
 7    1  0.2641103E-015  0.9000772E+02  0.7816164E-02  0.1186339E+00
        -11   -1    0    0    0    0  0.00000000000E+00  0.00000000000E+00  0.45593999997E+02  0.45594000000E+02  0.51100000000E-03 0.  1.
         11   -1    0    0    0    0 -0.00000000000E+00 -0.00000000000E+00 -0.45593999997E+02  0.45594000000E+02  0.51100000000E-03 0. -1.
    9900012    2    1    2    0    0 -0.95932797431E+00 -0.63710856297E+00  0.25855395774E+00  0.90007717139E+02  0.89999978205E+02 0.  0.
        -12    1    1    2    0    0  0.95932797431E+00  0.63710856297E+00 -0.25855395774E+00  0.11802828612E+01  0.00000000000E+00 0.  1.
         11    1    3    3    0    0 -0.58608237442E+01  0.46610844851E+01 -0.49110584844E+01  0.89550800799E+01  0.51100000000E-03 0. -1.
        -11    1    3    3    0    0 -0.35044518721E+02  0.51217619756E+01 -0.10430416009E+02  0.36920784343E+02  0.51100000000E-03 0.  1.
         12    1    3    3    0    0  0.39946014491E+02 -0.10419955024E+02  0.15600028452E+02  0.44131852716E+02  0.00000000000E+00 0. -1.
</event>
<event>
 7    1  0.2641103E-015  0.9000762E+02  0.7816164E-02  0.1186339E+00
        -11   -1    0    0    0    0  0.00000000000E+00  0.00000000000E+00  0.45593999997E+02  0.45594000000E+02  0.51100000000E-03 0.  1.
         11   -1    0    0    0    0 -0.00000000000E+00 -0.00000000000E+00 -0.45593999997E+02  0.45594000000E+02  0.51100000000E-03 0. -1.
    9900012    2    1    2    0    0  0.94211341388E+00 -0.48957285570E+00  0.51578403011E+00  0.90007621912E+02  0.89999881721E+02 0.  0.
        -12    1    1    2    0    0 -0.94211341388E+00  0.48957285570E+00 -0.51578403011E+00  0.11803780883E+01  0.00000000000E+00 0.  1.
         11    1    3    3    0    0  0.31979388126E+01  0.30166922442E+00 -0.71065515636E+01  0.77987750549E+01  0.51100000000E-03 0. -1.
        -11    1    3    3    0    0 -0.12613729034E+02  0.35229149873E+02  0.20389770614E+02  0.42613869888E+02  0.51100000000E-03 0.  1.
         12    1    3    3    0    0  0.10357903635E+02 -0.36020391953E+02 -0.12767435020E+02  0.39594976969E+02  0.00000000000E+00 0. -1.
</event>
<event>
 7    1  0.2641103E-015  0.9000809E+02  0.7816164E-02  0.1186338E+00
        -11   -1    0    0    0    0  0.00000000000E+00  0.00000000000E+00  0.45593999997E+02  0.45594000000E+02  0.51100000000E-03 0.  1.
         11   -1    0    0    0    0 -0.00000000000E+00 -0.00000000000E+00 -0.45593999997E+02  0.45594000000E+02  0.51100000000E-03 0. -1.
    9900012    2    1    2    0    0  0.86169424211E+00 -0.73056152275E+00 -0.34050032562E+00  0.90008094251E+02  0.90000360294E+02 0.  0.
        -12    1    1    2    0    0 -0.86169424211E+00  0.73056152275E+00  0.34050032562E+00  0.11799057493E+01  0.00000000000E+00 0.  1.
         11    1    3    3    0    0  0.13596331811E+02 -0.18434039444E+02 -0.63701864273E+01  0.23775056768E+02  0.51100000000E-03 0. -1.
        -11    1    3    3    0    0 -0.22058299300E+02  0.89639110389E+01 -0.23871178573E+02  0.33715774288E+02  0.51100000000E-03 0.  1.
         12    1    3    3    0    0  0.93236617302E+01  0.87395668826E+01  0.29900864675E+02  0.32517263194E+02  0.00000000000E+00 0. -1.
</event>
<event>
 7    1  0.2641103E-015  0.9000765E+02  0.7816164E-02  0.1186339E+00
        -11   -1    0    0    0    0  0.00000000000E+00  0.00000000000E+00  0.45593999997E+02  0.45594000000E+02  0.51100000000E-03 0.  1.
         11   -1    0    0    0    0 -0.00000000000E+00 -0.00000000000E+00 -0.45593999997E+02  0.45594000000E+02  0.51100000000E-03 0. -1.
    9900012    2    1    2    0    0 -0.12732702392E+00 -0.39564032446E+00 -0.11047498656E+01  0.90007654414E+02  0.89999914652E+02 0.  0.
        -12    1    1    2    0    0  0.12732702392E+00  0.39564032446E+00  0.11047498656E+01  0.11803455862E+01  0.00000000000E+00 0.  1.
         11    1    3    3    0    0 -0.29498525985E+02 -0.35322721451E+01 -0.15197316234E+02  0.33370621851E+02  0.51100000000E-03 0. -1.
        -11    1    3    3    0    0 -0.89356269811E+01 -0.10590962057E+02  0.62261287642E+01  0.15191398438E+02  0.51100000000E-03 0.  1.
        -12    1    3    3    0    0  0.38306825942E+02  0.13727593878E+02  0.78664376040E+01  0.41445634125E+02  0.00000000000E+00 0.  1.
</event>
<event>
 7    1  0.2641103E-015  0.9000775E+02  0.7816164E-02  0.1186339E+00
        -11   -1    0    0    0    0  0.00000000000E+00  0.00000000000E+00  0.45593999997E+02  0.45594000000E+02  0.51100000000E-03 0. -1.
         11   -1    0    0    0    0 -0.00000000000E+00 -0.00000000000E+00 -0.45593999997E+02  0.45594000000E+02  0.51100000000E-03 0.  1.
    9900012    2    1    2    0    0 -0.54357824168E+00 -0.80274206944E+00 -0.67313466982E+00  0.90007753238E+02  0.90000014781E+02 0.  0.
        -12    1    1    2    0    0  0.54357824168E+00  0.80274206944E+00  0.67313466982E+00  0.11802467617E+01  0.00000000000E+00 0.  1.
         11    1    3    3    0    0 -0.50941723110E+01  0.50569299662E+01 -0.61780228058E+01  0.94705384360E+01  0.51100000000E-03 0. -1.
        -11    1    3    3    0    0 -0.30757202885E+01  0.15882371483E+02 -0.32379821686E+02  0.36196168746E+02  0.51100000000E-03 0.  1.
         12    1    3    3    0    0  0.76263143578E+01 -0.21742043519E+02  0.37884709822E+02  0.44341046056E+02  0.00000000000E+00 0. -1.
</event>
<event>
 7    1  0.2641103E-015  0.9000774E+02  0.7816164E-02  0.1186339E+00
        -11   -1    0    0    0    0  0.00000000000E+00  0.00000000000E+00  0.45593999997E+02  0.45594000000E+02  0.51100000000E-03 0. -1.
         11   -1    0    0    0    0 -0.00000000000E+00 -0.00000000000E+00 -0.45593999997E+02  0.45594000000E+02  0.51100000000E-03 0.  1.
    9900012    2    1    2    0    0 -0.53896875561E+00  0.10276924898E+01  0.21535430658E+00  0.90007738736E+02  0.90000000088E+02 0.  0.
        -12    1    1    2    0    0  0.53896875561E+00 -0.10276924898E+01 -0.21535430658E+00  0.11802612636E+01  0.00000000000E+00 0.  1.
         11    1    3    3    0    0  0.27218403497E+02 -0.16410516372E+02  0.44940034473E+01  0.32098950197E+02  0.51100000000E-03 0. -1.
        -11    1    3    3    0    0  0.84860255553E+01  0.10667687992E+02  0.11470849671E+02  0.17815515409E+02  0.51100000000E-03 0.  1.
         12    1    3    3    0    0 -0.36243397808E+02  0.67705208696E+01 -0.15749498812E+02  0.40093273131E+02  0.00000000000E+00 0. -1.
</event>
<event>
 7    1  0.2641103E-015  0.9000776E+02  0.7816164E-02  0.1186339E+00
        -11   -1    0    0    0    0  0.00000000000E+00  0.00000000000E+00  0.45593999997E+02  0.45594000000E+02  0.51100000000E-03 0. -1.
         11   -1    0    0    0    0 -0.00000000000E+00 -0.00000000000E+00 -0.45593999997E+02  0.45594000000E+02  0.51100000000E-03 0.  1.
    9900012    2    1    2    0    0  0.51833210772E-01  0.27845920589E+00  0.11457484777E+01  0.90007760285E+02  0.90000021921E+02 0.  0.
        -12    1    1    2    0    0 -0.51833210772E-01 -0.27845920589E+00 -0.11457484777E+01  0.11802397152E+01  0.00000000000E+00 0.  1.
         11    1    3    3    0    0 -0.35283595481E+01 -0.11243587261E+02 -0.19299460060E+01  0.11941200419E+02  0.51100000000E-03 0. -1.
        -11    1    3    3    0    0 -0.17298090190E+02 -0.26581268724E+02 -0.90088304953E+01  0.32968876207E+02  0.51100000000E-03 0.  1.
         12    1    3    3    0    0  0.20878282949E+02  0.38103315191E+02  0.12084524979E+02  0.45097683659E+02  0.00000000000E+00 0. -1.
</event>
<event>
 7    1  0.2641103E-015  0.9000778E+02  0.7816164E-02  0.1186339E+00
        -11   -1    0    0    0    0  0.00000000000E+00  0.00000000000E+00  0.45593999997E+02  0.45594000000E+02  0.51100000000E-03 0.  1.
         11   -1    0    0    0    0 -0.00000000000E+00 -0.00000000000E+00 -0.45593999997E+02  0.45594000000E+02  0.51100000000E-03 0. -1.
    9900012    2    1    2    0    0 -0.21951087216E+00 -0.85155062186E+00 -0.78713779828E+00  0.90007784173E+02  0.90000046124E+02 0.  0.
        -12    1    1    2    0    0  0.21951087216E+00  0.85155062186E+00  0.78713779828E+00  0.11802158269E+01  0.00000000000E+00 0.  1.
         11    1    3    3    0    0  0.31595322926E+00 -0.61337203052E+01  0.42531663977E+01  0.74707279359E+01  0.51100000000E-03 0. -1.
        -11    1    3    3    0    0 -0.39387872204E+02 -0.91551414037E+01 -0.70155133188E+01  0.41041911728E+02  0.51100000000E-03 0.  1.
         12    1    3    3    0    0  0.38852408103E+02  0.14437311087E+02  0.19752091228E+01  0.41495144509E+02  0.00000000000E+00 0. -1.
</event>
<event>
 7    1  0.2641103E-015  0.9000776E+02  0.7816164E-02  0.1186339E+00
        -11   -1    0    0    0    0  0.00000000000E+00  0.00000000000E+00  0.45593999997E+02  0.45594000000E+02  0.51100000000E-03 0.  1.
         11   -1    0    0    0    0 -0.00000000000E+00 -0.00000000000E+00 -0.45593999997E+02  0.45594000000E+02  0.51100000000E-03 0. -1.
    9900012    2    1    2    0    0 -0.95285066567E+00  0.57358766689E-01 -0.69408161286E+00  0.90007761166E+02  0.90000022814E+02 0.  0.
        -12    1    1    2    0    0  0.95285066567E+00 -0.57358766689E-01  0.69408161286E+00  0.11802388337E+01  0.00000000000E+00 0.  1.
         11    1    3    3    0    0 -0.64311879759E+00 -0.70037439459E+01  0.58534362285E+01  0.91503413592E+01  0.51100000000E-03 0. -1.
        -11    1    3    3    0    0  0.38468003008E+02 -0.53687126267E+01 -0.96392298082E+01  0.40019058988E+02  0.51100000000E-03 0.  1.
         12    1    3    3    0    0 -0.38777734876E+02  0.12429815339E+02  0.30917119668E+01  0.40838360819E+02  0.00000000000E+00 0. -1.
</event>
<event>
 7    1  0.5436626E-015  0.9000894E+02  0.7816164E-02  0.1186337E+00
        -11   -1    0    0    0    0  0.00000000000E+00  0.00000000000E+00  0.45593999997E+02  0.45594000000E+02  0.51100000000E-03 0.  1.
         11   -1    0    0    0    0 -0.00000000000E+00 -0.00000000000E+00 -0.45593999997E+02  0.45594000000E+02  0.51100000000E-03 0. -1.
    9900012    2    1    2    0    0  0.57184120568E+00  0.75779666004E+00 -0.69923227087E+00  0.90008939395E+02  0.90001216586E+02 0.  0.
        -12    1    1    2    0    0 -0.57184120568E+00 -0.75779666004E+00  0.69923227087E+00  0.11790606054E+01  0.00000000000E+00 0.  1.
         11    1    3    3    0    0  0.45676765957E+01  0.16196552820E+01  0.83097857711E+01  0.96197449310E+01  0.51100000000E-03 0. -1.
        -11    1    3    3    0    0 -0.60936661060E+01 -0.29028734081E+02  0.23121829977E+02  0.37608764812E+02  0.51100000000E-03 0.  1.
         12    1    3    3    0    0  0.20978307160E+01  0.28166875459E+02 -0.32130848019E+02  0.42780429652E+02  0.00000000000E+00 0. -1.
</event>
<event>
 7    1  0.2641103E-015  0.9000795E+02  0.7816164E-02  0.1186339E+00
        -11   -1    0    0    0    0  0.00000000000E+00  0.00000000000E+00  0.45593999997E+02  0.45594000000E+02  0.51100000000E-03 0.  1.
         11   -1    0    0    0    0 -0.00000000000E+00 -0.00000000000E+00 -0.45593999997E+02  0.45594000000E+02  0.51100000000E-03 0. -1.
    9900012    2    1    2    0    0  0.41230660390E+00  0.96960467689E+00 -0.53141227768E+00  0.90007945351E+02  0.90000209430E+02 0.  0.
        -12    1    1    2    0    0 -0.41230660390E+00 -0.96960467689E+00  0.53141227768E+00  0.11800546487E+01  0.00000000000E+00 0.  1.
         11    1    3    3    0    0  0.40694049157E+01  0.21071256266E+01 -0.79456269508E+01  0.91724055010E+01  0.51100000000E-03 0. -1.
        -11    1    3    3    0    0  0.94411178751E+01  0.17009732564E+02  0.38144648347E+02  0.42819153500E+02  0.51100000000E-03 0.  1.
         12    1    3    3    0    0 -0.13098216187E+02 -0.18147253514E+02 -0.30730433674E+02  0.38016386351E+02  0.00000000000E+00 0. -1.
</event>
<event>
 7    1  0.2641103E-015  0.9000776E+02  0.7816164E-02  0.1186339E+00
        -11   -1    0    0    0    0  0.00000000000E+00  0.00000000000E+00  0.45593999997E+02  0.45594000000E+02  0.51100000000E-03 0. -1.
         11   -1    0    0    0    0 -0.00000000000E+00 -0.00000000000E+00 -0.45593999997E+02  0.45594000000E+02  0.51100000000E-03 0.  1.
    9900012    2    1    2    0    0  0.10042120405E+01 -0.48933925028E+00 -0.38088303239E+00  0.90007759936E+02  0.90000021567E+02 0.  0.
        -12    1    1    2    0    0 -0.10042120405E+01  0.48933925028E+00  0.38088303239E+00  0.11802400639E+01  0.00000000000E+00 0.  1.
         11    1    3    3    0    0  0.10563734459E+01 -0.36016288261E+02  0.21559548315E+02  0.41989320889E+02  0.51100000000E-03 0. -1.
        -11    1    3    3    0    0  0.29857387946E+01 -0.28788476128E+01 -0.15360390713E+01  0.44228741806E+01  0.51100000000E-03 0.  1.
        -12    1    3    3    0    0 -0.30379002000E+01  0.38405796623E+02 -0.20404392276E+02  0.43595564866E+02  0.00000000000E+00 0.  1.
</event>
<event>
 7    1  0.2641103E-015  0.9000775E+02  0.7816164E-02  0.1186339E+00
        -11   -1    0    0    0    0  0.00000000000E+00  0.00000000000E+00  0.45593999997E+02  0.45594000000E+02  0.51100000000E-03 0.  1.
         11   -1    0    0    0    0 -0.00000000000E+00 -0.00000000000E+00 -0.45593999997E+02  0.45594000000E+02  0.51100000000E-03 0. -1.
    9900012    2    1    2    0    0  0.10521260137E+01  0.72690003329E-01 -0.52984545203E+00  0.90007750370E+02  0.90000011875E+02 0.  0.
        -12    1    1    2    0    0 -0.10521260137E+01 -0.72690003329E-01  0.52984545203E+00  0.11802496296E+01  0.00000000000E+00 0.  1.
         11    1    3    3    0    0  0.25815421089E+01  0.62621401934E+01 -0.50940403854E+01  0.84751405399E+01  0.51100000000E-03 0. -1.
        -11    1    3    3    0    0  0.13362865109E+02 -0.41187595548E+02  0.75724503803E+00  0.43307708451E+02  0.51100000000E-03 0.  1.
         12    1    3    3    0    0 -0.14892281204E+02  0.34998145358E+02  0.38069498954E+01  0.38224901380E+02  0.00000000000E+00 0. -1.
</event>
<event>
 7    1  0.2641103E-015  0.9000778E+02  0.7816164E-02  0.1186339E+00
        -11   -1    0    0    0    0  0.00000000000E+00  0.00000000000E+00  0.45593999997E+02  0.45594000000E+02  0.51100000000E-03 0.  1.
         11   -1    0    0    0    0 -0.00000000000E+00 -0.00000000000E+00 -0.45593999997E+02  0.45594000000E+02  0.51100000000E-03 0. -1.
    9900012    2    1    2    0    0 -0.92349202035E+00  0.49398473757E+00  0.54412361680E+00  0.90007775893E+02  0.90000037735E+02 0.  0.
        -12    1    1    2    0    0  0.92349202035E+00 -0.49398473757E+00 -0.54412361680E+00  0.11802241071E+01  0.00000000000E+00 0.  1.
         11    1    3    3    0    0 -0.77960421701E+01 -0.28110559218E+01  0.24877312355E+01  0.86526941397E+01  0.51100000000E-03 0. -1.
        -11    1    3    3    0    0 -0.31001143649E+02 -0.18967365193E+02  0.56088557969E+01  0.36773511031E+02  0.51100000000E-03 0.  1.
         12    1    3    3    0    0  0.37873693799E+02  0.22272405853E+02 -0.75524634156E+01  0.44581570722E+02  0.00000000000E+00 0. -1.
</event>
<event>
 7    1  0.2641103E-015  0.9000769E+02  0.7816164E-02  0.1186339E+00
        -11   -1    0    0    0    0  0.00000000000E+00  0.00000000000E+00  0.45593999997E+02  0.45594000000E+02  0.51100000000E-03 0.  1.
         11   -1    0    0    0    0 -0.00000000000E+00 -0.00000000000E+00 -0.45593999997E+02  0.45594000000E+02  0.51100000000E-03 0. -1.
    9900012    2    1    2    0    0 -0.68695995492E+00  0.15070369814E+00  0.94790124023E+00  0.90007685489E+02  0.89999946137E+02 0.  0.
        -12    1    1    2    0    0  0.68695995492E+00 -0.15070369814E+00 -0.94790124023E+00  0.11803145113E+01  0.00000000000E+00 0.  1.
         11    1    3    3    0    0 -0.59552586936E+01 -0.36339478603E+02  0.11547664347E+01  0.36842316662E+02  0.51100000000E-03 0. -1.
        -11    1    3    3    0    0 -0.72735759723E+01 -0.56128414997E+01  0.80263492151E+00  0.92224248549E+01  0.51100000000E-03 0.  1.
        -12    1    3    3    0    0  0.12541874711E+02  0.42103023801E+02 -0.10095001160E+01  0.43942943972E+02  0.00000000000E+00 0.  1.
</event>
<event>
 7    1  0.2641103E-015  0.9000769E+02  0.7816164E-02  0.1186339E+00
        -11   -1    0    0    0    0  0.00000000000E+00  0.00000000000E+00  0.45593999997E+02  0.45594000000E+02  0.51100000000E-03 0.  1.
         11   -1    0    0    0    0 -0.00000000000E+00 -0.00000000000E+00 -0.45593999997E+02  0.45594000000E+02  0.51100000000E-03 0. -1.
    9900012    2    1    2    0    0  0.69054296074E-01 -0.11773211505E+01  0.47756305188E-01  0.90007688917E+02  0.89999949611E+02 0.  0.
        -12    1    1    2    0    0 -0.69054296074E-01  0.11773211505E+01 -0.47756305188E-01  0.11803110827E+01  0.00000000000E+00 0.  1.
         11    1    3    3    0    0  0.39824358159E+01  0.83783323841E+01  0.36263224252E+01  0.99602441315E+01  0.51100000000E-03 0. -1.
        -11    1    3    3    0    0 -0.28482930049E+02 -0.34638835447E+02 -0.13734722788E+01  0.44866609540E+02  0.51100000000E-03 0.  1.
         12    1    3    3    0    0  0.24569548529E+02  0.25083181912E+02 -0.22050938411E+01  0.35180835246E+02  0.00000000000E+00 0. -1.
</event>
<event>
 7    1  0.2641103E-015  0.9000760E+02  0.7816164E-02  0.1186339E+00
        -11   -1    0    0    0    0  0.00000000000E+00  0.00000000000E+00  0.45593999997E+02  0.45594000000E+02  0.51100000000E-03 0.  1.
         11   -1    0    0    0    0 -0.00000000000E+00 -0.00000000000E+00 -0.45593999997E+02  0.45594000000E+02  0.51100000000E-03 0. -1.
    9900012    2    1    2    0    0 -0.11398808926E+01 -0.20829449212E+00  0.22499367740E+00  0.90007602948E+02  0.89999862507E+02 0.  0.
        -12    1    1    2    0    0  0.11398808926E+01  0.20829449212E+00 -0.22499367740E+00  0.11803970517E+01  0.00000000000E+00 0.  1.
         11    1    3    3    0    0  0.29662003619E+01  0.79847224004E+01  0.53781772951E+01  0.10073674984E+02  0.51100000000E-03 0. -1.
        -11    1    3    3    0    0  0.20587783223E+02  0.28318829145E+02  0.28787320912E+01  0.35129759477E+02  0.51100000000E-03 0.  1.
         12    1    3    3    0    0 -0.24693864478E+02 -0.36511846038E+02 -0.80319157089E+01  0.44804168488E+02  0.00000000000E+00 0. -1.
</event>
<event>
 7    1  0.2641103E-015  0.9000751E+02  0.7816164E-02  0.1186340E+00
        -11   -1    0    0    0    0  0.00000000000E+00  0.00000000000E+00  0.45593999997E+02  0.45594000000E+02  0.51100000000E-03 0.  1.
         11   -1    0    0    0    0 -0.00000000000E+00 -0.00000000000E+00 -0.45593999997E+02  0.45594000000E+02  0.51100000000E-03 0. -1.
    9900012    2    1    2    0    0 -0.10319359305E+01  0.51243824061E+00  0.25704629369E+00  0.90007509631E+02  0.89999767957E+02 0.  0.
        -12    1    1    2    0    0  0.10319359305E+01 -0.51243824061E+00 -0.25704629369E+00  0.11804903694E+01  0.00000000000E+00 0.  1.
         11    1    3    3    0    0  0.43906430147E+01  0.42395645336E-01 -0.77259980352E+01  0.88865397863E+01  0.51100000000E-03 0. -1.
        -11    1    3    3    0    0 -0.10948337227E+02  0.14746050761E+02 -0.32782119225E+02  0.37576314910E+02  0.51100000000E-03 0.  1.
         12    1    3    3    0    0  0.55257582818E+01 -0.14276008166E+02  0.40765163554E+02  0.43544654934E+02  0.00000000000E+00 0. -1.
</event>
<event>
 7    1  0.2641103E-015  0.9000767E+02  0.7816164E-02  0.1186339E+00
        -11   -1    0    0    0    0  0.00000000000E+00  0.00000000000E+00  0.45593999997E+02  0.45594000000E+02  0.51100000000E-03 0. -1.
         11   -1    0    0    0    0 -0.00000000000E+00 -0.00000000000E+00 -0.45593999997E+02  0.45594000000E+02  0.51100000000E-03 0.  1.
    9900012    2    1    2    0    0  0.13266310397E+00  0.11611488928E+01 -0.16528518479E+00  0.90007667232E+02  0.89999927640E+02 0.  0.
        -12    1    1    2    0    0 -0.13266310397E+00 -0.11611488928E+01  0.16528518479E+00  0.11803327677E+01  0.00000000000E+00 0.  1.
         11    1    3    3    0    0  0.81489797505E+01 -0.81182882178E+00 -0.83931124757E+01  0.11726434850E+02  0.51100000000E-03 0. -1.
        -11    1    3    3    0    0  0.21014173973E+02  0.50748232451E+01 -0.25659003273E+02  0.33551956544E+02  0.51100000000E-03 0.  1.
         12    1    3    3    0    0 -0.29030490619E+02 -0.31018455305E+01  0.33886830564E+02  0.44729275838E+02  0.00000000000E+00 0. -1.
</event>
<event>
 7    1  0.2641103E-015  0.9000774E+02  0.7816164E-02  0.1186339E+00
        -11   -1    0    0    0    0  0.00000000000E+00  0.00000000000E+00  0.45593999997E+02  0.45594000000E+02  0.51100000000E-03 0. -1.
         11   -1    0    0    0    0 -0.00000000000E+00 -0.00000000000E+00 -0.45593999997E+02  0.45594000000E+02  0.51100000000E-03 0.  1.
    9900012    2    1    2    0    0  0.11109038498E+01  0.28267186089E+00  0.28109146970E+00  0.90007735979E+02  0.89999997294E+02 0.  0.
        -12    1    1    2    0    0 -0.11109038498E+01 -0.28267186089E+00 -0.28109146970E+00  0.11802640208E+01  0.00000000000E+00 0.  1.
         11    1    3    3    0    0  0.32287829048E+01 -0.13756752404E+02  0.31154921457E+02  0.34209682942E+02  0.51100000000E-03 0. -1.
        -11    1    3    3    0    0  0.11425649869E+02 -0.42044638034E+01  0.51403168200E+01  0.13215364092E+02  0.51100000000E-03 0.  1.
        -12    1    3    3    0    0 -0.13543528924E+02  0.18243888068E+02 -0.36014146807E+02  0.42582688945E+02  0.00000000000E+00 0.  1.
</event>
<event>
 7    1  0.2779525E-015  0.9000751E+02  0.7816164E-02  0.1186339E+00
        -11   -1    0    0    0    0  0.00000000000E+00  0.00000000000E+00  0.45593999997E+02  0.45594000000E+02  0.51100000000E-03 0. -1.
         11   -1    0    0    0    0 -0.00000000000E+00 -0.00000000000E+00 -0.45593999997E+02  0.45594000000E+02  0.51100000000E-03 0.  1.
    9900012    2    1    2    0    0 -0.59793219572E+00  0.85236787644E+00  0.55631990223E+00  0.90007514616E+02  0.89999773009E+02 0.  0.
        -12    1    1    2    0    0  0.59793219572E+00 -0.85236787644E+00 -0.55631990223E+00  0.11804853837E+01  0.00000000000E+00 0.  1.
         11    1    3    3    0    0  0.36698818334E+01  0.28322611438E+01 -0.84553913532E+01  0.96427889666E+01  0.51100000000E-03 0. -1.
        -11    1    3    3    0    0  0.32090405848E+02 -0.16799573710E+02 -0.87621548914E+01  0.37266542406E+02  0.51100000000E-03 0.  1.
         12    1    3    3    0    0 -0.36358219877E+02  0.14819680442E+02  0.17773866147E+02  0.43098183243E+02  0.00000000000E+00 0. -1.
</event>
<event>
 7    1  0.2641103E-015  0.9000801E+02  0.7816164E-02  0.1186339E+00
        -11   -1    0    0    0    0  0.00000000000E+00  0.00000000000E+00  0.45593999997E+02  0.45594000000E+02  0.51100000000E-03 0.  1.
         11   -1    0    0    0    0 -0.00000000000E+00 -0.00000000000E+00 -0.45593999997E+02  0.45594000000E+02  0.51100000000E-03 0. -1.
    9900012    2    1    2    0    0 -0.93067420618E+00  0.67396749194E+00 -0.26831322975E+00  0.90008009048E+02  0.90000273967E+02 0.  0.
        -12    1    1    2    0    0  0.93067420618E+00 -0.67396749194E+00  0.26831322975E+00  0.11799909523E+01  0.00000000000E+00 0.  1.
         11    1    3    3    0    0 -0.26394937042E+01 -0.20893532051E+01 -0.87371622749E+01  0.93632434930E+01  0.51100000000E-03 0. -1.
        -11    1    3    3    0    0  0.31322642715E+02 -0.24364619597E+02  0.42037380190E+00  0.39685253548E+02  0.51100000000E-03 0.  1.
         12    1    3    3    0    0 -0.29613823217E+02  0.27127940294E+02  0.80484752433E+01  0.40959512007E+02  0.00000000000E+00 0. -1.
</event>
<event>
 7    1  0.2641103E-015  0.9000813E+02  0.7816164E-02  0.1186338E+00
        -11   -1    0    0    0    0  0.00000000000E+00  0.00000000000E+00  0.45593999997E+02  0.45594000000E+02  0.51100000000E-03 0. -1.
         11   -1    0    0    0    0 -0.00000000000E+00 -0.00000000000E+00 -0.45593999997E+02  0.45594000000E+02  0.51100000000E-03 0.  1.
    9900012    2    1    2    0    0 -0.62186309822E+00  0.45765549834E+00  0.89215119718E+00  0.90008128809E+02  0.90000395309E+02 0.  0.
        -12    1    1    2    0    0  0.62186309822E+00 -0.45765549834E+00 -0.89215119718E+00  0.11798711907E+01  0.00000000000E+00 0.  1.
         11    1    3    3    0    0  0.16554849955E+01 -0.12308268337E+02  0.16194425705E+02  0.20408172976E+02  0.51100000000E-03 0. -1.
        -11    1    3    3    0    0  0.11724575693E+02 -0.24851721924E+02 -0.93283308085E+01  0.29018813100E+02  0.51100000000E-03 0.  1.
         12    1    3    3    0    0 -0.14001923787E+02  0.37617645760E+02 -0.59739436993E+01  0.40581142734E+02  0.00000000000E+00 0. -1.
</event>
<event>
 7    1  0.2641103E-015  0.9000781E+02  0.7816164E-02  0.1186339E+00
        -11   -1    0    0    0    0  0.00000000000E+00  0.00000000000E+00  0.45593999997E+02  0.45594000000E+02  0.51100000000E-03 0.  1.
         11   -1    0    0    0    0 -0.00000000000E+00 -0.00000000000E+00 -0.45593999997E+02  0.45594000000E+02  0.51100000000E-03 0. -1.
    9900012    2    1    2    0    0 -0.25770235483E+00  0.34065776716E+00 -0.11001785651E+01  0.90007808874E+02  0.90000071151E+02 0.  0.
        -12    1    1    2    0    0  0.25770235483E+00 -0.34065776716E+00  0.11001785651E+01  0.11801911257E+01  0.00000000000E+00 0.  1.
         11    1    3    3    0    0  0.11195035248E+02 -0.33936684021E+02 -0.39299718277E+01  0.35950966821E+02  0.51100000000E-03 0. -1.
        -11    1    3    3    0    0 -0.55727342450E+00 -0.90665051296E+01 -0.12913724615E+01  0.91749502467E+01  0.51100000000E-03 0.  1.
        -12    1    3    3    0    0 -0.10895464178E+02  0.43343846917E+02  0.41211657240E+01  0.44881891807E+02  0.00000000000E+00 0.  1.
</event>
<event>
 7    1  0.2641103E-015  0.9000775E+02  0.7816164E-02  0.1186339E+00
        -11   -1    0    0    0    0  0.00000000000E+00  0.00000000000E+00  0.45593999997E+02  0.45594000000E+02  0.51100000000E-03 0.  1.
         11   -1    0    0    0    0 -0.00000000000E+00 -0.00000000000E+00 -0.45593999997E+02  0.45594000000E+02  0.51100000000E-03 0. -1.
    9900012    2    1    2    0    0 -0.41399601370E+00 -0.49957655892E-01 -0.11041265007E+01  0.90007752655E+02  0.90000014190E+02 0.  0.
        -12    1    1    2    0    0  0.41399601370E+00  0.49957655892E-01  0.11041265007E+01  0.11802473454E+01  0.00000000000E+00 0.  1.
         11    1    3    3    0    0 -0.33369837264E+02  0.24242235372E+02 -0.21401995351E+01  0.41301482651E+02  0.51100000000E-03 0. -1.
        -11    1    3    3    0    0  0.10960481491E+00 -0.16856081490E+00  0.74488736575E+01  0.74515867431E+01  0.51100000000E-03 0.  1.
        -12    1    3    3    0    0  0.32846236435E+02 -0.24123632213E+02 -0.64128006231E+01  0.41254683261E+02  0.00000000000E+00 0.  1.
</event>
<event>
 7    1  0.2641103E-015  0.9000773E+02  0.7816164E-02  0.1186339E+00
        -11   -1    0    0    0    0  0.00000000000E+00  0.00000000000E+00  0.45593999997E+02  0.45594000000E+02  0.51100000000E-03 0. -1.
         11   -1    0    0    0    0 -0.00000000000E+00 -0.00000000000E+00 -0.45593999997E+02  0.45594000000E+02  0.51100000000E-03 0.  1.
    9900012    2    1    2    0    0  0.40421416112E+00 -0.10501080645E+01 -0.35627078844E+00  0.90007726765E+02  0.89999987958E+02 0.  0.
        -12    1    1    2    0    0 -0.40421416112E+00  0.10501080645E+01  0.35627078844E+00  0.11802732352E+01  0.00000000000E+00 0.  1.
         11    1    3    3    0    0  0.75865869221E+01 -0.13558039539E+01 -0.10062368373E+02  0.12674610962E+02  0.51100000000E-03 0. -1.
        -11    1    3    3    0    0 -0.78364651465E+01  0.35755209497E+02 -0.83507159364E+01  0.37544369073E+02  0.51100000000E-03 0.  1.
         12    1    3    3    0    0  0.65409238554E+00 -0.35449513607E+02  0.18056813521E+02  0.39788746731E+02  0.00000000000E+00 0. -1.
</event>
<event>
 7    1  0.2641103E-015  0.9000776E+02  0.7816164E-02  0.1186339E+00
        -11   -1    0    0    0    0  0.00000000000E+00  0.00000000000E+00  0.45593999997E+02  0.45594000000E+02  0.51100000000E-03 0. -1.
         11   -1    0    0    0    0 -0.00000000000E+00 -0.00000000000E+00 -0.45593999997E+02  0.45594000000E+02  0.51100000000E-03 0.  1.
    9900012    2    1    2    0    0 -0.83930073675E+00 -0.24393910362E+00  0.79311233422E+00  0.90007763080E+02  0.90000024753E+02 0.  0.
        -12    1    1    2    0    0  0.83930073675E+00  0.24393910362E+00 -0.79311233422E+00  0.11802369201E+01  0.00000000000E+00 0.  1.
         11    1    3    3    0    0  0.77297114066E+01  0.29560750347E+01  0.43038928738E+01  0.93279318271E+01  0.51100000000E-03 0. -1.
        -11    1    3    3    0    0  0.18736991348E+02  0.28453866691E+02  0.11956314981E+02  0.36106105337E+02  0.51100000000E-03 0.  1.
         12    1    3    3    0    0 -0.27306003491E+02 -0.31653880829E+02 -0.15467095521E+02  0.44573725916E+02  0.00000000000E+00 0. -1.
</event>
<event>
 7    1  0.2641103E-015  0.9000764E+02  0.7816164E-02  0.1186339E+00
        -11   -1    0    0    0    0  0.00000000000E+00  0.00000000000E+00  0.45593999997E+02  0.45594000000E+02  0.51100000000E-03 0.  1.
         11   -1    0    0    0    0 -0.00000000000E+00 -0.00000000000E+00 -0.45593999997E+02  0.45594000000E+02  0.51100000000E-03 0. -1.
    9900012    2    1    2    0    0  0.31331792423E+00 -0.27661714358E+00 -0.11038877838E+01  0.90007638443E+02  0.89999898471E+02 0.  0.
        -12    1    1    2    0    0 -0.31331792423E+00  0.27661714358E+00  0.11038877838E+01  0.11803615569E+01  0.00000000000E+00 0.  1.
         11    1    3    3    0    0  0.28653081997E+02 -0.11050203683E+02 -0.26744366816E+02  0.40723055706E+02  0.51100000000E-03 0. -1.
        -11    1    3    3    0    0 -0.82331720891E+01 -0.28718049725E+01 -0.50985855716E+01  0.10100889146E+02  0.51100000000E-03 0.  1.
        -12    1    3    3    0    0 -0.20106591984E+02  0.13645391512E+02  0.30739064604E+02  0.39183693591E+02  0.00000000000E+00 0.  1.
</event>
<event>
 7    1  0.2641103E-015  0.9000780E+02  0.7816164E-02  0.1186339E+00
        -11   -1    0    0    0    0  0.00000000000E+00  0.00000000000E+00  0.45593999997E+02  0.45594000000E+02  0.51100000000E-03 0.  1.
         11   -1    0    0    0    0 -0.00000000000E+00 -0.00000000000E+00 -0.45593999997E+02  0.45594000000E+02  0.51100000000E-03 0. -1.
    9900012    2    1    2    0    0  0.21098734519E+00 -0.24835834349E+00 -0.11343172108E+01  0.90007799567E+02  0.90000061722E+02 0.  0.
        -12    1    1    2    0    0 -0.21098734519E+00  0.24835834349E+00  0.11343172108E+01  0.11802004327E+01  0.00000000000E+00 0.  1.
         11    1    3    3    0    0  0.54200458421E+01 -0.29609876814E+02 -0.51954119443E+01  0.30546914859E+02  0.51100000000E-03 0. -1.
        -11    1    3    3    0    0  0.73167901895E+01 -0.13121904527E+02  0.14131934559E+01  0.15090292015E+02  0.51100000000E-03 0.  1.
        -12    1    3    3    0    0 -0.12525848686E+02  0.42483422997E+02  0.26479012775E+01  0.44370592694E+02  0.00000000000E+00 0.  1.
</event>
<event>
 7    1  0.2641103E-015  0.9000774E+02  0.7816164E-02  0.1186339E+00
        -11   -1    0    0    0    0  0.00000000000E+00  0.00000000000E+00  0.45593999997E+02  0.45594000000E+02  0.51100000000E-03 0.  1.
         11   -1    0    0    0    0 -0.00000000000E+00 -0.00000000000E+00 -0.45593999997E+02  0.45594000000E+02  0.51100000000E-03 0. -1.
    9900012    2    1    2    0    0  0.10005414477E+01 -0.11582061212E+00 -0.61523033684E+00  0.90007743261E+02  0.90000004672E+02 0.  0.
        -12    1    1    2    0    0 -0.10005414477E+01  0.11582061212E+00  0.61523033684E+00  0.11802567391E+01  0.00000000000E+00 0.  1.
         11    1    3    3    0    0  0.76487800031E+01  0.10166902217E+01  0.37435712715E+01  0.85762358100E+01  0.51100000000E-03 0. -1.
        -11    1    3    3    0    0  0.29641335721E+02  0.95205675093E+01  0.19479668161E+02  0.36724752701E+02  0.51100000000E-03 0.  1.
         12    1    3    3    0    0 -0.36289574276E+02 -0.10653078343E+02 -0.23838469769E+02  0.44706754750E+02  0.00000000000E+00 0. -1.
</event>
<event>
 7    1  0.2641103E-015  0.9000770E+02  0.7816164E-02  0.1186339E+00
        -11   -1    0    0    0    0  0.00000000000E+00  0.00000000000E+00  0.45593999997E+02  0.45594000000E+02  0.51100000000E-03 0. -1.
         11   -1    0    0    0    0 -0.00000000000E+00 -0.00000000000E+00 -0.45593999997E+02  0.45594000000E+02  0.51100000000E-03 0.  1.
    9900012    2    1    2    0    0  0.10659283841E+01 -0.11614132738E+00  0.49338272360E+00  0.90007695531E+02  0.89999956312E+02 0.  0.
        -12    1    1    2    0    0 -0.10659283841E+01  0.11614132738E+00 -0.49338272360E+00  0.11803044692E+01  0.00000000000E+00 0.  1.
         11    1    3    3    0    0 -0.18851280480E+01 -0.89110664168E+01  0.33771207583E+01  0.97142038953E+01  0.51100000000E-03 0. -1.
        -11    1    3    3    0    0  0.30203257412E+02  0.88218664451E+01  0.25827608316E+02  0.40707830174E+02  0.51100000000E-03 0.  1.
         12    1    3    3    0    0 -0.27252200980E+02 -0.26941355757E-01 -0.28711346351E+02  0.39585661462E+02  0.00000000000E+00 0. -1.
</event>
<event>
 7    1  0.2641103E-015  0.9000769E+02  0.7816164E-02  0.1186339E+00
        -11   -1    0    0    0    0  0.00000000000E+00  0.00000000000E+00  0.45593999997E+02  0.45594000000E+02  0.51100000000E-03 0. -1.
         11   -1    0    0    0    0 -0.00000000000E+00 -0.00000000000E+00 -0.45593999997E+02  0.45594000000E+02  0.51100000000E-03 0.  1.
    9900012    2    1    2    0    0  0.10781930089E+01 -0.31938515669E+00  0.35863247198E+00  0.90007693136E+02  0.89999953886E+02 0.  0.
        -12    1    1    2    0    0 -0.10781930089E+01  0.31938515669E+00 -0.35863247198E+00  0.11803068638E+01  0.00000000000E+00 0.  1.
         11    1    3    3    0    0 -0.80165524620E+01  0.56758833509E+01  0.33780638989E+01  0.10387111300E+02  0.51100000000E-03 0. -1.
        -11    1    3    3    0    0  0.32616517684E+02  0.71252958888E+01  0.24272350367E+02  0.41276555814E+02  0.51100000000E-03 0.  1.
         12    1    3    3    0    0 -0.23521772213E+02 -0.13120564396E+02 -0.27291781794E+02  0.38344026022E+02  0.00000000000E+00 0. -1.
</event>
<event>
 7    1  0.2641103E-015  0.9000769E+02  0.7816164E-02  0.1186339E+00
        -11   -1    0    0    0    0  0.00000000000E+00  0.00000000000E+00  0.45593999997E+02  0.45594000000E+02  0.51100000000E-03 0.  1.
         11   -1    0    0    0    0 -0.00000000000E+00 -0.00000000000E+00 -0.45593999997E+02  0.45594000000E+02  0.51100000000E-03 0. -1.
    9900012    2    1    2    0    0 -0.76946062802E+00  0.56275853601E+00  0.69595822647E+00  0.90007692972E+02  0.89999953719E+02 0.  0.
        -12    1    1    2    0    0  0.76946062802E+00 -0.56275853601E+00 -0.69595822647E+00  0.11803070282E+01  0.00000000000E+00 0.  1.
         11    1    3    3    0    0 -0.13599891582E+02  0.13082098173E+02  0.32553141044E+02  0.37627188784E+02  0.51100000000E-03 0. -1.
        -11    1    3    3    0    0 -0.27729061992E+01  0.10951002612E+01  0.74101939346E+01  0.79874418797E+01  0.51100000000E-03 0.  1.
        -12    1    3    3    0    0  0.15603337154E+02 -0.13614439899E+02 -0.39267376752E+02  0.44393062308E+02  0.00000000000E+00 0.  1.
</event>
<event>
 7    1  0.2853404E-015  0.9000771E+02  0.7816164E-02  0.1186339E+00
        -11   -1    0    0    0    0  0.00000000000E+00  0.00000000000E+00  0.45593999997E+02  0.45594000000E+02  0.51100000000E-03 0. -1.
         11   -1    0    0    0    0 -0.00000000000E+00 -0.00000000000E+00 -0.45593999997E+02  0.45594000000E+02  0.51100000000E-03 0.  1.
    9900012    2    1    2    0    0  0.83736266814E+00  0.82199107469E+00  0.12740229741E+00  0.90007713208E+02  0.89999974223E+02 0.  0.
        -12    1    1    2    0    0 -0.83736266814E+00 -0.82199107469E+00 -0.12740229741E+00  0.11802867915E+01  0.00000000000E+00 0.  1.
         11    1    3    3    0    0  0.64213989593E+01  0.42226247737E+01  0.54123430012E+01  0.93999139144E+01  0.51100000000E-03 0. -1.
        -11    1    3    3    0    0  0.32107878072E+02  0.11394396652E+02 -0.17516627032E+02  0.38309011110E+02  0.51100000000E-03 0.  1.
         12    1    3    3    0    0 -0.37691914363E+02 -0.14795030351E+02  0.12231686328E+02  0.42298788185E+02  0.00000000000E+00 0. -1.
</event>
<event>
 7    1  0.2641103E-015  0.9000777E+02  0.7816164E-02  0.1186339E+00
        -11   -1    0    0    0    0  0.00000000000E+00  0.00000000000E+00  0.45593999997E+02  0.45594000000E+02  0.51100000000E-03 0.  1.
         11   -1    0    0    0    0 -0.00000000000E+00 -0.00000000000E+00 -0.45593999997E+02  0.45594000000E+02  0.51100000000E-03 0. -1.
    9900012    2    1    2    0    0  0.99866655542E+00  0.60868455984E+00 -0.15844927043E+00  0.90007772076E+02  0.90000033867E+02 0.  0.
        -12    1    1    2    0    0 -0.99866655542E+00 -0.60868455984E+00  0.15844927043E+00  0.11802279244E+01  0.00000000000E+00 0.  1.
         11    1    3    3    0    0  0.87732570216E+00  0.36934653487E+02  0.13905287373E+02  0.39475249787E+02  0.51100000000E-03 0. -1.
        -11    1    3    3    0    0  0.86016556673E+01 -0.26228419306E+01  0.56076684179E+01  0.10597817009E+02  0.51100000000E-03 0.  1.
        -12    1    3    3    0    0 -0.84803148140E+01 -0.33703126996E+02 -0.19671405061E+02  0.39934705279E+02  0.00000000000E+00 0.  1.
</event>
<event>
 7    1  0.2641103E-015  0.9000804E+02  0.7816164E-02  0.1186338E+00
        -11   -1    0    0    0    0  0.00000000000E+00  0.00000000000E+00  0.45593999997E+02  0.45594000000E+02  0.51100000000E-03 0. -1.
         11   -1    0    0    0    0 -0.00000000000E+00 -0.00000000000E+00 -0.45593999997E+02  0.45594000000E+02  0.51100000000E-03 0.  1.
    9900012    2    1    2    0    0  0.84676424536E+00  0.29768492613E+00 -0.76594850755E+00  0.90008041052E+02  0.90000306393E+02 0.  0.
        -12    1    1    2    0    0 -0.84676424536E+00 -0.29768492613E+00  0.76594850755E+00  0.11799589479E+01  0.00000000000E+00 0.  1.
         11    1    3    3    0    0  0.25809963047E+02 -0.14509875974E+02  0.22901411193E+02  0.37432142981E+02  0.51100000000E-03 0. -1.
        -11    1    3    3    0    0  0.68290935754E+01  0.40945128747E+01  0.41641348008E+01  0.89856315105E+01  0.51100000000E-03 0.  1.
        -12    1    3    3    0    0 -0.31792292377E+02  0.10713048026E+02 -0.27831494501E+02  0.43590266560E+02  0.00000000000E+00 0.  1.
</event>
<event>
 7    1  0.2641103E-015  0.9000756E+02  0.7816164E-02  0.1186339E+00
        -11   -1    0    0    0    0  0.00000000000E+00  0.00000000000E+00  0.45593999997E+02  0.45594000000E+02  0.51100000000E-03 0. -1.
         11   -1    0    0    0    0 -0.00000000000E+00 -0.00000000000E+00 -0.45593999997E+02  0.45594000000E+02  0.51100000000E-03 0.  1.
    9900012    2    1    2    0    0  0.70305541277E+00 -0.79777912000E+00  0.51253685775E+00  0.90007562595E+02  0.89999821621E+02 0.  0.
        -12    1    1    2    0    0 -0.70305541277E+00  0.79777912000E+00 -0.51253685775E+00  0.11804374055E+01  0.00000000000E+00 0.  1.
         11    1    3    3    0    0  0.19437756485E+02 -0.29398393955E+02 -0.15502033940E+02  0.38502012945E+02  0.51100000000E-03 0. -1.
        -11    1    3    3    0    0  0.98952383795E+01  0.29330519143E+01  0.16143218909E+01  0.10446270700E+02  0.51100000000E-03 0.  1.
        -12    1    3    3    0    0 -0.28629939451E+02  0.25667562920E+02  0.14400248907E+02  0.41059278949E+02  0.00000000000E+00 0.  1.
</event>
<event>
 7    1  0.2641103E-015  0.9000766E+02  0.7816164E-02  0.1186339E+00
        -11   -1    0    0    0    0  0.00000000000E+00  0.00000000000E+00  0.45593999997E+02  0.45594000000E+02  0.51100000000E-03 0.  1.
         11   -1    0    0    0    0 -0.00000000000E+00 -0.00000000000E+00 -0.45593999997E+02  0.45594000000E+02  0.51100000000E-03 0. -1.
    9900012    2    1    2    0    0 -0.11378004248E+01  0.11794680532E+00  0.29101971969E+00  0.90007663720E+02  0.89999924082E+02 0.  0.
        -12    1    1    2    0    0  0.11378004248E+01 -0.11794680532E+00 -0.29101971969E+00  0.11803362796E+01  0.00000000000E+00 0.  1.
         11    1    3    3    0    0  0.65360632582E+01 -0.40536447519E+00 -0.30601543803E+02  0.31294391297E+02  0.51100000000E-03 0. -1.
        -11    1    3    3    0    0  0.43956024732E+01 -0.59674628070E+00 -0.12707571609E+02  0.13459561794E+02  0.51100000000E-03 0.  1.
        -12    1    3    3    0    0 -0.12069466156E+02  0.11200575612E+01  0.43600135132E+02  0.45253710629E+02  0.00000000000E+00 0.  1.
</event>
<event>
 7    1  0.2641103E-015  0.9000766E+02  0.7816164E-02  0.1186339E+00
        -11   -1    0    0    0    0  0.00000000000E+00  0.00000000000E+00  0.45593999997E+02  0.45594000000E+02  0.51100000000E-03 0. -1.
         11   -1    0    0    0    0 -0.00000000000E+00 -0.00000000000E+00 -0.45593999997E+02  0.45594000000E+02  0.51100000000E-03 0.  1.
    9900012    2    1    2    0    0 -0.27515740536E+00 -0.10367735649E+01  0.49253927603E+00  0.90007658540E+02  0.89999918833E+02 0.  0.
        -12    1    1    2    0    0  0.27515740536E+00  0.10367735649E+01 -0.49253927603E+00  0.11803414595E+01  0.00000000000E+00 0.  1.
         11    1    3    3    0    0  0.67439297905E+01 -0.29952461681E+02 -0.18327166411E+02  0.35756336203E+02  0.51100000000E-03 0. -1.
        -11    1    3    3    0    0 -0.84363468689E+01  0.21864675609E+00 -0.10318366237E+02  0.13329982632E+02  0.51100000000E-03 0.  1.
        -12    1    3    3    0    0  0.14172596730E+01  0.28697041360E+02  0.29138071924E+02  0.40921339705E+02  0.00000000000E+00 0.  1.
</event>
<event>
 7    1  0.2641103E-015  0.9000772E+02  0.7816164E-02  0.1186339E+00
        -11   -1    0    0    0    0  0.00000000000E+00  0.00000000000E+00  0.45593999997E+02  0.45594000000E+02  0.51100000000E-03 0.  1.
         11   -1    0    0    0    0 -0.00000000000E+00 -0.00000000000E+00 -0.45593999997E+02  0.45594000000E+02  0.51100000000E-03 0. -1.
    9900012    2    1    2    0    0 -0.87599080454E+00  0.46116530197E+00 -0.64268071888E+00  0.90007715360E+02  0.89999976403E+02 0.  0.
        -12    1    1    2    0    0  0.87599080454E+00 -0.46116530197E+00  0.64268071888E+00  0.11802846402E+01  0.00000000000E+00 0.  1.
         11    1    3    3    0    0 -0.66345485877E+01  0.29277944526E+01  0.90070430346E+01  0.11563565186E+02  0.51100000000E-03 0. -1.
        -11    1    3    3    0    0 -0.15829058749E+02  0.19497342314E+02  0.22647478702E+02  0.33817358709E+02  0.51100000000E-03 0.  1.
         12    1    3    3    0    0  0.21587616532E+02 -0.21963971465E+02 -0.32297202456E+02  0.44626791466E+02  0.00000000000E+00 0. -1.
</event>
<event>
 7    1  0.2641103E-015  0.9000775E+02  0.7816164E-02  0.1186339E+00
        -11   -1    0    0    0    0  0.00000000000E+00  0.00000000000E+00  0.45593999997E+02  0.45594000000E+02  0.51100000000E-03 0. -1.
         11   -1    0    0    0    0 -0.00000000000E+00 -0.00000000000E+00 -0.45593999997E+02  0.45594000000E+02  0.51100000000E-03 0.  1.
    9900012    2    1    2    0    0  0.60783238837E-01  0.11729171692E+01  0.11649001702E+00  0.90007746124E+02  0.90000007573E+02 0.  0.
        -12    1    1    2    0    0 -0.60783238837E-01 -0.11729171692E+01 -0.11649001702E+00  0.11802538761E+01  0.00000000000E+00 0.  1.
         11    1    3    3    0    0  0.29234055152E+01  0.56989800048E+01 -0.53118067607E+01  0.83210554754E+01  0.51100000000E-03 0. -1.
        -11    1    3    3    0    0 -0.30471533768E+02 -0.11799592533E+02  0.29742503473E+02  0.44185532330E+02  0.51100000000E-03 0.  1.
         12    1    3    3    0    0  0.27608911492E+02  0.72735296978E+01 -0.24314206695E+02  0.37501158319E+02  0.00000000000E+00 0. -1.
</event>
<event>
 7    1  0.2641103E-015  0.9000776E+02  0.7816164E-02  0.1186339E+00
        -11   -1    0    0    0    0  0.00000000000E+00  0.00000000000E+00  0.45593999997E+02  0.45594000000E+02  0.51100000000E-03 0.  1.
         11   -1    0    0    0    0 -0.00000000000E+00 -0.00000000000E+00 -0.45593999997E+02  0.45594000000E+02  0.51100000000E-03 0. -1.
    9900012    2    1    2    0    0  0.87426133990E+00 -0.68989124732E+00  0.39075924966E+00  0.90007756121E+02  0.90000017701E+02 0.  0.
        -12    1    1    2    0    0 -0.87426133990E+00  0.68989124732E+00 -0.39075924966E+00  0.11802438794E+01  0.00000000000E+00 0.  1.
         11    1    3    3    0    0  0.34006118903E+01  0.35218634180E+02  0.17392786922E+02  0.39426201845E+02  0.51100000000E-03 0. -1.
        -11    1    3    3    0    0 -0.54530549706E+01  0.40755044201E+01 -0.58301857435E+01  0.89630692765E+01  0.51100000000E-03 0.  1.
        -12    1    3    3    0    0  0.29267044202E+01 -0.39984029847E+02 -0.11171841929E+02  0.41618485000E+02  0.00000000000E+00 0.  1.
</event>
<event>
 7    1  0.2641103E-015  0.9000770E+02  0.7816164E-02  0.1186339E+00
        -11   -1    0    0    0    0  0.00000000000E+00  0.00000000000E+00  0.45593999997E+02  0.45594000000E+02  0.51100000000E-03 0.  1.
         11   -1    0    0    0    0 -0.00000000000E+00 -0.00000000000E+00 -0.45593999997E+02  0.45594000000E+02  0.51100000000E-03 0. -1.
    9900012    2    1    2    0    0 -0.53374451675E+00  0.10469746629E+01 -0.10980785332E+00  0.90007704732E+02  0.89999965635E+02 0.  0.
        -12    1    1    2    0    0  0.53374451675E+00 -0.10469746629E+01  0.10980785332E+00  0.11802952675E+01  0.00000000000E+00 0.  1.
         11    1    3    3    0    0  0.27602040012E+02 -0.32709019016E+02 -0.42960034560E+01  0.43014046354E+02  0.51100000000E-03 0. -1.
        -11    1    3    3    0    0 -0.17679121442E+01  0.76824159481E+01  0.59389606649E+01  0.98699687025E+01  0.51100000000E-03 0.  1.
        -12    1    3    3    0    0 -0.26367872385E+02  0.26073577731E+02 -0.17527650622E+01  0.37123689676E+02  0.00000000000E+00 0.  1.
</event>
<event>
 7    1  0.2641103E-015  0.9000771E+02  0.7816164E-02  0.1186339E+00
        -11   -1    0    0    0    0  0.00000000000E+00  0.00000000000E+00  0.45593999997E+02  0.45594000000E+02  0.51100000000E-03 0.  1.
         11   -1    0    0    0    0 -0.00000000000E+00 -0.00000000000E+00 -0.45593999997E+02  0.45594000000E+02  0.51100000000E-03 0. -1.
    9900012    2    1    2    0    0  0.80332759439E+00 -0.86418940955E+00 -0.30518571547E-01  0.90007707688E+02  0.89999968629E+02 0.  0.
        -12    1    1    2    0    0 -0.80332759439E+00  0.86418940955E+00  0.30518571547E-01  0.11802923124E+01  0.00000000000E+00 0.  1.
         11    1    3    3    0    0  0.20884158968E+02  0.27950642031E+02 -0.22963453427E+02  0.41769686128E+02  0.51100000000E-03 0. -1.
        -11    1    3    3    0    0 -0.43184230250E+01 -0.78273255386E+01 -0.47221975639E+01  0.10110141077E+02  0.51100000000E-03 0.  1.
        -12    1    3    3    0    0 -0.15762408349E+02 -0.20987505902E+02  0.27655132419E+02  0.38127880482E+02  0.00000000000E+00 0.  1.
</event>
<event>
 7    1  0.2641103E-015  0.9000770E+02  0.7816164E-02  0.1186339E+00
        -11   -1    0    0    0    0  0.00000000000E+00  0.00000000000E+00  0.45593999997E+02  0.45594000000E+02  0.51100000000E-03 0. -1.
         11   -1    0    0    0    0 -0.00000000000E+00 -0.00000000000E+00 -0.45593999997E+02  0.45594000000E+02  0.51100000000E-03 0.  1.
    9900012    2    1    2    0    0  0.97362856089E+00 -0.66494018648E+00 -0.54786861301E-01  0.90007703585E+02  0.89999964473E+02 0.  0.
        -12    1    1    2    0    0 -0.97362856089E+00  0.66494018648E+00  0.54786861301E-01  0.11802964146E+01  0.00000000000E+00 0.  1.
         11    1    3    3    0    0 -0.85521277063E+01  0.48994903100E+01 -0.15879708589E+01  0.99832632596E+01  0.51100000000E-03 0. -1.
        -11    1    3    3    0    0  0.24426380484E+02  0.31614532918E+02  0.34438066284E+00  0.39953039352E+02  0.51100000000E-03 0.  1.
         12    1    3    3    0    0 -0.14900624217E+02 -0.37178963414E+02  0.11888033347E+01  0.40071400974E+02  0.00000000000E+00 0. -1.
</event>
<event>
 7    1  0.2641103E-015  0.9000780E+02  0.7816164E-02  0.1186339E+00
        -11   -1    0    0    0    0  0.00000000000E+00  0.00000000000E+00  0.45593999997E+02  0.45594000000E+02  0.51100000000E-03 0. -1.
         11   -1    0    0    0    0 -0.00000000000E+00 -0.00000000000E+00 -0.45593999997E+02  0.45594000000E+02  0.51100000000E-03 0.  1.
    9900012    2    1    2    0    0  0.24670955986E+00 -0.16861922339E+00  0.11417412988E+01  0.90007800338E+02  0.90000062502E+02 0.  0.
        -12    1    1    2    0    0 -0.24670955986E+00  0.16861922339E+00 -0.11417412988E+01  0.11801996623E+01  0.00000000000E+00 0.  1.
         11    1    3    3    0    0 -0.37712149473E+01 -0.12343935695E+02  0.39675722353E+01  0.13503201114E+02  0.51100000000E-03 0. -1.
        -11    1    3    3    0    0 -0.25886462744E+02 -0.13675862247E+01 -0.25692333246E+02  0.36497605858E+02  0.51100000000E-03 0.  1.
         12    1    3    3    0    0  0.29904387251E+02  0.13542902696E+02  0.22866502309E+02  0.40006993366E+02  0.00000000000E+00 0. -1.
</event>
<event>
 7    1  0.2641103E-015  0.9000770E+02  0.7816164E-02  0.1186339E+00
        -11   -1    0    0    0    0  0.00000000000E+00  0.00000000000E+00  0.45593999997E+02  0.45594000000E+02  0.51100000000E-03 0.  1.
         11   -1    0    0    0    0 -0.00000000000E+00 -0.00000000000E+00 -0.45593999997E+02  0.45594000000E+02  0.51100000000E-03 0. -1.
    9900012    2    1    2    0    0 -0.53721744294E-01  0.11579884122E+01 -0.22198975203E+00  0.90007702309E+02  0.89999963180E+02 0.  0.
        -12    1    1    2    0    0  0.53721744294E-01 -0.11579884122E+01  0.22198975203E+00  0.11802976907E+01  0.00000000000E+00 0.  1.
         11    1    3    3    0    0  0.88992836449E+01 -0.23641292517E+02 -0.33445666954E+02  0.41913250883E+02  0.51100000000E-03 0. -1.
        -11    1    3    3    0    0  0.56036346460E+00 -0.36093658138E+01  0.84978976176E+01  0.92496374507E+01  0.51100000000E-03 0.  1.
        -12    1    3    3    0    0 -0.95133688537E+01  0.28408646743E+02  0.24725779585E+02  0.38844813976E+02  0.00000000000E+00 0.  1.
</event>
<event>
 7    1  0.2641103E-015  0.9000776E+02  0.7816164E-02  0.1186339E+00
        -11   -1    0    0    0    0  0.00000000000E+00  0.00000000000E+00  0.45593999997E+02  0.45594000000E+02  0.51100000000E-03 0. -1.
         11   -1    0    0    0    0 -0.00000000000E+00 -0.00000000000E+00 -0.45593999997E+02  0.45594000000E+02  0.51100000000E-03 0.  1.
    9900012    2    1    2    0    0 -0.96557619951E-01  0.31042519751E+00  0.11345844273E+01  0.90007758923E+02  0.90000020541E+02 0.  0.
        -12    1    1    2    0    0  0.96557619951E-01 -0.31042519751E+00 -0.11345844273E+01  0.11802410770E+01  0.00000000000E+00 0.  1.
         11    1    3    3    0    0 -0.10780615063E+02  0.86258353567E+00  0.22857015493E+01  0.11053965050E+02  0.51100000000E-03 0. -1.
        -11    1    3    3    0    0 -0.45351252684E+01 -0.99198746128E+01 -0.37174201901E+02  0.38741354659E+02  0.51100000000E-03 0.  1.
         12    1    3    3    0    0  0.15219182711E+02  0.93677162746E+01  0.36023084779E+02  0.40212439215E+02  0.00000000000E+00 0. -1.
</event>
<event>
 7    1  0.2641103E-015  0.9000774E+02  0.7816164E-02  0.1186339E+00
        -11   -1    0    0    0    0  0.00000000000E+00  0.00000000000E+00  0.45593999997E+02  0.45594000000E+02  0.51100000000E-03 0.  1.
         11   -1    0    0    0    0 -0.00000000000E+00 -0.00000000000E+00 -0.45593999997E+02  0.45594000000E+02  0.51100000000E-03 0. -1.
    9900012    2    1    2    0    0  0.11071711334E+01 -0.12356771201E+00  0.38976521836E+00  0.90007739934E+02  0.90000001301E+02 0.  0.
        -12    1    1    2    0    0 -0.11071711334E+01  0.12356771201E+00 -0.38976521836E+00  0.11802600660E+01  0.00000000000E+00 0.  1.
         11    1    3    3    0    0 -0.11359145490E+02  0.47290012639E+01 -0.23590782595E+02  0.26606740931E+02  0.51100000000E-03 0. -1.
        -11    1    3    3    0    0 -0.64727854695E+01  0.10934504561E+02 -0.13498916039E+02  0.18538637389E+02  0.51100000000E-03 0.  1.
        -12    1    3    3    0    0  0.18939102093E+02 -0.15787073537E+02  0.37479463853E+02  0.44862361615E+02  0.00000000000E+00 0.  1.
</event>
<event>
 7    1  0.2641103E-015  0.9000771E+02  0.7816164E-02  0.1186339E+00
        -11   -1    0    0    0    0  0.00000000000E+00  0.00000000000E+00  0.45593999997E+02  0.45594000000E+02  0.51100000000E-03 0.  1.
         11   -1    0    0    0    0 -0.00000000000E+00 -0.00000000000E+00 -0.45593999997E+02  0.45594000000E+02  0.51100000000E-03 0. -1.
    9900012    2    1    2    0    0 -0.88893208637E+00 -0.13298338125E+00  0.76498091922E+00  0.90007711628E+02  0.89999972622E+02 0.  0.
        -12    1    1    2    0    0  0.88893208637E+00  0.13298338125E+00 -0.76498091922E+00  0.11802883718E+01  0.00000000000E+00 0.  1.
         11    1    3    3    0    0  0.89713097202E+01  0.27475978226E+01 -0.64837250685E+00  0.94050028740E+01  0.51100000000E-03 0. -1.
        -11    1    3    3    0    0  0.20774657897E+02 -0.32082562852E+02 -0.68450771994E+00  0.38227552903E+02  0.51100000000E-03 0.  1.
         12    1    3    3    0    0 -0.30634899704E+02  0.29201981648E+02  0.20978611460E+01  0.42375155851E+02  0.00000000000E+00 0. -1.
</event>
<event>
 7    1  0.2641103E-015  0.9000766E+02  0.7816164E-02  0.1186339E+00
        -11   -1    0    0    0    0  0.00000000000E+00  0.00000000000E+00  0.45593999997E+02  0.45594000000E+02  0.51100000000E-03 0.  1.
         11   -1    0    0    0    0 -0.00000000000E+00 -0.00000000000E+00 -0.45593999997E+02  0.45594000000E+02  0.51100000000E-03 0. -1.
    9900012    2    1    2    0    0 -0.81031686770E+00 -0.47821627235E+00 -0.71267508113E+00  0.90007656829E+02  0.89999917099E+02 0.  0.
        -12    1    1    2    0    0  0.81031686770E+00  0.47821627235E+00  0.71267508113E+00  0.11803431706E+01  0.00000000000E+00 0.  1.
         11    1    3    3    0    0  0.58667217026E+01  0.65750401109E+01  0.26806149046E+01  0.92106065231E+01  0.51100000000E-03 0. -1.
        -11    1    3    3    0    0  0.11770163403E+02  0.29519606180E+02  0.15881356638E+02  0.35526910709E+02  0.51100000000E-03 0.  1.
         12    1    3    3    0    0 -0.18447201974E+02 -0.36572862563E+02 -0.19274646624E+02  0.45270139598E+02  0.00000000000E+00 0. -1.
</event>
<event>
 7    1  0.2709347E-015  0.9000775E+02  0.7816164E-02  0.1186339E+00
        -11   -1    0    0    0    0  0.00000000000E+00  0.00000000000E+00  0.45593999997E+02  0.45594000000E+02  0.51100000000E-03 0. -1.
         11   -1    0    0    0    0 -0.00000000000E+00 -0.00000000000E+00 -0.45593999997E+02  0.45594000000E+02  0.51100000000E-03 0.  1.
    9900012    2    1    2    0    0  0.75397581224E+00 -0.23471510476E+00  0.87716590810E+00  0.90007749715E+02  0.90000011211E+02 0.  0.
        -12    1    1    2    0    0 -0.75397581224E+00  0.23471510476E+00 -0.87716590810E+00  0.11802502854E+01  0.00000000000E+00 0.  1.
         11    1    3    3    0    0  0.79451473189E+01 -0.32101142502E+01  0.26969079896E+01  0.89835133653E+01  0.51100000000E-03 0. -1.
        -11    1    3    3    0    0  0.17425979713E+02 -0.25413941334E+02 -0.22480009325E+02  0.38142941714E+02  0.51100000000E-03 0.  1.
         12    1    3    3    0    0 -0.24617151220E+02  0.28389340479E+02  0.20660267243E+02  0.42881294635E+02  0.00000000000E+00 0. -1.
</event>
<event>
 7    1  0.2641103E-015  0.9000778E+02  0.7816164E-02  0.1186339E+00
        -11   -1    0    0    0    0  0.00000000000E+00  0.00000000000E+00  0.45593999997E+02  0.45594000000E+02  0.51100000000E-03 0.  1.
         11   -1    0    0    0    0 -0.00000000000E+00 -0.00000000000E+00 -0.45593999997E+02  0.45594000000E+02  0.51100000000E-03 0. -1.
    9900012    2    1    2    0    0 -0.32995098900E+00  0.24162872188E+00 -0.11070987279E+01  0.90007779814E+02  0.90000041707E+02 0.  0.
        -12    1    1    2    0    0  0.32995098900E+00 -0.24162872188E+00  0.11070987279E+01  0.11802201861E+01  0.00000000000E+00 0.  1.
         11    1    3    3    0    0 -0.75447248064E+01  0.39641644479E+01  0.55893538407E+01  0.10192072841E+02  0.51100000000E-03 0. -1.
        -11    1    3    3    0    0  0.10727852489E+02  0.13007416914E+02  0.32743924408E+02  0.36829937547E+02  0.51100000000E-03 0.  1.
         12    1    3    3    0    0 -0.35130786715E+01 -0.16729952640E+02 -0.39440376977E+02  0.42985769426E+02  0.00000000000E+00 0. -1.
</event>
<event>
 8    1  0.2641103E-015  0.9000727E+02  0.7816164E-02  0.1186340E+00
        -11   -1    0    0    0    0  0.00000000000E+00  0.00000000000E+00  0.45593999997E+02  0.45594000000E+02  0.51100000000E-03 0. -1.
         11   -1    0    0    0    0 -0.00000000000E+00 -0.00000000000E+00 -0.45593999997E+02  0.45594000000E+02  0.51100000000E-03 0.  1.
    9900012    2    1    2    0    0 -0.22817493471E+00  0.94607740215E+00  0.66858615214E+00  0.90007265612E+02  0.89999520717E+02 0.  0.
         23    2    3    3    0    0  0.26878470768E+02  0.64615153796E+00 -0.56926389638E+01  0.62162600382E+02  0.55757627687E+02 0.  0.
        -12    1    1    2    0    0  0.22817493471E+00 -0.94607740215E+00 -0.66858615214E+00  0.11807343878E+01  0.00000000000E+00 0.  1.
         11    1    4    4    0    0  0.21357358552E+02  0.14622016656E+02  0.19788179495E+02  0.32580856088E+02  0.51100000000E-03 0. -1.
        -11    1    4    4    0    0  0.55211122161E+01 -0.13975865118E+02 -0.25480818459E+02  0.29581744294E+02  0.51100000000E-03 0.  1.
         12    1    3    3    0    0 -0.27106645703E+02  0.29992586419E+00  0.63612251159E+01  0.27844665230E+02  0.00000000000E+00 0. -1.
</event>
<event>
 7    1  0.2641103E-015  0.9000781E+02  0.7816164E-02  0.1186339E+00
        -11   -1    0    0    0    0  0.00000000000E+00  0.00000000000E+00  0.45593999997E+02  0.45594000000E+02  0.51100000000E-03 0. -1.
         11   -1    0    0    0    0 -0.00000000000E+00 -0.00000000000E+00 -0.45593999997E+02  0.45594000000E+02  0.51100000000E-03 0.  1.
    9900012    2    1    2    0    0 -0.27697242805E+00 -0.39791609674E+00  0.10760133496E+01  0.90007806933E+02  0.90000069185E+02 0.  0.
        -12    1    1    2    0    0  0.27697242805E+00  0.39791609674E+00 -0.10760133496E+01  0.11801930666E+01  0.00000000000E+00 0.  1.
         11    1    3    3    0    0  0.23303975854E+02  0.13678210845E+02  0.24245775929E+02  0.36304633219E+02  0.51100000000E-03 0. -1.
        -11    1    3    3    0    0  0.86246340931E+01  0.51199484865E+01 -0.84040232700E+00  0.10065011777E+02  0.51100000000E-03 0.  1.
        -12    1    3    3    0    0 -0.32205582375E+02 -0.19196075428E+02 -0.22329360252E+02  0.43638161937E+02  0.00000000000E+00 0.  1.
</event>
<event>
 7    1  0.2641103E-015  0.9000778E+02  0.7816164E-02  0.1186339E+00
        -11   -1    0    0    0    0  0.00000000000E+00  0.00000000000E+00  0.45593999997E+02  0.45594000000E+02  0.51100000000E-03 0.  1.
         11   -1    0    0    0    0 -0.00000000000E+00 -0.00000000000E+00 -0.45593999997E+02  0.45594000000E+02  0.51100000000E-03 0. -1.
    9900012    2    1    2    0    0 -0.24769560306E+00  0.11275608597E+01  0.24530641598E+00  0.90007778901E+02  0.90000040783E+02 0.  0.
        -12    1    1    2    0    0  0.24769560306E+00 -0.11275608597E+01 -0.24530641598E+00  0.11802210987E+01  0.00000000000E+00 0.  1.
         11    1    3    3    0    0  0.28088926811E+02  0.78115646819E+01  0.27902038738E+02  0.40355075495E+02  0.51100000000E-03 0. -1.
        -11    1    3    3    0    0 -0.40922509985E+01  0.97743296777E+01 -0.21693137934E+01  0.10816189786E+02  0.51100000000E-03 0.  1.
        -12    1    3    3    0    0 -0.24244371416E+02 -0.16458333500E+02 -0.25487418529E+02  0.38836513621E+02  0.00000000000E+00 0.  1.
</event>
<event>
 7    1  0.2641103E-015  0.9000781E+02  0.7816164E-02  0.1186339E+00
        -11   -1    0    0    0    0  0.00000000000E+00  0.00000000000E+00  0.45593999997E+02  0.45594000000E+02  0.51100000000E-03 0. -1.
         11   -1    0    0    0    0 -0.00000000000E+00 -0.00000000000E+00 -0.45593999997E+02  0.45594000000E+02  0.51100000000E-03 0.  1.
    9900012    2    1    2    0    0  0.28686869339E+00 -0.96517358958E-02  0.11447561091E+01  0.90007807917E+02  0.90000070182E+02 0.  0.
        -12    1    1    2    0    0 -0.28686869339E+00  0.96517358958E-02 -0.11447561091E+01  0.11801920829E+01  0.00000000000E+00 0.  1.
         11    1    3    3    0    0 -0.29992088210E+02  0.57561801393E+01  0.10114131020E+02  0.32170710461E+02  0.51100000000E-03 0. -1.
        -11    1    3    3    0    0  0.14056396574E+02 -0.12205438801E+02  0.17880920221E+02  0.25812445238E+02  0.51100000000E-03 0.  1.
        -12    1    3    3    0    0  0.16222560330E+02  0.64396069259E+01 -0.26850295132E+02  0.32024652218E+02  0.00000000000E+00 0.  1.
</event>
<event>
 7    1  0.2641103E-015  0.9000776E+02  0.7816164E-02  0.1186339E+00
        -11   -1    0    0    0    0  0.00000000000E+00  0.00000000000E+00  0.45593999997E+02  0.45594000000E+02  0.51100000000E-03 0. -1.
         11   -1    0    0    0    0 -0.00000000000E+00 -0.00000000000E+00 -0.45593999997E+02  0.45594000000E+02  0.51100000000E-03 0.  1.
    9900012    2    1    2    0    0  0.60991251790E+00  0.83315588548E+00  0.57169269465E+00  0.90007756573E+02  0.90000018160E+02 0.  0.
        -12    1    1    2    0    0 -0.60991251790E+00 -0.83315588548E+00 -0.57169269465E+00  0.11802434266E+01  0.00000000000E+00 0.  1.
         11    1    3    3    0    0  0.34944153149E+01  0.46129581092E+01  0.68535403395E+01  0.89700243230E+01  0.51100000000E-03 0. -1.
        -11    1    3    3    0    0  0.13772326969E+02  0.34340402478E+02  0.63968158641E+01  0.37548095637E+02  0.51100000000E-03 0.  1.
         12    1    3    3    0    0 -0.16656829766E+02 -0.38120204702E+02 -0.12678663509E+02  0.43489636613E+02  0.00000000000E+00 0. -1.
</event>
<event>
 7    1  0.2641103E-015  0.9000772E+02  0.7816164E-02  0.1186339E+00
        -11   -1    0    0    0    0  0.00000000000E+00  0.00000000000E+00  0.45593999997E+02  0.45594000000E+02  0.51100000000E-03 0.  1.
         11   -1    0    0    0    0 -0.00000000000E+00 -0.00000000000E+00 -0.45593999997E+02  0.45594000000E+02  0.51100000000E-03 0. -1.
    9900012    2    1    2    0    0  0.60263940971E-01  0.82139853382E+00 -0.84541608401E+00  0.90007722215E+02  0.89999983349E+02 0.  0.
        -12    1    1    2    0    0 -0.60263940971E-01 -0.82139853382E+00  0.84541608401E+00  0.11802777847E+01  0.00000000000E+00 0.  1.
         11    1    3    3    0    0  0.26467620454E+02  0.24550486945E+02 -0.93605584753E+01  0.37294522345E+02  0.51100000000E-03 0. -1.
        -11    1    3    3    0    0  0.29646497146E+01  0.78581941114E+01 -0.12421136241E+01  0.84901831040E+01  0.51100000000E-03 0.  1.
        -12    1    3    3    0    0 -0.29372006227E+02 -0.31587282523E+02  0.97572560154E+01  0.44223016766E+02  0.00000000000E+00 0.  1.
</event>
<event>
 7    1  0.2641103E-015  0.9000751E+02  0.7816164E-02  0.1186339E+00
        -11   -1    0    0    0    0  0.00000000000E+00  0.00000000000E+00  0.45593999997E+02  0.45594000000E+02  0.51100000000E-03 0. -1.
         11   -1    0    0    0    0 -0.00000000000E+00 -0.00000000000E+00 -0.45593999997E+02  0.45594000000E+02  0.51100000000E-03 0.  1.
    9900012    2    1    2    0    0  0.41104804508E+00  0.85691557556E+00 -0.70020271478E+00  0.90007513388E+02  0.89999771765E+02 0.  0.
        -12    1    1    2    0    0 -0.41104804508E+00 -0.85691557556E+00  0.70020271478E+00  0.11804866119E+01  0.00000000000E+00 0.  1.
         11    1    3    3    0    0 -0.10359871534E+02  0.28072896403E+01  0.35527642241E+02  0.37113625218E+02  0.51100000000E-03 0. -1.
        -11    1    3    3    0    0  0.59362718125E+01  0.31323153405E+01  0.66485629616E+01  0.94474394488E+01  0.51100000000E-03 0.  1.
        -12    1    3    3    0    0  0.48346477671E+01 -0.50826894053E+01 -0.42876407917E+02  0.43446448722E+02  0.00000000000E+00 0.  1.
</event>
<event>
 7    1  0.2641103E-015  0.9000767E+02  0.7816164E-02  0.1186339E+00
        -11   -1    0    0    0    0  0.00000000000E+00  0.00000000000E+00  0.45593999997E+02  0.45594000000E+02  0.51100000000E-03 0.  1.
         11   -1    0    0    0    0 -0.00000000000E+00 -0.00000000000E+00 -0.45593999997E+02  0.45594000000E+02  0.51100000000E-03 0. -1.
    9900012    2    1    2    0    0  0.19591763521E+00 -0.86302715392E+00 -0.78101299543E+00  0.90007669162E+02  0.89999929595E+02 0.  0.
        -12    1    1    2    0    0 -0.19591763521E+00  0.86302715392E+00  0.78101299543E+00  0.11803308380E+01  0.00000000000E+00 0.  1.
         11    1    3    3    0    0 -0.77447600358E+00  0.68484122578E+01  0.85869010074E+01  0.11010696286E+02  0.51100000000E-03 0. -1.
        -11    1    3    3    0    0  0.21184447066E+02 -0.19749093523E+02  0.24380163778E+02  0.37857626426E+02  0.51100000000E-03 0.  1.
         12    1    3    3    0    0 -0.20214053427E+02  0.12037654111E+02 -0.33748077781E+02  0.41139346450E+02  0.00000000000E+00 0. -1.
</event>
<event>
 7    1  0.2641103E-015  0.9000774E+02  0.7816164E-02  0.1186339E+00
        -11   -1    0    0    0    0  0.00000000000E+00  0.00000000000E+00  0.45593999997E+02  0.45594000000E+02  0.51100000000E-03 0. -1.
         11   -1    0    0    0    0 -0.00000000000E+00 -0.00000000000E+00 -0.45593999997E+02  0.45594000000E+02  0.51100000000E-03 0.  1.
    9900012    2    1    2    0    0 -0.46429189993E+00  0.71137091570E+00  0.81939438698E+00  0.90007736170E+02  0.89999997487E+02 0.  0.
        -12    1    1    2    0    0  0.46429189993E+00 -0.71137091570E+00 -0.81939438698E+00  0.11802638304E+01  0.00000000000E+00 0.  1.
         11    1    3    3    0    0 -0.27657906742E+02 -0.28533096714E+01  0.29719168311E+02  0.40698036154E+02  0.51100000000E-03 0. -1.
        -11    1    3    3    0    0  0.75140513650E+00 -0.93884191204E+01 -0.24548587914E+01  0.97331061438E+01  0.51100000000E-03 0.  1.
        -12    1    3    3    0    0  0.26442209705E+02  0.12953099708E+02 -0.26444915133E+02  0.39576593872E+02  0.00000000000E+00 0.  1.
</event>
<event>
 7    1  0.2641103E-015  0.9000771E+02  0.7816164E-02  0.1186339E+00
        -11   -1    0    0    0    0  0.00000000000E+00  0.00000000000E+00  0.45593999997E+02  0.45594000000E+02  0.51100000000E-03 0.  1.
         11   -1    0    0    0    0 -0.00000000000E+00 -0.00000000000E+00 -0.45593999997E+02  0.45594000000E+02  0.51100000000E-03 0. -1.
    9900012    2    1    2    0    0 -0.75411015557E+00 -0.22847967202E+00  0.87875468675E+00  0.90007705593E+02  0.89999966507E+02 0.  0.
        -12    1    1    2    0    0  0.75411015557E+00  0.22847967202E+00 -0.87875468675E+00  0.11802944068E+01  0.00000000000E+00 0.  1.
         11    1    3    3    0    0  0.91563685928E+01  0.79738424779E+00 -0.39580213464E+00  0.91995416754E+01  0.51100000000E-03 0. -1.
        -11    1    3    3    0    0  0.32193133376E+02  0.47678268887E+01  0.15424037773E+02  0.36014315922E+02  0.51100000000E-03 0.  1.
         12    1    3    3    0    0 -0.42103612125E+02 -0.57936908085E+01 -0.14149480951E+02  0.44793847996E+02  0.00000000000E+00 0. -1.
</event>
<event>
 7    1  0.2641103E-015  0.9000760E+02  0.7816164E-02  0.1186339E+00
        -11   -1    0    0    0    0  0.00000000000E+00  0.00000000000E+00  0.45593999997E+02  0.45594000000E+02  0.51100000000E-03 0. -1.
         11   -1    0    0    0    0 -0.00000000000E+00 -0.00000000000E+00 -0.45593999997E+02  0.45594000000E+02  0.51100000000E-03 0.  1.
    9900012    2    1    2    0    0  0.83473009635E-01  0.11455768852E+01  0.27207551997E+00  0.90007602088E+02  0.89999861635E+02 0.  0.
        -12    1    1    2    0    0 -0.83473009635E-01 -0.11455768852E+01 -0.27207551997E+00  0.11803979125E+01  0.00000000000E+00 0.  1.
         11    1    3    3    0    0  0.72939519494E+01  0.19441479693E+01  0.31563619121E+01  0.81819354158E+01  0.51100000000E-03 0. -1.
        -11    1    3    3    0    0 -0.35973181541E+01 -0.38232086897E+02  0.13635277061E+02  0.40749895058E+02  0.51100000000E-03 0.  1.
         12    1    3    3    0    0 -0.36131607857E+01  0.37433515813E+02 -0.16519563454E+02  0.41075771614E+02  0.00000000000E+00 0. -1.
</event>
<event>
 7    1  0.2641103E-015  0.9000777E+02  0.7816164E-02  0.1186339E+00
        -11   -1    0    0    0    0  0.00000000000E+00  0.00000000000E+00  0.45593999997E+02  0.45594000000E+02  0.51100000000E-03 0.  1.
         11   -1    0    0    0    0 -0.00000000000E+00 -0.00000000000E+00 -0.45593999997E+02  0.45594000000E+02  0.51100000000E-03 0. -1.
    9900012    2    1    2    0    0 -0.84292138139E+00  0.75133376738E+00 -0.34341347904E+00  0.90007766251E+02  0.90000027965E+02 0.  0.
        -12    1    1    2    0    0  0.84292138139E+00 -0.75133376738E+00  0.34341347904E+00  0.11802337492E+01  0.00000000000E+00 0.  1.
         11    1    3    3    0    0 -0.18058336160E+02  0.48066845043E+01 -0.34746443228E+02  0.39452795060E+02  0.51100000000E-03 0. -1.
        -11    1    3    3    0    0 -0.87329730013E+01  0.91879681595E+00  0.24962467514E+01  0.91290882970E+01  0.51100000000E-03 0.  1.
        -12    1    3    3    0    0  0.25948387780E+02 -0.49741475529E+01  0.31906782997E+02  0.41425882894E+02  0.00000000000E+00 0.  1.
</event>
<event>
 7    1  0.2641103E-015  0.9000774E+02  0.7816164E-02  0.1186339E+00
        -11   -1    0    0    0    0  0.00000000000E+00  0.00000000000E+00  0.45593999997E+02  0.45594000000E+02  0.51100000000E-03 0.  1.
         11   -1    0    0    0    0 -0.00000000000E+00 -0.00000000000E+00 -0.45593999997E+02  0.45594000000E+02  0.51100000000E-03 0. -1.
    9900012    2    1    2    0    0  0.79500618609E-01 -0.11652899947E+01 -0.16964936102E+00  0.90007744932E+02  0.90000006365E+02 0.  0.
        -12    1    1    2    0    0 -0.79500618609E-01  0.11652899947E+01  0.16964936102E+00  0.11802550681E+01  0.00000000000E+00 0.  1.
         11    1    3    3    0    0  0.10007102338E+02 -0.36487671080E+02 -0.81238791852E+01  0.38697411429E+02  0.51100000000E-03 0. -1.
        -11    1    3    3    0    0 -0.39087118611E+01 -0.43457895363E+01  0.95047972135E+01  0.11158184684E+02  0.51100000000E-03 0.  1.
        -12    1    3    3    0    0 -0.60188898581E+01  0.39668170621E+02 -0.15505673894E+01  0.40152148819E+02  0.00000000000E+00 0.  1.
</event>
<event>
 7    1  0.2641103E-015  0.9000775E+02  0.7816164E-02  0.1186339E+00
        -11   -1    0    0    0    0  0.00000000000E+00  0.00000000000E+00  0.45593999997E+02  0.45594000000E+02  0.51100000000E-03 0.  1.
         11   -1    0    0    0    0 -0.00000000000E+00 -0.00000000000E+00 -0.45593999997E+02  0.45594000000E+02  0.51100000000E-03 0. -1.
    9900012    2    1    2    0    0  0.13087816998E+00 -0.11705314288E+01  0.75606171750E-01  0.90007750359E+02  0.90000011864E+02 0.  0.
        -12    1    1    2    0    0 -0.13087816998E+00  0.11705314288E+01 -0.75606171750E-01  0.11802496407E+01  0.00000000000E+00 0.  1.
         11    1    3    3    0    0 -0.65176486409E+01 -0.62536541647E+01 -0.46195810222E+01  0.10145366593E+02  0.51100000000E-03 0. -1.
        -11    1    3    3    0    0  0.19825430389E+02 -0.28725697747E+02 -0.15662263780E+02  0.38255978724E+02  0.51100000000E-03 0.  1.
         12    1    3    3    0    0 -0.13176903578E+02  0.33808820483E+02  0.20357450974E+02  0.41606405042E+02  0.00000000000E+00 0. -1.
</event>
<event>
 7    1  0.2641103E-015  0.9000777E+02  0.7816164E-02  0.1186339E+00
        -11   -1    0    0    0    0  0.00000000000E+00  0.00000000000E+00  0.45593999997E+02  0.45594000000E+02  0.51100000000E-03 0.  1.
         11   -1    0    0    0    0 -0.00000000000E+00 -0.00000000000E+00 -0.45593999997E+02  0.45594000000E+02  0.51100000000E-03 0. -1.
    9900012    2    1    2    0    0  0.10199633283E+01  0.16931121219E-01 -0.59356620831E+00  0.90007774302E+02  0.90000036123E+02 0.  0.
        -12    1    1    2    0    0 -0.10199633283E+01 -0.16931121219E-01  0.59356620831E+00  0.11802256977E+01  0.00000000000E+00 0.  1.
         11    1    3    3    0    0  0.22708513758E+02 -0.11372335639E+02 -0.13064802072E+01  0.25430562435E+02  0.51100000000E-03 0. -1.
        -11    1    3    3    0    0  0.20215900244E+02 -0.15320204853E+01  0.37620569920E+01  0.20619960778E+02  0.51100000000E-03 0.  1.
        -12    1    3    3    0    0 -0.41904450673E+02  0.12921287246E+02 -0.30491429931E+01  0.43957251089E+02  0.00000000000E+00 0.  1.
</event>
<event>
 7    1  0.2641103E-015  0.9000766E+02  0.7816164E-02  0.1186339E+00
        -11   -1    0    0    0    0  0.00000000000E+00  0.00000000000E+00  0.45593999997E+02  0.45594000000E+02  0.51100000000E-03 0.  1.
         11   -1    0    0    0    0 -0.00000000000E+00 -0.00000000000E+00 -0.45593999997E+02  0.45594000000E+02  0.51100000000E-03 0. -1.
    9900012    2    1    2    0    0  0.23242205739E-01  0.10989370237E+01 -0.43011052791E+00  0.90007661977E+02  0.89999922315E+02 0.  0.
        -12    1    1    2    0    0 -0.23242205739E-01 -0.10989370237E+01  0.43011052791E+00  0.11803380229E+01  0.00000000000E+00 0.  1.
         11    1    3    3    0    0 -0.33052535516E+02 -0.20420969316E+02  0.99353528834E+01  0.40102335705E+02  0.51100000000E-03 0. -1.
        -11    1    3    3    0    0  0.81035653565E+00 -0.45465772703E+00  0.70844198539E+01  0.71450959610E+01  0.51100000000E-03 0.  1.
        -12    1    3    3    0    0  0.32265421186E+02  0.21974564067E+02 -0.17449883265E+02  0.42760230311E+02  0.00000000000E+00 0.  1.
</event>
<event>
 7    1  0.2641103E-015  0.9000775E+02  0.7816164E-02  0.1186339E+00
        -11   -1    0    0    0    0  0.00000000000E+00  0.00000000000E+00  0.45593999997E+02  0.45594000000E+02  0.51100000000E-03 0.  1.
         11   -1    0    0    0    0 -0.00000000000E+00 -0.00000000000E+00 -0.45593999997E+02  0.45594000000E+02  0.51100000000E-03 0. -1.
    9900012    2    1    2    0    0 -0.27039904441E+00  0.75946879178E+00 -0.86202247659E+00  0.90007749502E+02  0.90000010995E+02 0.  0.
        -12    1    1    2    0    0  0.27039904441E+00 -0.75946879178E+00  0.86202247659E+00  0.11802504984E+01  0.00000000000E+00 0.  1.
         11    1    3    3    0    0 -0.32711186076E+02  0.88129819467E+01  0.10841261490E+02  0.35569977456E+02  0.51100000000E-03 0. -1.
        -11    1    3    3    0    0 -0.76187303976E+01  0.40004158256E+01 -0.90981855905E+01  0.12522993290E+02  0.51100000000E-03 0.  1.
        -12    1    3    3    0    0  0.40059517429E+02 -0.12053928981E+02 -0.26050983765E+01  0.41914778755E+02  0.00000000000E+00 0.  1.
</event>
<event>
 7    1  0.2641103E-015  0.9000786E+02  0.7816164E-02  0.1186339E+00
        -11   -1    0    0    0    0  0.00000000000E+00  0.00000000000E+00  0.45593999997E+02  0.45594000000E+02  0.51100000000E-03 0. -1.
         11   -1    0    0    0    0 -0.00000000000E+00 -0.00000000000E+00 -0.45593999997E+02  0.45594000000E+02  0.51100000000E-03 0.  1.
    9900012    2    1    2    0    0 -0.28290364651E+00 -0.10716384934E+01  0.40533346406E+00  0.90007856470E+02  0.90000119376E+02 0.  0.
        -12    1    1    2    0    0  0.28290364651E+00  0.10716384934E+01 -0.40533346406E+00  0.11801435298E+01  0.00000000000E+00 0.  1.
         11    1    3    3    0    0  0.35698930351E+02  0.24490485376E+01  0.23507253002E+02  0.42813577413E+02  0.51100000000E-03 0. -1.
        -11    1    3    3    0    0 -0.12178663013E+01  0.20902191992E+01 -0.89025407194E+01  0.92253697026E+01  0.51100000000E-03 0.  1.
        -12    1    3    3    0    0 -0.34763967696E+02 -0.56109062302E+01 -0.14199378819E+02  0.37968909354E+02  0.00000000000E+00 0.  1.
</event>
<event>
 7    1  0.2641103E-015  0.9000775E+02  0.7816164E-02  0.1186339E+00
        -11   -1    0    0    0    0  0.00000000000E+00  0.00000000000E+00  0.45593999997E+02  0.45594000000E+02  0.51100000000E-03 0.  1.
         11   -1    0    0    0    0 -0.00000000000E+00 -0.00000000000E+00 -0.45593999997E+02  0.45594000000E+02  0.51100000000E-03 0. -1.
    9900012    2    1    2    0    0  0.30544243231E+00  0.16509373587E+00 -0.11280222676E+01  0.90007752036E+02  0.90000013563E+02 0.  0.
        -12    1    1    2    0    0 -0.30544243231E+00 -0.16509373587E+00  0.11280222676E+01  0.11802479643E+01  0.00000000000E+00 0.  1.
         11    1    3    3    0    0 -0.42883362541E+01 -0.35917805175E+01  0.81431401579E+01  0.98793444624E+01  0.51100000000E-03 0. -1.
        -11    1    3    3    0    0 -0.18090356376E+02 -0.16805017657E+02  0.24334420900E+02  0.34667472551E+02  0.51100000000E-03 0.  1.
         12    1    3    3    0    0  0.22684135063E+02  0.20561891911E+02 -0.33605583325E+02  0.45460935022E+02  0.00000000000E+00 0. -1.
</event>
<event>
 7    1  0.2641103E-015  0.9000768E+02  0.7816164E-02  0.1186339E+00
        -11   -1    0    0    0    0  0.00000000000E+00  0.00000000000E+00  0.45593999997E+02  0.45594000000E+02  0.51100000000E-03 0.  1.
         11   -1    0    0    0    0 -0.00000000000E+00 -0.00000000000E+00 -0.45593999997E+02  0.45594000000E+02  0.51100000000E-03 0. -1.
    9900012    2    1    2    0    0  0.44092032767E+00  0.10948582386E+01 -0.43703189197E-02  0.90007684619E+02  0.89999945256E+02 0.  0.
        -12    1    1    2    0    0 -0.44092032767E+00 -0.10948582386E+01  0.43703189197E-02  0.11803153806E+01  0.00000000000E+00 0.  1.
         11    1    3    3    0    0 -0.30482863502E+02  0.17968076100E+02 -0.85259351806E+01  0.36397091875E+02  0.51100000000E-03 0. -1.
        -11    1    3    3    0    0 -0.32136668436E+01 -0.17068469729E+02 -0.29078417322E+01  0.17610106680E+02  0.51100000000E-03 0.  1.
        -12    1    3    3    0    0  0.34137450673E+02  0.19525186820E+00  0.11429406594E+02  0.36000486064E+02  0.00000000000E+00 0.  1.
</event>
<event>
 7    1  0.2641103E-015  0.9000767E+02  0.7816164E-02  0.1186339E+00
        -11   -1    0    0    0    0  0.00000000000E+00  0.00000000000E+00  0.45593999997E+02  0.45594000000E+02  0.51100000000E-03 0.  1.
         11   -1    0    0    0    0 -0.00000000000E+00 -0.00000000000E+00 -0.45593999997E+02  0.45594000000E+02  0.51100000000E-03 0. -1.
    9900012    2    1    2    0    0 -0.46567615174E+00 -0.67748357639E+00 -0.84696238967E+00  0.90007668028E+02  0.89999928446E+02 0.  0.
        -12    1    1    2    0    0  0.46567615174E+00  0.67748357639E+00  0.84696238967E+00  0.11803319720E+01  0.00000000000E+00 0.  1.
         11    1    3    3    0    0 -0.48677600510E+01  0.65509301030E+01  0.72699257179E+01  0.10929848733E+02  0.51100000000E-03 0. -1.
        -11    1    3    3    0    0  0.17996569874E+02 -0.12161478387E+02  0.30727195038E+02  0.37628959579E+02  0.51100000000E-03 0.  1.
         12    1    3    3    0    0 -0.13594485975E+02  0.49330647079E+01 -0.38844083146E+02  0.41448859716E+02  0.00000000000E+00 0. -1.
</event>
<event>
 7    1  0.2641103E-015  0.9000775E+02  0.7816164E-02  0.1186339E+00
        -11   -1    0    0    0    0  0.00000000000E+00  0.00000000000E+00  0.45593999997E+02  0.45594000000E+02  0.51100000000E-03 0.  1.
         11   -1    0    0    0    0 -0.00000000000E+00 -0.00000000000E+00 -0.45593999997E+02  0.45594000000E+02  0.51100000000E-03 0. -1.
    9900012    2    1    2    0    0 -0.35033929869E+00 -0.53920772689E+00 -0.98970150677E+00  0.90007749319E+02  0.90000010810E+02 0.  0.
        -12    1    1    2    0    0  0.35033929869E+00  0.53920772689E+00  0.98970150677E+00  0.11802506808E+01  0.00000000000E+00 0.  1.
         11    1    3    3    0    0  0.42909412797E+01  0.60017648583E+01 -0.67412316148E+01  0.99938762462E+01  0.51100000000E-03 0. -1.
        -11    1    3    3    0    0  0.36756143978E+02  0.28349593299E+01  0.71170052168E+01  0.37546010148E+02  0.51100000000E-03 0.  1.
         12    1    3    3    0    0 -0.41397424556E+02 -0.93759319150E+01 -0.13654751087E+01  0.42467862925E+02  0.00000000000E+00 0. -1.
</event>
<event>
 7    1  0.2641103E-015  0.9000775E+02  0.7816164E-02  0.1186339E+00
        -11   -1    0    0    0    0  0.00000000000E+00  0.00000000000E+00  0.45593999997E+02  0.45594000000E+02  0.51100000000E-03 0.  1.
         11   -1    0    0    0    0 -0.00000000000E+00 -0.00000000000E+00 -0.45593999997E+02  0.45594000000E+02  0.51100000000E-03 0. -1.
    9900012    2    1    2    0    0 -0.14575369910E+00 -0.54557559222E+00 -0.10363879097E+01  0.90007747160E+02  0.90000008622E+02 0.  0.
        -12    1    1    2    0    0  0.14575369910E+00  0.54557559222E+00  0.10363879097E+01  0.11802528402E+01  0.00000000000E+00 0.  1.
         11    1    3    3    0    0 -0.63435988077E-01  0.78671412014E+01 -0.41852039611E+01  0.89113336412E+01  0.51100000000E-03 0. -1.
        -11    1    3    3    0    0  0.15896459104E+02  0.26666353754E+02 -0.19235845572E+02  0.36521357994E+02  0.51100000000E-03 0.  1.
         12    1    3    3    0    0 -0.15978776815E+02 -0.35079070548E+02  0.22384661623E+02  0.44575055525E+02  0.00000000000E+00 0. -1.
</event>
<event>
 7    1  0.2641103E-015  0.9000776E+02  0.7816164E-02  0.1186339E+00
        -11   -1    0    0    0    0  0.00000000000E+00  0.00000000000E+00  0.45593999997E+02  0.45594000000E+02  0.51100000000E-03 0. -1.
         11   -1    0    0    0    0 -0.00000000000E+00 -0.00000000000E+00 -0.45593999997E+02  0.45594000000E+02  0.51100000000E-03 0.  1.
    9900012    2    1    2    0    0 -0.94746345818E+00 -0.49474495739E+00 -0.50050076328E+00  0.90007762485E+02  0.90000024150E+02 0.  0.
        -12    1    1    2    0    0  0.94746345818E+00  0.49474495739E+00  0.50050076328E+00  0.11802375149E+01  0.00000000000E+00 0.  1.
         11    1    3    3    0    0  0.15962934672E+01  0.31086910345E+01 -0.70666878824E+01  0.78835392223E+01  0.51100000000E-03 0. -1.
        -11    1    3    3    0    0 -0.51512615793E+01  0.29921473395E+02 -0.22409440874E+02  0.37736098189E+02  0.51100000000E-03 0.  1.
         12    1    3    3    0    0  0.26075046540E+01 -0.33524909387E+02  0.28975627993E+02  0.44388125073E+02  0.00000000000E+00 0. -1.
</event>
<event>
 7    1  0.2641103E-015  0.9000775E+02  0.7816164E-02  0.1186339E+00
        -11   -1    0    0    0    0  0.00000000000E+00  0.00000000000E+00  0.45593999997E+02  0.45594000000E+02  0.51100000000E-03 0. -1.
         11   -1    0    0    0    0 -0.00000000000E+00 -0.00000000000E+00 -0.45593999997E+02  0.45594000000E+02  0.51100000000E-03 0.  1.
    9900012    2    1    2    0    0  0.55256607378E+00  0.23344034564E+00  0.10164457307E+01  0.90007751897E+02  0.90000013422E+02 0.  0.
        -12    1    1    2    0    0 -0.55256607378E+00 -0.23344034564E+00 -0.10164457307E+01  0.11802481029E+01  0.00000000000E+00 0.  1.
         11    1    3    3    0    0 -0.17606566986E+01 -0.58401710564E+01  0.64055196416E+01  0.88452355603E+01  0.51100000000E-03 0. -1.
        -11    1    3    3    0    0  0.37184151382E+02 -0.70986210754E+01 -0.17858100974E+02  0.41856460742E+02  0.51100000000E-03 0.  1.
         12    1    3    3    0    0 -0.34870928610E+02  0.13172232477E+02  0.12469027063E+02  0.39306055595E+02  0.00000000000E+00 0. -1.
</event>
<event>
 7    1  0.2641103E-015  0.9000711E+02  0.7816164E-02  0.1186340E+00
        -11   -1    0    0    0    0  0.00000000000E+00  0.00000000000E+00  0.45593999997E+02  0.45594000000E+02  0.51100000000E-03 0.  1.
         11   -1    0    0    0    0 -0.00000000000E+00 -0.00000000000E+00 -0.45593999997E+02  0.45594000000E+02  0.51100000000E-03 0. -1.
    9900012    2    1    2    0    0 -0.10221622845E+01  0.58231646059E+00 -0.10293150181E+00  0.90007109196E+02  0.89999362235E+02 0.  0.
        -12    1    1    2    0    0  0.10221622845E+01 -0.58231646059E+00  0.10293150181E+00  0.11808908037E+01  0.00000000000E+00 0.  1.
         11    1    3    3    0    0  0.39808338567E+00  0.28180122359E+02 -0.15257224608E+02  0.32047787280E+02  0.51100000000E-03 0. -1.
        -11    1    3    3    0    0 -0.52352170302E+01  0.13393538434E+02  0.95928835758E+00  0.14412307364E+02  0.51100000000E-03 0.  1.
        -12    1    3    3    0    0  0.38149713601E+01 -0.40991344332E+02  0.14195004749E+02  0.43547014553E+02  0.00000000000E+00 0.  1.
</event>
<event>
 7    1  0.2641103E-015  0.9000778E+02  0.7816164E-02  0.1186339E+00
        -11   -1    0    0    0    0  0.00000000000E+00  0.00000000000E+00  0.45593999997E+02  0.45594000000E+02  0.51100000000E-03 0. -1.
         11   -1    0    0    0    0 -0.00000000000E+00 -0.00000000000E+00 -0.45593999997E+02  0.45594000000E+02  0.51100000000E-03 0.  1.
    9900012    2    1    2    0    0 -0.74121563213E+00  0.87782470045E+00  0.27008919105E+00  0.90007777568E+02  0.90000039432E+02 0.  0.
        -12    1    1    2    0    0  0.74121563213E+00 -0.87782470045E+00 -0.27008919105E+00  0.11802224321E+01  0.00000000000E+00 0.  1.
         11    1    3    3    0    0  0.72159308303E+01  0.42353226042E+01 -0.27533668301E+01  0.88084416596E+01  0.51100000000E-03 0. -1.
        -11    1    3    3    0    0  0.13614235678E+02 -0.33779068966E+02 -0.15474213149E+02  0.39570496410E+02  0.51100000000E-03 0.  1.
         12    1    3    3    0    0 -0.21571382140E+02  0.30421571062E+02  0.18497669170E+02  0.41628839499E+02  0.00000000000E+00 0. -1.
</event>
<event>
 7    1  0.2641103E-015  0.9000779E+02  0.7816164E-02  0.1186339E+00
        -11   -1    0    0    0    0  0.00000000000E+00  0.00000000000E+00  0.45593999997E+02  0.45594000000E+02  0.51100000000E-03 0.  1.
         11   -1    0    0    0    0 -0.00000000000E+00 -0.00000000000E+00 -0.45593999997E+02  0.45594000000E+02  0.51100000000E-03 0. -1.
    9900012    2    1    2    0    0  0.25558162435E+00  0.81371861941E+00 -0.81574911607E+00  0.90007785368E+02  0.90000047334E+02 0.  0.
        -12    1    1    2    0    0 -0.25558162435E+00 -0.81371861941E+00  0.81574911607E+00  0.11802146324E+01  0.00000000000E+00 0.  1.
         11    1    3    3    0    0 -0.64716082268E+01  0.33458366250E+01 -0.35929500249E+02  0.36660678174E+02  0.51100000000E-03 0. -1.
        -11    1    3    3    0    0 -0.38905294360E+01 -0.66317951776E+01 -0.65848360244E+01  0.10123092033E+02  0.51100000000E-03 0.  1.
        -12    1    3    3    0    0  0.10617719287E+02  0.40996771720E+01  0.41698587157E+02  0.43224015161E+02  0.00000000000E+00 0.  1.
</event>
<event>
 7    1  0.2641103E-015  0.9000764E+02  0.7816164E-02  0.1186339E+00
        -11   -1    0    0    0    0  0.00000000000E+00  0.00000000000E+00  0.45593999997E+02  0.45594000000E+02  0.51100000000E-03 0.  1.
         11   -1    0    0    0    0 -0.00000000000E+00 -0.00000000000E+00 -0.45593999997E+02  0.45594000000E+02  0.51100000000E-03 0. -1.
    9900012    2    1    2    0    0  0.10208234812E+01 -0.22546800181E+00 -0.54803001408E+00  0.90007638489E+02  0.89999898517E+02 0.  0.
        -12    1    1    2    0    0 -0.10208234812E+01  0.22546800181E+00  0.54803001408E+00  0.11803615107E+01  0.00000000000E+00 0.  1.
         11    1    3    3    0    0 -0.17245149299E+02  0.13681524206E+02 -0.29218279778E+02  0.36582607239E+02  0.51100000000E-03 0. -1.
        -11    1    3    3    0    0  0.41587963300E+01 -0.91524078475E+00 -0.96643044773E+01  0.10560872781E+02  0.51100000000E-03 0.  1.
        -12    1    3    3    0    0  0.14107176450E+02 -0.12991751423E+02  0.38334554241E+02  0.42864158469E+02  0.00000000000E+00 0.  1.
</event>
<event>
 7    1  0.2641103E-015  0.9000744E+02  0.7816164E-02  0.1186340E+00
        -11   -1    0    0    0    0  0.00000000000E+00  0.00000000000E+00  0.45593999997E+02  0.45594000000E+02  0.51100000000E-03 0.  1.
         11   -1    0    0    0    0 -0.00000000000E+00 -0.00000000000E+00 -0.45593999997E+02  0.45594000000E+02  0.51100000000E-03 0. -1.
    9900012    2    1    2    0    0  0.10554488694E+01 -0.52889617983E+00 -0.27829683089E-02  0.90007444525E+02  0.89999701992E+02 0.  0.
        -12    1    1    2    0    0 -0.10554488694E+01  0.52889617983E+00  0.27829683089E-02  0.11805554751E+01  0.00000000000E+00 0.  1.
         11    1    3    3    0    0  0.24216880144E+00  0.99901505454E+01 -0.20691746005E+01  0.10205059404E+02  0.51100000000E-03 0. -1.
        -11    1    3    3    0    0 -0.72234179059E+01 -0.36863049024E+01  0.39802172192E+02  0.40619939950E+02  0.51100000000E-03 0.  1.
         12    1    3    3    0    0  0.80366979739E+01 -0.68327418228E+01 -0.37735780560E+02  0.39182445171E+02  0.00000000000E+00 0. -1.
</event>
<event>
 7    1  0.2641103E-015  0.9000766E+02  0.7816164E-02  0.1186339E+00
        -11   -1    0    0    0    0  0.00000000000E+00  0.00000000000E+00  0.45593999997E+02  0.45594000000E+02  0.51100000000E-03 0. -1.
         11   -1    0    0    0    0 -0.00000000000E+00 -0.00000000000E+00 -0.45593999997E+02  0.45594000000E+02  0.51100000000E-03 0.  1.
    9900012    2    1    2    0    0 -0.23785876706E+00  0.69612075486E+00  0.92306342023E+00  0.90007658110E+02  0.89999918397E+02 0.  0.
        -12    1    1    2    0    0  0.23785876706E+00 -0.69612075486E+00 -0.92306342023E+00  0.11803418895E+01  0.00000000000E+00 0.  1.
         11    1    3    3    0    0 -0.12969622937E+01  0.79294575838E+01  0.54077157253E+01  0.96851328536E+01  0.51100000000E-03 0. -1.
        -11    1    3    3    0    0 -0.25524186216E+02 -0.33396891196E+02  0.34979526025E+01  0.42179048072E+02  0.51100000000E-03 0.  1.
         12    1    3    3    0    0  0.26583289742E+02  0.26163554367E+02 -0.79826049076E+01  0.38143477185E+02  0.00000000000E+00 0. -1.
</event>
<event>
 7    1  0.4317799E-015  0.9000769E+02  0.7816164E-02  0.1186339E+00
        -11   -1    0    0    0    0  0.00000000000E+00  0.00000000000E+00  0.45593999997E+02  0.45594000000E+02  0.51100000000E-03 0. -1.
         11   -1    0    0    0    0 -0.00000000000E+00 -0.00000000000E+00 -0.45593999997E+02  0.45594000000E+02  0.51100000000E-03 0.  1.
    9900012    2    1    2    0    0  0.82159291600E+00  0.73219634003E+00  0.42661112436E+00  0.90007693493E+02  0.89999954247E+02 0.  0.
        -12    1    1    2    0    0 -0.82159291600E+00 -0.73219634003E+00 -0.42661112436E+00  0.11803065074E+01  0.00000000000E+00 0.  1.
         11    1    3    3    0    0  0.67006141378E+01  0.58970781453E+01 -0.31295727351E+01  0.94587518331E+01  0.51100000000E-03 0. -1.
        -11    1    3    3    0    0  0.93541002442E+01  0.33384711499E+02 -0.11379206778E+02  0.36490060296E+02  0.51100000000E-03 0.  1.
         12    1    3    3    0    0 -0.15233121466E+02 -0.38549593304E+02  0.14935390637E+02  0.44058881364E+02  0.00000000000E+00 0. -1.
</event>
<event>
 7    1  0.2641103E-015  0.9000767E+02  0.7816164E-02  0.1186339E+00
        -11   -1    0    0    0    0  0.00000000000E+00  0.00000000000E+00  0.45593999997E+02  0.45594000000E+02  0.51100000000E-03 0.  1.
         11   -1    0    0    0    0 -0.00000000000E+00 -0.00000000000E+00 -0.45593999997E+02  0.45594000000E+02  0.51100000000E-03 0. -1.
    9900012    2    1    2    0    0  0.12079004820E+00  0.96786187922E+00 -0.66470403793E+00  0.90007670253E+02  0.89999930701E+02 0.  0.
        -12    1    1    2    0    0 -0.12079004820E+00 -0.96786187922E+00  0.66470403793E+00  0.11803297467E+01  0.00000000000E+00 0.  1.
         11    1    3    3    0    0 -0.22222956970E+02 -0.23699782052E+02 -0.18435576134E+02  0.37355186433E+02  0.51100000000E-03 0. -1.
        -11    1    3    3    0    0  0.15934207161E+01 -0.74517269756E+01 -0.40457052908E+01  0.86275695337E+01  0.51100000000E-03 0.  1.
        -12    1    3    3    0    0  0.20750326302E+02  0.32119370907E+02  0.21816577387E+02  0.44024914287E+02  0.00000000000E+00 0.  1.
</event>
<event>
 7    1  0.2641103E-015  0.9000778E+02  0.7816164E-02  0.1186339E+00
        -11   -1    0    0    0    0  0.00000000000E+00  0.00000000000E+00  0.45593999997E+02  0.45594000000E+02  0.51100000000E-03 0. -1.
         11   -1    0    0    0    0 -0.00000000000E+00 -0.00000000000E+00 -0.45593999997E+02  0.45594000000E+02  0.51100000000E-03 0.  1.
    9900012    2    1    2    0    0  0.73784078644E+00 -0.60031160295E+00  0.69867106121E+00  0.90007777861E+02  0.90000039728E+02 0.  0.
        -12    1    1    2    0    0 -0.73784078644E+00  0.60031160295E+00 -0.69867106121E+00  0.11802221395E+01  0.00000000000E+00 0.  1.
         11    1    3    3    0    0 -0.25941883412E+02 -0.24550048041E+02  0.16916294044E+02  0.39520212275E+02  0.51100000000E-03 0. -1.
        -11    1    3    3    0    0  0.45382609660E+01 -0.35653616018E+01  0.63458416600E+01  0.85777224589E+01  0.51100000000E-03 0.  1.
        -12    1    3    3    0    0  0.22141463232E+02  0.27515098040E+02 -0.22563464643E+02  0.41909843127E+02  0.00000000000E+00 0.  1.
</event>
<event>
 7    1  0.2641103E-015  0.9000825E+02  0.7816164E-02  0.1186338E+00
        -11   -1    0    0    0    0  0.00000000000E+00  0.00000000000E+00  0.45593999997E+02  0.45594000000E+02  0.51100000000E-03 0.  1.
         11   -1    0    0    0    0 -0.00000000000E+00 -0.00000000000E+00 -0.45593999997E+02  0.45594000000E+02  0.51100000000E-03 0. -1.
    9900012    2    1    2    0    0  0.62770384741E+00 -0.85335768691E+00  0.51921176603E+00  0.90008249043E+02  0.90000517129E+02 0.  0.
        -12    1    1    2    0    0 -0.62770384741E+00  0.85335768691E+00 -0.51921176603E+00  0.11797509567E+01  0.00000000000E+00 0.  1.
         11    1    3    3    0    0  0.80454424633E+01 -0.20686774758E+00 -0.41571423713E+02  0.42343301813E+02  0.51100000000E-03 0. -1.
        -11    1    3    3    0    0  0.54046474808E+01 -0.48667922099E+01  0.71139170415E+01  0.10173676658E+02  0.51100000000E-03 0.  1.
        -12    1    3    3    0    0 -0.12822386097E+02  0.42203022706E+01  0.34976718437E+02  0.37491270572E+02  0.00000000000E+00 0.  1.
</event>
<event>
 7    1  0.2641103E-015  0.9000765E+02  0.7816164E-02  0.1186339E+00
        -11   -1    0    0    0    0  0.00000000000E+00  0.00000000000E+00  0.45593999997E+02  0.45594000000E+02  0.51100000000E-03 0.  1.
         11   -1    0    0    0    0 -0.00000000000E+00 -0.00000000000E+00 -0.45593999997E+02  0.45594000000E+02  0.51100000000E-03 0. -1.
    9900012    2    1    2    0    0 -0.11616147581E+01  0.16094323853E+00  0.13409476370E+00  0.90007647096E+02  0.89999907238E+02 0.  0.
        -12    1    1    2    0    0  0.11616147581E+01 -0.16094323853E+00 -0.13409476370E+00  0.11803529040E+01  0.00000000000E+00 0.  1.
         11    1    3    3    0    0  0.16703155894E+02 -0.52063361616E+01  0.58351865850E+01  0.18443176402E+02  0.51100000000E-03 0. -1.
        -11    1    3    3    0    0  0.25686272396E+02 -0.43262597058E+00  0.53930244185E+01  0.26249885095E+02  0.51100000000E-03 0.  1.
        -12    1    3    3    0    0 -0.43551043048E+02  0.57999053707E+01 -0.11094116240E+02  0.45314585599E+02  0.00000000000E+00 0.  1.
</event>
<event>
 7    1  0.2641103E-015  0.9000770E+02  0.7816164E-02  0.1186339E+00
        -11   -1    0    0    0    0  0.00000000000E+00  0.00000000000E+00  0.45593999997E+02  0.45594000000E+02  0.51100000000E-03 0. -1.
         11   -1    0    0    0    0 -0.00000000000E+00 -0.00000000000E+00 -0.45593999997E+02  0.45594000000E+02  0.51100000000E-03 0.  1.
    9900012    2    1    2    0    0  0.41013094334E+00  0.31360032058E+00  0.10613879871E+01  0.90007704693E+02  0.89999965595E+02 0.  0.
        -12    1    1    2    0    0 -0.41013094334E+00 -0.31360032058E+00 -0.10613879871E+01  0.11802953067E+01  0.00000000000E+00 0.  1.
         11    1    3    3    0    0 -0.67653893322E+01 -0.19416080287E+01 -0.71251373887E+01  0.10015384048E+02  0.51100000000E-03 0. -1.
        -11    1    3    3    0    0  0.11300587014E+02 -0.24188793563E+02 -0.25532957891E+02  0.36942292022E+02  0.51100000000E-03 0.  1.
         12    1    3    3    0    0 -0.41250667385E+01  0.26444001912E+02  0.33719483267E+02  0.43050028624E+02  0.00000000000E+00 0. -1.
</event>
<event>
 7    1  0.2641103E-015  0.9000786E+02  0.7816164E-02  0.1186339E+00
        -11   -1    0    0    0    0  0.00000000000E+00  0.00000000000E+00  0.45593999997E+02  0.45594000000E+02  0.51100000000E-03 0.  1.
         11   -1    0    0    0    0 -0.00000000000E+00 -0.00000000000E+00 -0.45593999997E+02  0.45594000000E+02  0.51100000000E-03 0. -1.
    9900012    2    1    2    0    0 -0.93585472735E+00  0.71254773275E+00  0.95877500907E-01  0.90007855586E+02  0.90000118480E+02 0.  0.
        -12    1    1    2    0    0  0.93585472735E+00 -0.71254773275E+00 -0.95877500907E-01  0.11801444138E+01  0.00000000000E+00 0.  1.
         11    1    3    3    0    0  0.15052425825E+02  0.15202810613E+01 -0.34169621116E+02  0.37369102012E+02  0.51100000000E-03 0. -1.
        -11    1    3    3    0    0  0.52995038357E+01 -0.23591859771E+01 -0.51875428776E+01  0.77821013067E+01  0.51100000000E-03 0.  1.
        -12    1    3    3    0    0 -0.21287784389E+02  0.15514526486E+01  0.39453041494E+02  0.44856652267E+02  0.00000000000E+00 0.  1.
</event>
<event>
 7    1  0.2641103E-015  0.9000773E+02  0.7816164E-02  0.1186339E+00
        -11   -1    0    0    0    0  0.00000000000E+00  0.00000000000E+00  0.45593999997E+02  0.45594000000E+02  0.51100000000E-03 0.  1.
         11   -1    0    0    0    0 -0.00000000000E+00 -0.00000000000E+00 -0.45593999997E+02  0.45594000000E+02  0.51100000000E-03 0. -1.
    9900012    2    1    2    0    0  0.23524065501E+00 -0.11259280758E+01 -0.26453756384E+00  0.90007732098E+02  0.89999993362E+02 0.  0.
        -12    1    1    2    0    0 -0.23524065501E+00  0.11259280758E+01  0.26453756384E+00  0.11802679019E+01  0.00000000000E+00 0.  1.
         11    1    3    3    0    0 -0.64207498149E+01  0.66077902104E+01  0.58965482261E+01  0.10938839102E+02  0.51100000000E-03 0. -1.
        -11    1    3    3    0    0  0.46175968176E+01 -0.37340321823E+02  0.17132967764E+02  0.41341993407E+02  0.51100000000E-03 0.  1.
         12    1    3    3    0    0  0.20383936523E+01  0.29606603537E+02 -0.23294053554E+02  0.37726899589E+02  0.00000000000E+00 0. -1.
</event>
<event>
 7    1  0.2641103E-015  0.9000776E+02  0.7816164E-02  0.1186339E+00
        -11   -1    0    0    0    0  0.00000000000E+00  0.00000000000E+00  0.45593999997E+02  0.45594000000E+02  0.51100000000E-03 0.  1.
         11   -1    0    0    0    0 -0.00000000000E+00 -0.00000000000E+00 -0.45593999997E+02  0.45594000000E+02  0.51100000000E-03 0. -1.
    9900012    2    1    2    0    0  0.10151833949E+01  0.59745722562E+00  0.73563311153E-01  0.90007761032E+02  0.90000022677E+02 0.  0.
        -12    1    1    2    0    0 -0.10151833949E+01 -0.59745722562E+00 -0.73563311153E-01  0.11802389684E+01  0.00000000000E+00 0.  1.
         11    1    3    3    0    0  0.86135338431E+01 -0.27524410461E+01  0.55988977582E+00  0.90599323287E+01  0.51100000000E-03 0. -1.
        -11    1    3    3    0    0  0.29017785224E+02  0.14856891639E+02  0.19177287583E+02  0.37822314151E+02  0.51100000000E-03 0.  1.
         12    1    3    3    0    0 -0.36616135672E+02 -0.11506993367E+02 -0.19663614047E+02  0.43125514551E+02  0.00000000000E+00 0. -1.
</event>
<event>
 7    1  0.2641103E-015  0.9000769E+02  0.7816164E-02  0.1186339E+00
        -11   -1    0    0    0    0  0.00000000000E+00  0.00000000000E+00  0.45593999997E+02  0.45594000000E+02  0.51100000000E-03 0.  1.
         11   -1    0    0    0    0 -0.00000000000E+00 -0.00000000000E+00 -0.45593999997E+02  0.45594000000E+02  0.51100000000E-03 0. -1.
    9900012    2    1    2    0    0  0.13115976811E+00 -0.11668806787E+01  0.11961176888E+00  0.90007694794E+02  0.89999955566E+02 0.  0.
        -12    1    1    2    0    0 -0.13115976811E+00  0.11668806787E+01 -0.11961176888E+00  0.11803052056E+01  0.00000000000E+00 0.  1.
         11    1    3    3    0    0 -0.23219282042E+02 -0.25282232336E+02 -0.69238393052E+01  0.35018079351E+02  0.51100000000E-03 0. -1.
        -11    1    3    3    0    0 -0.10135116180E+02  0.17197676209E+02 -0.52696951595E+00  0.19968934477E+02  0.51100000000E-03 0.  1.
        -12    1    3    3    0    0  0.33485557990E+02  0.69176754478E+01  0.75704205900E+01  0.35020680967E+02  0.00000000000E+00 0.  1.
</event>
<event>
 7    1  0.2641103E-015  0.9000796E+02  0.7816164E-02  0.1186339E+00
        -11   -1    0    0    0    0  0.00000000000E+00  0.00000000000E+00  0.45593999997E+02  0.45594000000E+02  0.51100000000E-03 0.  1.
         11   -1    0    0    0    0 -0.00000000000E+00 -0.00000000000E+00 -0.45593999997E+02  0.45594000000E+02  0.51100000000E-03 0. -1.
    9900012    2    1    2    0    0 -0.98908192439E+00 -0.48479029948E-02 -0.64357999844E+00  0.90007956878E+02  0.90000221109E+02 0.  0.
        -12    1    1    2    0    0  0.98908192439E+00  0.48479029948E-02  0.64357999844E+00  0.11800431220E+01  0.00000000000E+00 0.  1.
         11    1    3    3    0    0  0.30276112440E+02  0.25989931593E+01 -0.26797349982E+02  0.40515376294E+02  0.51100000000E-03 0. -1.
        -11    1    3    3    0    0 -0.65361441014E+01  0.11563590889E+02  0.10803453131E+02  0.17121694244E+02  0.51100000000E-03 0.  1.
        -12    1    3    3    0    0 -0.24729050263E+02 -0.14167431951E+02  0.15350316852E+02  0.32370886341E+02  0.00000000000E+00 0.  1.
</event>
<event>
 7    1  0.2641103E-015  0.9000732E+02  0.7816164E-02  0.1186340E+00
        -11   -1    0    0    0    0  0.00000000000E+00  0.00000000000E+00  0.45593999997E+02  0.45594000000E+02  0.51100000000E-03 0. -1.
         11   -1    0    0    0    0 -0.00000000000E+00 -0.00000000000E+00 -0.45593999997E+02  0.45594000000E+02  0.51100000000E-03 0.  1.
    9900012    2    1    2    0    0 -0.13683194556E+00  0.21442080944E+00  0.11529539253E+01  0.90007321374E+02  0.89999577215E+02 0.  0.
        -12    1    1    2    0    0  0.13683194556E+00 -0.21442080944E+00 -0.11529539253E+01  0.11806786264E+01  0.00000000000E+00 0.  1.
         11    1    3    3    0    0  0.51260219002E+01 -0.10667812153E+02  0.55877258154E+01  0.13088200667E+02  0.51100000000E-03 0. -1.
        -11    1    3    3    0    0  0.19515741779E+02 -0.10803809596E+02 -0.28458369331E+02  0.36158889145E+02  0.51100000000E-03 0.  1.
         12    1    3    3    0    0 -0.24778595625E+02  0.21686042558E+02  0.24023597441E+02  0.40760231562E+02  0.00000000000E+00 0. -1.
</event>
<event>
 7    1  0.2641103E-015  0.9000776E+02  0.7816164E-02  0.1186339E+00
        -11   -1    0    0    0    0  0.00000000000E+00  0.00000000000E+00  0.45593999997E+02  0.45594000000E+02  0.51100000000E-03 0.  1.
         11   -1    0    0    0    0 -0.00000000000E+00 -0.00000000000E+00 -0.45593999997E+02  0.45594000000E+02  0.51100000000E-03 0. -1.
    9900012    2    1    2    0    0 -0.52821418364E+00 -0.66193079143E+00 -0.82207561419E+00  0.90007758113E+02  0.90000019720E+02 0.  0.
        -12    1    1    2    0    0  0.52821418364E+00  0.66193079143E+00  0.82207561419E+00  0.11802418870E+01  0.00000000000E+00 0.  1.
         11    1    3    3    0    0 -0.51051747527E+01  0.11250907814E+02 -0.22654240884E+01  0.12560966622E+02  0.51100000000E-03 0. -1.
        -11    1    3    3    0    0 -0.22339633862E+00  0.78209591984E+01  0.36284499423E+02  0.37118488754E+02  0.51100000000E-03 0.  1.
         12    1    3    3    0    0  0.48003569077E+01 -0.19733797804E+02 -0.34841150949E+02  0.40328302738E+02  0.00000000000E+00 0. -1.
</event>
<event>
 7    1  0.2641103E-015  0.9000775E+02  0.7816164E-02  0.1186339E+00
        -11   -1    0    0    0    0  0.00000000000E+00  0.00000000000E+00  0.45593999997E+02  0.45594000000E+02  0.51100000000E-03 0.  1.
         11   -1    0    0    0    0 -0.00000000000E+00 -0.00000000000E+00 -0.45593999997E+02  0.45594000000E+02  0.51100000000E-03 0. -1.
    9900012    2    1    2    0    0 -0.74305645861E+00 -0.24297661564E+00 -0.88420769707E+00  0.90007748422E+02  0.90000009901E+02 0.  0.
        -12    1    1    2    0    0  0.74305645861E+00  0.24297661564E+00  0.88420769707E+00  0.11802515783E+01  0.00000000000E+00 0.  1.
         11    1    3    3    0    0  0.27678509930E+01 -0.50852536230E+01  0.80097574721E+01  0.98831684471E+01  0.51100000000E-03 0. -1.
        -11    1    3    3    0    0 -0.24143073666E+02  0.10307101808E+02  0.27446771818E+02  0.37979595011E+02  0.51100000000E-03 0.  1.
         12    1    3    3    0    0  0.20632166214E+02 -0.54648248003E+01 -0.36340736987E+02  0.42144984964E+02  0.00000000000E+00 0. -1.
</event>
<event>
 7    1  0.2641103E-015  0.9000735E+02  0.7816164E-02  0.1186340E+00
        -11   -1    0    0    0    0  0.00000000000E+00  0.00000000000E+00  0.45593999997E+02  0.45594000000E+02  0.51100000000E-03 0. -1.
         11   -1    0    0    0    0 -0.00000000000E+00 -0.00000000000E+00 -0.45593999997E+02  0.45594000000E+02  0.51100000000E-03 0.  1.
    9900012    2    1    2    0    0  0.10295964119E+01  0.25339318368E+00  0.51929242600E+00  0.90007347002E+02  0.89999603182E+02 0.  0.
        -12    1    1    2    0    0 -0.10295964119E+01 -0.25339318368E+00 -0.51929242600E+00  0.11806529975E+01  0.00000000000E+00 0.  1.
         11    1    3    3    0    0 -0.28447926395E+01 -0.74022084516E+01 -0.64937919029E+01  0.10249627733E+02  0.51100000000E-03 0. -1.
        -11    1    3    3    0    0 -0.28633733060E+02  0.16232089301E+01 -0.21702478688E+02  0.35965581570E+02  0.51100000000E-03 0.  1.
         12    1    3    3    0    0  0.32508122111E+02  0.60323927052E+01  0.28715563017E+02  0.43792137700E+02  0.00000000000E+00 0. -1.
</event>
<event>
 7    1  0.2641103E-015  0.9000788E+02  0.7816164E-02  0.1186339E+00
        -11   -1    0    0    0    0  0.00000000000E+00  0.00000000000E+00  0.45593999997E+02  0.45594000000E+02  0.51100000000E-03 0.  1.
         11   -1    0    0    0    0 -0.00000000000E+00 -0.00000000000E+00 -0.45593999997E+02  0.45594000000E+02  0.51100000000E-03 0. -1.
    9900012    2    1    2    0    0  0.31690593855E+00 -0.22063943063E-01 -0.11365542939E+01  0.90007884813E+02  0.90000148093E+02 0.  0.
        -12    1    1    2    0    0 -0.31690593855E+00  0.22063943063E-01  0.11365542939E+01  0.11801151869E+01  0.00000000000E+00 0.  1.
         11    1    3    3    0    0  0.18574647428E+02 -0.26454518610E+02 -0.16893279227E+02  0.36472482302E+02  0.51100000000E-03 0. -1.
        -11    1    3    3    0    0 -0.31885878182E+01  0.85660816964E+01 -0.13366648721E+02  0.16192965948E+02  0.51100000000E-03 0.  1.
        -12    1    3    3    0    0 -0.15069153672E+02  0.17866372970E+02  0.29123373654E+02  0.37342436563E+02  0.00000000000E+00 0.  1.
</event>
<event>
 7    1  0.2641103E-015  0.9000769E+02  0.7816164E-02  0.1186339E+00
        -11   -1    0    0    0    0  0.00000000000E+00  0.00000000000E+00  0.45593999997E+02  0.45594000000E+02  0.51100000000E-03 0. -1.
         11   -1    0    0    0    0 -0.00000000000E+00 -0.00000000000E+00 -0.45593999997E+02  0.45594000000E+02  0.51100000000E-03 0.  1.
    9900012    2    1    2    0    0 -0.49684003830E+00  0.10071848202E+01 -0.36311890840E+00  0.90007692147E+02  0.89999952884E+02 0.  0.
        -12    1    1    2    0    0  0.49684003830E+00 -0.10071848202E+01  0.36311890840E+00  0.11803078528E+01  0.00000000000E+00 0.  1.
         11    1    3    3    0    0  0.72537683724E+01  0.45826326552E+01 -0.63752790601E+01  0.10689333983E+02  0.51100000000E-03 0. -1.
        -11    1    3    3    0    0 -0.33807907540E+02 -0.12768762240E+02 -0.20055816491E+02  0.41331001400E+02  0.51100000000E-03 0.  1.
         12    1    3    3    0    0  0.26057299129E+02  0.91933144047E+01  0.26067976642E+02  0.37987356764E+02  0.00000000000E+00 0. -1.
</event>
<event>
 7    1  0.2641103E-015  0.9000756E+02  0.7816164E-02  0.1186339E+00
        -11   -1    0    0    0    0  0.00000000000E+00  0.00000000000E+00  0.45593999997E+02  0.45594000000E+02  0.51100000000E-03 0. -1.
         11   -1    0    0    0    0 -0.00000000000E+00 -0.00000000000E+00 -0.45593999997E+02  0.45594000000E+02  0.51100000000E-03 0.  1.
    9900012    2    1    2    0    0 -0.64090715011E-01 -0.86414587397E+00 -0.80160902365E+00  0.90007562480E+02  0.89999821505E+02 0.  0.
        -12    1    1    2    0    0  0.64090715011E-01  0.86414587397E+00  0.80160902365E+00  0.11804375198E+01  0.00000000000E+00 0.  1.
         11    1    3    3    0    0 -0.57873319914E+01 -0.27674853814E+02  0.23016800588E+02  0.36457699527E+02  0.51100000000E-03 0. -1.
        -11    1    3    3    0    0 -0.69449819042E+01 -0.13041096456E+01  0.70044654977E+01  0.99496740041E+01  0.51100000000E-03 0.  1.
        -12    1    3    3    0    0  0.12668223181E+02  0.28114817585E+02 -0.30822875110E+02  0.43600188950E+02  0.00000000000E+00 0.  1.
</event>
<event>
 7    1  0.2641103E-015  0.9000770E+02  0.7816164E-02  0.1186339E+00
        -11   -1    0    0    0    0  0.00000000000E+00  0.00000000000E+00  0.45593999997E+02  0.45594000000E+02  0.51100000000E-03 0. -1.
         11   -1    0    0    0    0 -0.00000000000E+00 -0.00000000000E+00 -0.45593999997E+02  0.45594000000E+02  0.51100000000E-03 0.  1.
    9900012    2    1    2    0    0 -0.49294180002E+00 -0.31627272497E-01 -0.10719732768E+01  0.90007695544E+02  0.89999956325E+02 0.  0.
        -12    1    1    2    0    0  0.49294180002E+00  0.31627272497E-01  0.10719732768E+01  0.11803044559E+01  0.00000000000E+00 0.  1.
         11    1    3    3    0    0  0.42175723578E+01 -0.60111427663E+00  0.73426316735E+01  0.84890220356E+01  0.51100000000E-03 0. -1.
        -11    1    3    3    0    0  0.78363284048E+01 -0.36297608497E+02 -0.18215110047E+02  0.41360786498E+02  0.51100000000E-03 0.  1.
         12    1    3    3    0    0 -0.12546842563E+02  0.36867095501E+02  0.98005050963E+01  0.40157887010E+02  0.00000000000E+00 0. -1.
</event>
<event>
 7    1  0.2641103E-015  0.9000774E+02  0.7816164E-02  0.1186339E+00
        -11   -1    0    0    0    0  0.00000000000E+00  0.00000000000E+00  0.45593999997E+02  0.45594000000E+02  0.51100000000E-03 0.  1.
         11   -1    0    0    0    0 -0.00000000000E+00 -0.00000000000E+00 -0.45593999997E+02  0.45594000000E+02  0.51100000000E-03 0. -1.
    9900012    2    1    2    0    0 -0.28333904581E+00 -0.97960563585E-01 -0.11415547424E+01  0.90007735404E+02  0.89999996711E+02 0.  0.
        -12    1    1    2    0    0  0.28333904581E+00  0.97960563585E-01  0.11415547424E+01  0.11802645961E+01  0.00000000000E+00 0.  1.
         11    1    3    3    0    0  0.43653684568E+01  0.40834658812E+02 -0.12534684746E+02  0.42937677208E+02  0.51100000000E-03 0. -1.
        -11    1    3    3    0    0  0.31961584639E+01 -0.74835407776E+00  0.44702581477E+01  0.55460500286E+01  0.51100000000E-03 0.  1.
        -12    1    3    3    0    0 -0.78448659665E+01 -0.40184265298E+02  0.69228718560E+01  0.41524008167E+02  0.00000000000E+00 0.  1.
</event>
<event>
 7    1  0.2641103E-015  0.9000733E+02  0.7816164E-02  0.1186340E+00
        -11   -1    0    0    0    0  0.00000000000E+00  0.00000000000E+00  0.45593999997E+02  0.45594000000E+02  0.51100000000E-03 0. -1.
         11   -1    0    0    0    0 -0.00000000000E+00 -0.00000000000E+00 -0.45593999997E+02  0.45594000000E+02  0.51100000000E-03 0.  1.
    9900012    2    1    2    0    0 -0.56591732663E+00  0.10189991506E+01 -0.18805079096E+00  0.90007328670E+02  0.89999584607E+02 0.  0.
        -12    1    1    2    0    0  0.56591732663E+00 -0.10189991506E+01  0.18805079096E+00  0.11806713300E+01  0.00000000000E+00 0.  1.
         11    1    3    3    0    0 -0.18823326012E+02 -0.25270991915E+02  0.22608198991E+02  0.38782358057E+02  0.51100000000E-03 0. -1.
        -11    1    3    3    0    0 -0.23781705846E+01  0.28788159091E+01  0.70911665123E+01  0.80142322860E+01  0.51100000000E-03 0.  1.
        -12    1    3    3    0    0  0.20635579270E+02  0.23411175157E+02 -0.29887416294E+02  0.43210738327E+02  0.00000000000E+00 0.  1.
</event>
<event>
 7    1  0.2641103E-015  0.9000856E+02  0.7816164E-02  0.1186337E+00
        -11   -1    0    0    0    0  0.00000000000E+00  0.00000000000E+00  0.45593999997E+02  0.45594000000E+02  0.51100000000E-03 0. -1.
         11   -1    0    0    0    0 -0.00000000000E+00 -0.00000000000E+00 -0.45593999997E+02  0.45594000000E+02  0.51100000000E-03 0.  1.
    9900012    2    1    2    0    0  0.10433349744E+01 -0.52557865268E+00 -0.16215601518E+00  0.90008561421E+02  0.90000833628E+02 0.  0.
        -12    1    1    2    0    0 -0.10433349744E+01  0.52557865268E+00  0.16215601518E+00  0.11794385793E+01  0.00000000000E+00 0.  1.
         11    1    3    3    0    0 -0.18334518018E+02  0.29319050182E+02  0.16627294789E+02  0.38369625836E+02  0.51100000000E-03 0. -1.
        -11    1    3    3    0    0 -0.63161651778E+01  0.24395498487E+01 -0.58614242196E+01  0.89555368438E+01  0.51100000000E-03 0.  1.
        -12    1    3    3    0    0  0.25694018170E+02 -0.32284178683E+02 -0.10928026585E+02  0.42683398741E+02  0.00000000000E+00 0.  1.
</event>
<event>
 7    1  0.2641103E-015  0.9000774E+02  0.7816164E-02  0.1186339E+00
        -11   -1    0    0    0    0  0.00000000000E+00  0.00000000000E+00  0.45593999997E+02  0.45594000000E+02  0.51100000000E-03 0. -1.
         11   -1    0    0    0    0 -0.00000000000E+00 -0.00000000000E+00 -0.45593999997E+02  0.45594000000E+02  0.51100000000E-03 0.  1.
    9900012    2    1    2    0    0  0.11403134077E+01 -0.21058530790E-01  0.30375288405E+00  0.90007735647E+02  0.89999996957E+02 0.  0.
        -12    1    1    2    0    0 -0.11403134077E+01  0.21058530790E-01 -0.30375288405E+00  0.11802643535E+01  0.00000000000E+00 0.  1.
         11    1    3    3    0    0 -0.69128367602E+01  0.28830207874E+02  0.64002499599E+01  0.30330370884E+02  0.51100000000E-03 0. -1.
        -11    1    3    3    0    0  0.84183751280E+01 -0.58252080350E+01 -0.26813381951E+02  0.28701211479E+02  0.51100000000E-03 0.  1.
        -12    1    3    3    0    0 -0.36522496001E+00 -0.23026058370E+02  0.20716884875E+02  0.30976153284E+02  0.00000000000E+00 0.  1.
</event>
<event>
 7    1  0.2641103E-015  0.9000759E+02  0.7816164E-02  0.1186339E+00
        -11   -1    0    0    0    0  0.00000000000E+00  0.00000000000E+00  0.45593999997E+02  0.45594000000E+02  0.51100000000E-03 0.  1.
         11   -1    0    0    0    0 -0.00000000000E+00 -0.00000000000E+00 -0.45593999997E+02  0.45594000000E+02  0.51100000000E-03 0. -1.
    9900012    2    1    2    0    0 -0.10006285577E+01 -0.18623349132E+00 -0.59785961977E+00  0.90007586281E+02  0.89999845619E+02 0.  0.
        -12    1    1    2    0    0  0.10006285577E+01  0.18623349132E+00  0.59785961977E+00  0.11804137193E+01  0.00000000000E+00 0.  1.
         11    1    3    3    0    0 -0.22815050803E+02  0.28683924930E+02 -0.14415035377E+02  0.39383846152E+02  0.51100000000E-03 0. -1.
        -11    1    3    3    0    0  0.18254299843E+01 -0.39792180332E+00 -0.88875515165E+01  0.90818009562E+01  0.51100000000E-03 0.  1.
        -12    1    3    3    0    0  0.19988992261E+02 -0.28472236618E+02  0.22704727273E+02  0.41541939173E+02  0.00000000000E+00 0.  1.
</event>
<event>
 7    1  0.2641103E-015  0.9000776E+02  0.7816164E-02  0.1186339E+00
        -11   -1    0    0    0    0  0.00000000000E+00  0.00000000000E+00  0.45593999997E+02  0.45594000000E+02  0.51100000000E-03 0.  1.
         11   -1    0    0    0    0 -0.00000000000E+00 -0.00000000000E+00 -0.45593999997E+02  0.45594000000E+02  0.51100000000E-03 0. -1.
    9900012    2    1    2    0    0  0.47494812902E+00  0.10716852903E+01  0.13741287001E+00  0.90007759608E+02  0.90000021235E+02 0.  0.
        -12    1    1    2    0    0 -0.47494812902E+00 -0.10716852903E+01 -0.13741287001E+00  0.11802403922E+01  0.00000000000E+00 0.  1.
         11    1    3    3    0    0 -0.34663646729E+01  0.54660964192E+01 -0.15970766080E+02  0.17232506015E+02  0.51100000000E-03 0. -1.
        -11    1    3    3    0    0  0.89176904062E+01  0.27772610631E+02  0.25663788402E+02  0.38851938676E+02  0.51100000000E-03 0.  1.
         12    1    3    3    0    0 -0.49763776043E+01 -0.32167021760E+02 -0.95556094518E+01  0.33923314917E+02  0.00000000000E+00 0. -1.
</event>
<event>
 7    1  0.2641103E-015  0.9000776E+02  0.7816164E-02  0.1186339E+00
        -11   -1    0    0    0    0  0.00000000000E+00  0.00000000000E+00  0.45593999997E+02  0.45594000000E+02  0.51100000000E-03 0. -1.
         11   -1    0    0    0    0 -0.00000000000E+00 -0.00000000000E+00 -0.45593999997E+02  0.45594000000E+02  0.51100000000E-03 0.  1.
    9900012    2    1    2    0    0 -0.11794860512E+01 -0.34980341753E-01 -0.23584451195E-01  0.90007759687E+02  0.90000021315E+02 0.  0.
        -12    1    1    2    0    0  0.11794860512E+01  0.34980341753E-01  0.23584451195E-01  0.11802403127E+01  0.00000000000E+00 0.  1.
         11    1    3    3    0    0  0.96831007811E+00  0.96609216094E+01  0.47877630935E+01  0.10825604207E+02  0.51100000000E-03 0. -1.
        -11    1    3    3    0    0  0.65301782218E+01  0.33462040066E+02 -0.80850922455E+01  0.35038836594E+02  0.51100000000E-03 0.  1.
         12    1    3    3    0    0 -0.86779743511E+01 -0.43157942017E+02  0.32737447008E+01  0.44143318887E+02  0.00000000000E+00 0. -1.
</event>
<event>
 7    1  0.2641103E-015  0.9000771E+02  0.7816164E-02  0.1186339E+00
        -11   -1    0    0    0    0  0.00000000000E+00  0.00000000000E+00  0.45593999997E+02  0.45594000000E+02  0.51100000000E-03 0.  1.
         11   -1    0    0    0    0 -0.00000000000E+00 -0.00000000000E+00 -0.45593999997E+02  0.45594000000E+02  0.51100000000E-03 0. -1.
    9900012    2    1    2    0    0  0.53593046006E+00  0.79009655554E+00 -0.69398056144E+00  0.90007710610E+02  0.89999971590E+02 0.  0.
        -12    1    1    2    0    0 -0.53593046006E+00 -0.79009655554E+00  0.69398056144E+00  0.11802893903E+01  0.00000000000E+00 0.  1.
         11    1    3    3    0    0 -0.18726289901E+01 -0.10871755135E+02 -0.33296206225E+02  0.35076190618E+02  0.51100000000E-03 0. -1.
        -11    1    3    3    0    0 -0.58505811403E+01  0.56384105920E+01 -0.89804980207E+01  0.12110752191E+02  0.51100000000E-03 0.  1.
        -12    1    3    3    0    0  0.82591405904E+01  0.60234410986E+01  0.41582723684E+02  0.42820767800E+02  0.00000000000E+00 0.  1.
</event>
<event>
 7    1  0.2641103E-015  0.9000781E+02  0.7816164E-02  0.1186339E+00
        -11   -1    0    0    0    0  0.00000000000E+00  0.00000000000E+00  0.45593999997E+02  0.45594000000E+02  0.51100000000E-03 0.  1.
         11   -1    0    0    0    0 -0.00000000000E+00 -0.00000000000E+00 -0.45593999997E+02  0.45594000000E+02  0.51100000000E-03 0. -1.
    9900012    2    1    2    0    0  0.10927943170E+01  0.11507007867E+00  0.43059287816E+00  0.90007809012E+02  0.90000071291E+02 0.  0.
        -12    1    1    2    0    0 -0.10927943170E+01 -0.11507007867E+00 -0.43059287816E+00  0.11801909883E+01  0.00000000000E+00 0.  1.
         11    1    3    3    0    0  0.21331262948E+02 -0.21737420129E+02  0.18337767199E+02  0.35550132474E+02  0.51100000000E-03 0. -1.
        -11    1    3    3    0    0  0.13520161339E+01 -0.10891045139E+02 -0.91078870230E+01  0.14261711613E+02  0.51100000000E-03 0.  1.
        -12    1    3    3    0    0 -0.21590484765E+02  0.32743535346E+02 -0.87992872975E+01  0.40195964925E+02  0.00000000000E+00 0.  1.
</event>
<event>
 7    1  0.2641103E-015  0.9000768E+02  0.7816164E-02  0.1186339E+00
        -11   -1    0    0    0    0  0.00000000000E+00  0.00000000000E+00  0.45593999997E+02  0.45594000000E+02  0.51100000000E-03 0. -1.
         11   -1    0    0    0    0 -0.00000000000E+00 -0.00000000000E+00 -0.45593999997E+02  0.45594000000E+02  0.51100000000E-03 0.  1.
    9900012    2    1    2    0    0 -0.33795038731E+00  0.67707281357E+00  0.90582574902E+00  0.90007678710E+02  0.89999939269E+02 0.  0.
        -12    1    1    2    0    0  0.33795038731E+00 -0.67707281357E+00 -0.90582574902E+00  0.11803212896E+01  0.00000000000E+00 0.  1.
         11    1    3    3    0    0  0.81367749900E+01  0.48986059602E+01  0.12870883160E+01  0.95843645687E+01  0.51100000000E-03 0. -1.
        -11    1    3    3    0    0  0.25486387767E+01 -0.41404996943E+02 -0.26990375722E+01  0.41571073303E+02  0.51100000000E-03 0.  1.
         12    1    3    3    0    0 -0.11023364154E+02  0.37183463797E+02  0.23177750052E+01  0.38852240839E+02  0.00000000000E+00 0. -1.
</event>
<event>
 7    1  0.2641103E-015  0.9000774E+02  0.7816164E-02  0.1186339E+00
        -11   -1    0    0    0    0  0.00000000000E+00  0.00000000000E+00  0.45593999997E+02  0.45594000000E+02  0.51100000000E-03 0. -1.
         11   -1    0    0    0    0 -0.00000000000E+00 -0.00000000000E+00 -0.45593999997E+02  0.45594000000E+02  0.51100000000E-03 0.  1.
    9900012    2    1    2    0    0 -0.11624989885E+01 -0.24808178245E-01 -0.20245518915E+00  0.90007742635E+02  0.90000004038E+02 0.  0.
        -12    1    1    2    0    0  0.11624989885E+01  0.24808178245E-01  0.20245518915E+00  0.11802573650E+01  0.00000000000E+00 0.  1.
         11    1    3    3    0    0 -0.13582229807E+01 -0.96107758589E+01 -0.39417346839E+01  0.10476118310E+02  0.51100000000E-03 0. -1.
        -11    1    3    3    0    0  0.12669134312E+01 -0.23661077086E+02 -0.25810621362E+02  0.35037691332E+02  0.51100000000E-03 0.  1.
         12    1    3    3    0    0 -0.10711894390E+01  0.33247044767E+02  0.29549900856E+02  0.44493932993E+02  0.00000000000E+00 0. -1.
</event>
<event>
 7    1  0.2641103E-015  0.9000786E+02  0.7816164E-02  0.1186339E+00
        -11   -1    0    0    0    0  0.00000000000E+00  0.00000000000E+00  0.45593999997E+02  0.45594000000E+02  0.51100000000E-03 0.  1.
         11   -1    0    0    0    0 -0.00000000000E+00 -0.00000000000E+00 -0.45593999997E+02  0.45594000000E+02  0.51100000000E-03 0. -1.
    9900012    2    1    2    0    0  0.34260855316E+00 -0.89130606821E+00  0.69348592992E+00  0.90007860236E+02  0.90000123191E+02 0.  0.
        -12    1    1    2    0    0 -0.34260855316E+00  0.89130606821E+00 -0.69348592992E+00  0.11801397641E+01  0.00000000000E+00 0.  1.
         11    1    3    3    0    0 -0.47208532367E+01  0.42037285644E+01  0.46589646998E+01  0.78526264053E+01  0.51100000000E-03 0. -1.
        -11    1    3    3    0    0 -0.75502252705E+01  0.28353416869E+01  0.37362731810E+02  0.38223275536E+02  0.51100000000E-03 0.  1.
         12    1    3    3    0    0  0.12613687060E+02 -0.79303763196E+01 -0.41328210580E+02  0.43931958294E+02  0.00000000000E+00 0. -1.
</event>
<event>
 7    1  0.2641103E-015  0.9000772E+02  0.7816164E-02  0.1186339E+00
        -11   -1    0    0    0    0  0.00000000000E+00  0.00000000000E+00  0.45593999997E+02  0.45594000000E+02  0.51100000000E-03 0.  1.
         11   -1    0    0    0    0 -0.00000000000E+00 -0.00000000000E+00 -0.45593999997E+02  0.45594000000E+02  0.51100000000E-03 0. -1.
    9900012    2    1    2    0    0  0.58609501591E+00  0.10242810636E+01 -0.19781099456E-01  0.90007724457E+02  0.89999985620E+02 0.  0.
        -12    1    1    2    0    0 -0.58609501591E+00 -0.10242810636E+01  0.19781099456E-01  0.11802755428E+01  0.00000000000E+00 0.  1.
         11    1    3    3    0    0  0.30536906454E+01  0.16695927065E+01  0.61363570606E+01  0.70546044963E+01  0.51100000000E-03 0. -1.
        -11    1    3    3    0    0 -0.21926341794E+02 -0.57942629630E+01  0.32347469211E+02  0.39505654182E+02  0.51100000000E-03 0.  1.
         12    1    3    3    0    0  0.19458746165E+02  0.51489513201E+01 -0.38503607371E+02  0.43447465779E+02  0.00000000000E+00 0. -1.
</event>
<event>
 7    1  0.3240794E-015  0.9000779E+02  0.7816164E-02  0.1186339E+00
        -11   -1    0    0    0    0  0.00000000000E+00  0.00000000000E+00  0.45593999997E+02  0.45594000000E+02  0.51100000000E-03 0.  1.
         11   -1    0    0    0    0 -0.00000000000E+00 -0.00000000000E+00 -0.45593999997E+02  0.45594000000E+02  0.51100000000E-03 0. -1.
    9900012    2    1    2    0    0  0.36783469384E+00 -0.11060293726E+01 -0.18517956125E+00  0.90007790356E+02  0.90000052388E+02 0.  0.
        -12    1    1    2    0    0 -0.36783469384E+00  0.11060293726E+01  0.18517956125E+00  0.11802096445E+01  0.00000000000E+00 0.  1.
         11    1    3    3    0    0  0.42661824470E+01 -0.75324716683E+01  0.39524877829E+01  0.95163334346E+01  0.51100000000E-03 0. -1.
        -11    1    3    3    0    0 -0.11852217601E+02 -0.12008521745E+02  0.33682608553E+02  0.37672241448E+02  0.51100000000E-03 0.  1.
         12    1    3    3    0    0  0.79538698476E+01  0.18434964040E+02 -0.37820275897E+02  0.42819215472E+02  0.00000000000E+00 0. -1.
</event>
<event>
 7    1  0.2641103E-015  0.9000761E+02  0.7816164E-02  0.1186339E+00
        -11   -1    0    0    0    0  0.00000000000E+00  0.00000000000E+00  0.45593999997E+02  0.45594000000E+02  0.51100000000E-03 0. -1.
         11   -1    0    0    0    0 -0.00000000000E+00 -0.00000000000E+00 -0.45593999997E+02  0.45594000000E+02  0.51100000000E-03 0.  1.
    9900012    2    1    2    0    0  0.81578932175E+00  0.12216786735E+00  0.84432847893E+00  0.90007606936E+02  0.89999866547E+02 0.  0.
        -12    1    1    2    0    0 -0.81578932175E+00 -0.12216786735E+00 -0.84432847893E+00  0.11803930640E+01  0.00000000000E+00 0.  1.
         11    1    3    3    0    0 -0.25363777775E+02 -0.13492942589E+02  0.22236492328E+02  0.36329634103E+02  0.51100000000E-03 0. -1.
        -11    1    3    3    0    0 -0.55679277352E+01 -0.22345152674E+01  0.62757132891E+01  0.86821342591E+01  0.51100000000E-03 0.  1.
        -12    1    3    3    0    0  0.31747494832E+02  0.15849625723E+02 -0.27667877138E+02  0.44995838574E+02  0.00000000000E+00 0.  1.
</event>
<event>
 7    1  0.2641103E-015  0.9000769E+02  0.7816164E-02  0.1186339E+00
        -11   -1    0    0    0    0  0.00000000000E+00  0.00000000000E+00  0.45593999997E+02  0.45594000000E+02  0.51100000000E-03 0. -1.
         11   -1    0    0    0    0 -0.00000000000E+00 -0.00000000000E+00 -0.45593999997E+02  0.45594000000E+02  0.51100000000E-03 0.  1.
    9900012    2    1    2    0    0  0.24699503726E+00 -0.74413600385E+00  0.88225745200E+00  0.90007693619E+02  0.89999954375E+02 0.  0.
        -12    1    1    2    0    0 -0.24699503726E+00  0.74413600385E+00 -0.88225745200E+00  0.11803063807E+01  0.00000000000E+00 0.  1.
         11    1    3    3    0    0  0.84305043199E+01 -0.29093813759E+02  0.28899878226E+02  0.41865574926E+02  0.51100000000E-03 0. -1.
        -11    1    3    3    0    0  0.72502403066E+01  0.45312977932E+00 -0.54588261735E+01  0.90868088212E+01  0.51100000000E-03 0.  1.
        -12    1    3    3    0    0 -0.15433749589E+02  0.27896547976E+02 -0.22558794601E+02  0.39055309872E+02  0.00000000000E+00 0.  1.
</event>
<event>
 7    1  0.2641103E-015  0.9000777E+02  0.7816164E-02  0.1186339E+00
        -11   -1    0    0    0    0  0.00000000000E+00  0.00000000000E+00  0.45593999997E+02  0.45594000000E+02  0.51100000000E-03 0.  1.
         11   -1    0    0    0    0 -0.00000000000E+00 -0.00000000000E+00 -0.45593999997E+02  0.45594000000E+02  0.51100000000E-03 0. -1.
    9900012    2    1    2    0    0 -0.24109803221E+00 -0.47326684780E+00 -0.10539581616E+01  0.90007772235E+02  0.90000034029E+02 0.  0.
        -12    1    1    2    0    0  0.24109803221E+00  0.47326684780E+00  0.10539581616E+01  0.11802277648E+01  0.00000000000E+00 0.  1.
         11    1    3    3    0    0  0.35178047036E+02  0.22162350984E+02  0.45970950174E+00  0.41579756222E+02  0.51100000000E-03 0. -1.
        -11    1    3    3    0    0  0.18502233905E+01 -0.79047391029E+01  0.14368495662E+01  0.82445596496E+01  0.51100000000E-03 0.  1.
        -12    1    3    3    0    0 -0.37269368458E+02 -0.14730878729E+02 -0.29505172295E+01  0.40183456364E+02  0.00000000000E+00 0.  1.
</event>
<event>
 7    1  0.2641103E-015  0.9000766E+02  0.7816164E-02  0.1186339E+00
        -11   -1    0    0    0    0  0.00000000000E+00  0.00000000000E+00  0.45593999997E+02  0.45594000000E+02  0.51100000000E-03 0.  1.
         11   -1    0    0    0    0 -0.00000000000E+00 -0.00000000000E+00 -0.45593999997E+02  0.45594000000E+02  0.51100000000E-03 0. -1.
    9900012    2    1    2    0    0 -0.62709333454E+00 -0.99295282417E+00 -0.11834897931E+00  0.90007657744E+02  0.89999918026E+02 0.  0.
        -12    1    1    2    0    0  0.62709333454E+00  0.99295282417E+00  0.11834897931E+00  0.11803422564E+01  0.00000000000E+00 0.  1.
         11    1    3    3    0    0  0.30455834770E+02  0.72391560541E+01 -0.41615197665E+01  0.31579764074E+02  0.51100000000E-03 0. -1.
        -11    1    3    3    0    0  0.55811515888E+01 -0.39044129870E+01 -0.15300879296E+02  0.16748450714E+02  0.51100000000E-03 0.  1.
        -12    1    3    3    0    0 -0.36664079694E+02 -0.43276958913E+01  0.19344050083E+02  0.41679442956E+02  0.00000000000E+00 0.  1.
</event>
<event>
 7    1  0.2641103E-015  0.9000733E+02  0.7816164E-02  0.1186340E+00
        -11   -1    0    0    0    0  0.00000000000E+00  0.00000000000E+00  0.45593999997E+02  0.45594000000E+02  0.51100000000E-03 0. -1.
         11   -1    0    0    0    0 -0.00000000000E+00 -0.00000000000E+00 -0.45593999997E+02  0.45594000000E+02  0.51100000000E-03 0.  1.
    9900012    2    1    2    0    0 -0.35465776527E+00  0.21110124858E-01  0.11259431162E+01  0.90007332533E+02  0.89999588521E+02 0.  0.
        -12    1    1    2    0    0  0.35465776527E+00 -0.21110124858E-01 -0.11259431162E+01  0.11806674675E+01  0.00000000000E+00 0.  1.
         11    1    3    3    0    0  0.61531478665E+01  0.31153844470E+02  0.23289041977E+02  0.39380232737E+02  0.51100000000E-03 0. -1.
        -11    1    3    3    0    0 -0.88592814085E+01 -0.59516578533E+01  0.64252239477E+01  0.12457632252E+02  0.51100000000E-03 0.  1.
        -12    1    3    3    0    0  0.23514757768E+01 -0.25181076492E+02 -0.28588322808E+02  0.38169467544E+02  0.00000000000E+00 0.  1.
</event>
<event>
 7    1  0.2641103E-015  0.9000786E+02  0.7816164E-02  0.1186339E+00
        -11   -1    0    0    0    0  0.00000000000E+00  0.00000000000E+00  0.45593999997E+02  0.45594000000E+02  0.51100000000E-03 0. -1.
         11   -1    0    0    0    0 -0.00000000000E+00 -0.00000000000E+00 -0.45593999997E+02  0.45594000000E+02  0.51100000000E-03 0.  1.
    9900012    2    1    2    0    0 -0.10625608720E+01  0.49015292473E+00 -0.15314997224E+00  0.90007855767E+02  0.90000118663E+02 0.  0.
        -12    1    1    2    0    0  0.10625608720E+01 -0.49015292473E+00  0.15314997224E+00  0.11801442329E+01  0.00000000000E+00 0.  1.
         11    1    3    3    0    0  0.69205684775E+01  0.56844633904E+01 -0.61799671510E+01  0.10881148209E+02  0.51100000000E-03 0. -1.
        -11    1    3    3    0    0  0.19999586519E+02 -0.62119789890E+01 -0.28060056381E+02  0.35013410406E+02  0.51100000000E-03 0.  1.
         12    1    3    3    0    0 -0.27982715869E+02  0.10176685234E+01  0.34086873560E+02  0.44113297153E+02  0.00000000000E+00 0. -1.
</event>
<event>
 7    1  0.2641103E-015  0.9000773E+02  0.7816164E-02  0.1186339E+00
        -11   -1    0    0    0    0  0.00000000000E+00  0.00000000000E+00  0.45593999997E+02  0.45594000000E+02  0.51100000000E-03 0. -1.
         11   -1    0    0    0    0 -0.00000000000E+00 -0.00000000000E+00 -0.45593999997E+02  0.45594000000E+02  0.51100000000E-03 0.  1.
    9900012    2    1    2    0    0 -0.29476064169E+00  0.56304341764E+00  0.99455584146E+00  0.90007727554E+02  0.89999988757E+02 0.  0.
        -12    1    1    2    0    0  0.29476064169E+00 -0.56304341764E+00 -0.99455584146E+00  0.11802724464E+01  0.00000000000E+00 0.  1.
         11    1    3    3    0    0  0.16059980688E+02  0.26549076044E+02  0.15831895865E+02  0.34834255345E+02  0.51100000000E-03 0. -1.
        -11    1    3    3    0    0  0.69325697226E+01  0.17065961077E+00  0.10049838404E+02  0.12210196553E+02  0.51100000000E-03 0.  1.
        -12    1    3    3    0    0 -0.23287311053E+02 -0.26156692237E+02 -0.24887178428E+02  0.42963275655E+02  0.00000000000E+00 0.  1.
</event>
<event>
 7    1  0.2641103E-015  0.9000770E+02  0.7816164E-02  0.1186339E+00
        -11   -1    0    0    0    0  0.00000000000E+00  0.00000000000E+00  0.45593999997E+02  0.45594000000E+02  0.51100000000E-03 0.  1.
         11   -1    0    0    0    0 -0.00000000000E+00 -0.00000000000E+00 -0.45593999997E+02  0.45594000000E+02  0.51100000000E-03 0. -1.
    9900012    2    1    2    0    0 -0.15401485330E+00 -0.10269140149E+01 -0.56109560240E+00  0.90007702900E+02  0.89999963778E+02 0.  0.
        -12    1    1    2    0    0  0.15401485330E+00  0.10269140149E+01  0.56109560240E+00  0.11802970999E+01  0.00000000000E+00 0.  1.
         11    1    3    3    0    0  0.30236747349E+01 -0.40800123957E+00 -0.88314547812E+01  0.93436431721E+01  0.51100000000E-03 0. -1.
        -11    1    3    3    0    0 -0.30774793422E+02 -0.98679544410E+01 -0.21667757942E+02  0.38909589686E+02  0.51100000000E-03 0.  1.
         12    1    3    3    0    0  0.27597103834E+02  0.92490416657E+01  0.29938117121E+02  0.41754470042E+02  0.00000000000E+00 0. -1.
</event>
<event>
 7    1  0.2641103E-015  0.9000760E+02  0.7816164E-02  0.1186339E+00
        -11   -1    0    0    0    0  0.00000000000E+00  0.00000000000E+00  0.45593999997E+02  0.45594000000E+02  0.51100000000E-03 0. -1.
         11   -1    0    0    0    0 -0.00000000000E+00 -0.00000000000E+00 -0.45593999997E+02  0.45594000000E+02  0.51100000000E-03 0.  1.
    9900012    2    1    2    0    0  0.86387881274E+00 -0.41304414562E+00 -0.69026227678E+00  0.90007595798E+02  0.89999855262E+02 0.  0.
        -12    1    1    2    0    0 -0.86387881274E+00  0.41304414562E+00  0.69026227678E+00  0.11804042020E+01  0.00000000000E+00 0.  1.
         11    1    3    3    0    0  0.21050412846E+01  0.18355518720E+01 -0.97470804487E+00  0.29581253386E+01  0.51100000000E-03 0. -1.
        -11    1    3    3    0    0  0.40692734092E+02  0.14442716806E+01 -0.13268016366E+02  0.42825515608E+02  0.51100000000E-03 0.  1.
         12    1    3    3    0    0 -0.41933896563E+02 -0.36928676983E+01  0.13552462134E+02  0.44223954852E+02  0.00000000000E+00 0. -1.
</event>
<event>
 7    1  0.2955973E-015  0.9000791E+02  0.7816164E-02  0.1186339E+00
        -11   -1    0    0    0    0  0.00000000000E+00  0.00000000000E+00  0.45593999997E+02  0.45594000000E+02  0.51100000000E-03 0. -1.
         11   -1    0    0    0    0 -0.00000000000E+00 -0.00000000000E+00 -0.45593999997E+02  0.45594000000E+02  0.51100000000E-03 0.  1.
    9900012    2    1    2    0    0  0.64047543072E-01 -0.11176312037E+01  0.37337428202E+00  0.90007911042E+02  0.90000174667E+02 0.  0.
        -12    1    1    2    0    0 -0.64047543072E-01  0.11176312037E+01 -0.37337428202E+00  0.11800889584E+01  0.00000000000E+00 0.  1.
         11    1    3    3    0    0  0.35289169199E+01 -0.89295720212E+01 -0.22536863523E+01  0.98625358577E+01  0.51100000000E-03 0. -1.
        -11    1    3    3    0    0 -0.27991207358E+02 -0.21100917637E+02 -0.15250713451E+02  0.38227485864E+02  0.51100000000E-03 0.  1.
         12    1    3    3    0    0  0.24526337981E+02  0.28912858454E+02  0.17877774085E+02  0.41917889320E+02  0.00000000000E+00 0. -1.
</event>
<event>
 7    1  0.2641103E-015  0.9000764E+02  0.7816164E-02  0.1186339E+00
        -11   -1    0    0    0    0  0.00000000000E+00  0.00000000000E+00  0.45593999997E+02  0.45594000000E+02  0.51100000000E-03 0.  1.
         11   -1    0    0    0    0 -0.00000000000E+00 -0.00000000000E+00 -0.45593999997E+02  0.45594000000E+02  0.51100000000E-03 0. -1.
    9900012    2    1    2    0    0 -0.37129389302E+00 -0.36525694896E+00 -0.10592360884E+01  0.90007638663E+02  0.89999898694E+02 0.  0.
        -12    1    1    2    0    0  0.37129389302E+00  0.36525694896E+00  0.10592360884E+01  0.11803613365E+01  0.00000000000E+00 0.  1.
         11    1    3    3    0    0 -0.31585509087E+02 -0.22112533767E+02 -0.52362638946E+01  0.38910499788E+02  0.51100000000E-03 0. -1.
        -11    1    3    3    0    0  0.46239105848E+01 -0.83283000295E+01 -0.36418509773E+01  0.10198245402E+02  0.51100000000E-03 0.  1.
        -12    1    3    3    0    0  0.26590304609E+02  0.30075576848E+02  0.78188787834E+01  0.40898893474E+02  0.00000000000E+00 0.  1.
</event>
<event>
 7    1  0.2641103E-015  0.9000778E+02  0.7816164E-02  0.1186339E+00
        -11   -1    0    0    0    0  0.00000000000E+00  0.00000000000E+00  0.45593999997E+02  0.45594000000E+02  0.51100000000E-03 0.  1.
         11   -1    0    0    0    0 -0.00000000000E+00 -0.00000000000E+00 -0.45593999997E+02  0.45594000000E+02  0.51100000000E-03 0. -1.
    9900012    2    1    2    0    0 -0.21201608046E+00 -0.11609588348E+01 -0.12282108171E-01  0.90007776680E+02  0.90000038532E+02 0.  0.
        -12    1    1    2    0    0  0.21201608046E+00  0.11609588348E+01  0.12282108171E-01  0.11802233198E+01  0.00000000000E+00 0.  1.
         11    1    3    3    0    0 -0.68205150883E+01 -0.28104008518E+02 -0.19256788515E+02  0.34744476180E+02  0.51100000000E-03 0. -1.
        -11    1    3    3    0    0 -0.31663733179E+01  0.80897653199E+01 -0.13607936417E+02  0.16144539532E+02  0.51100000000E-03 0.  1.
        -12    1    3    3    0    0  0.97748723257E+01  0.18853284363E+02  0.32852442823E+02  0.39118760969E+02  0.00000000000E+00 0.  1.
</event>
<event>
 7    1  0.2641103E-015  0.9000766E+02  0.7816164E-02  0.1186339E+00
        -11   -1    0    0    0    0  0.00000000000E+00  0.00000000000E+00  0.45593999997E+02  0.45594000000E+02  0.51100000000E-03 0.  1.
         11   -1    0    0    0    0 -0.00000000000E+00 -0.00000000000E+00 -0.45593999997E+02  0.45594000000E+02  0.51100000000E-03 0. -1.
    9900012    2    1    2    0    0 -0.20336176436E+00 -0.90017658005E+00 -0.73588352063E+00  0.90007661727E+02  0.89999922062E+02 0.  0.
        -12    1    1    2    0    0  0.20336176436E+00  0.90017658005E+00  0.73588352063E+00  0.11803382729E+01  0.00000000000E+00 0.  1.
         11    1    3    3    0    0 -0.23384095396E+02 -0.17457435609E+02 -0.28246155487E+02  0.40613092416E+02  0.51100000000E-03 0. -1.
        -11    1    3    3    0    0 -0.42801928481E+01 -0.45810916644E+01  0.55087665371E+01  0.83458349298E+01  0.51100000000E-03 0.  1.
        -12    1    3    3    0    0  0.27460926480E+02  0.21138350693E+02  0.22001505429E+02  0.41048734381E+02  0.00000000000E+00 0.  1.
</event>
<event>
 7    1  0.2641103E-015  0.9000778E+02  0.7816164E-02  0.1186339E+00
        -11   -1    0    0    0    0  0.00000000000E+00  0.00000000000E+00  0.45593999997E+02  0.45594000000E+02  0.51100000000E-03 0. -1.
         11   -1    0    0    0    0 -0.00000000000E+00 -0.00000000000E+00 -0.45593999997E+02  0.45594000000E+02  0.51100000000E-03 0.  1.
    9900012    2    1    2    0    0  0.97135584149E+00 -0.62863135789E+00  0.23284912985E+00  0.90007776177E+02  0.90000038023E+02 0.  0.
        -12    1    1    2    0    0 -0.97135584149E+00  0.62863135789E+00 -0.23284912985E+00  0.11802238229E+01  0.00000000000E+00 0.  1.
         11    1    3    3    0    0 -0.84201920886E+01  0.17354001735E+01  0.20992625280E+01  0.88497543465E+01  0.51100000000E-03 0. -1.
        -11    1    3    3    0    0 -0.13488101513E+02  0.26917183609E+02 -0.23469860976E+02  0.38174573086E+02  0.51100000000E-03 0.  1.
         12    1    3    3    0    0  0.22879649443E+02 -0.29281215140E+02  0.21603447577E+02  0.42983448744E+02  0.00000000000E+00 0. -1.
</event>
<event>
 7    1  0.2641103E-015  0.9000771E+02  0.7816164E-02  0.1186339E+00
        -11   -1    0    0    0    0  0.00000000000E+00  0.00000000000E+00  0.45593999997E+02  0.45594000000E+02  0.51100000000E-03 0. -1.
         11   -1    0    0    0    0 -0.00000000000E+00 -0.00000000000E+00 -0.45593999997E+02  0.45594000000E+02  0.51100000000E-03 0.  1.
    9900012    2    1    2    0    0  0.53677195726E-01  0.47683853380E+00  0.10783453914E+01  0.90007709776E+02  0.89999970745E+02 0.  0.
        -12    1    1    2    0    0 -0.53677195726E-01 -0.47683853380E+00 -0.10783453914E+01  0.11802902236E+01  0.00000000000E+00 0.  1.
         11    1    3    3    0    0  0.26595566879E+01  0.68253068522E+01 -0.34820890311E+01  0.81106719626E+01  0.51100000000E-03 0. -1.
        -11    1    3    3    0    0  0.28524766879E+02  0.34111238783E+01 -0.24841162081E+02  0.37978696995E+02  0.51100000000E-03 0.  1.
         12    1    3    3    0    0 -0.31130646371E+02 -0.97595921967E+01  0.29401596503E+02  0.43918340819E+02  0.00000000000E+00 0. -1.
</event>
<event>
 7    1  0.2641103E-015  0.9000777E+02  0.7816164E-02  0.1186339E+00
        -11   -1    0    0    0    0  0.00000000000E+00  0.00000000000E+00  0.45593999997E+02  0.45594000000E+02  0.51100000000E-03 0.  1.
         11   -1    0    0    0    0 -0.00000000000E+00 -0.00000000000E+00 -0.45593999997E+02  0.45594000000E+02  0.51100000000E-03 0. -1.
    9900012    2    1    2    0    0  0.14623880980E+00 -0.24075674786E+00 -0.11461203835E+01  0.90007770559E+02  0.90000032330E+02 0.  0.
        -12    1    1    2    0    0 -0.14623880980E+00  0.24075674786E+00  0.11461203835E+01  0.11802294415E+01  0.00000000000E+00 0.  1.
         11    1    3    3    0    0 -0.75381964125E+01 -0.31951069510E+02 -0.54322121722E+01  0.33274677719E+02  0.51100000000E-03 0. -1.
        -11    1    3    3    0    0 -0.34369768473E+00 -0.11211095827E+02 -0.46846871867E+01  0.12155372970E+02  0.51100000000E-03 0.  1.
        -12    1    3    3    0    0  0.80281329070E+01  0.42921408589E+02  0.89707789754E+01  0.44577719869E+02  0.00000000000E+00 0.  1.
</event>
<event>
 7    1  0.2641103E-015  0.9000790E+02  0.7816164E-02  0.1186339E+00
        -11   -1    0    0    0    0  0.00000000000E+00  0.00000000000E+00  0.45593999997E+02  0.45594000000E+02  0.51100000000E-03 0.  1.
         11   -1    0    0    0    0 -0.00000000000E+00 -0.00000000000E+00 -0.45593999997E+02  0.45594000000E+02  0.51100000000E-03 0. -1.
    9900012    2    1    2    0    0  0.40843943243E+00 -0.10248230560E+01  0.41899683590E+00  0.90007896863E+02  0.90000160301E+02 0.  0.
        -12    1    1    2    0    0 -0.40843943243E+00  0.10248230560E+01 -0.41899683590E+00  0.11801031372E+01  0.00000000000E+00 0.  1.
         11    1    3    3    0    0 -0.76434634258E+01 -0.31893810895E+01  0.17469625783E-01  0.82822092659E+01  0.51100000000E-03 0. -1.
        -11    1    3    3    0    0 -0.23074368453E+02 -0.29387361125E+02 -0.10874712834E+01  0.37379487255E+02  0.51100000000E-03 0.  1.
         12    1    3    3    0    0  0.31126271311E+02  0.31551919158E+02  0.14889984936E+01  0.44346200342E+02  0.00000000000E+00 0. -1.
</event>
<event>
 7    1  0.2641103E-015  0.9000790E+02  0.7816164E-02  0.1186339E+00
        -11   -1    0    0    0    0  0.00000000000E+00  0.00000000000E+00  0.45593999997E+02  0.45594000000E+02  0.51100000000E-03 0.  1.
         11   -1    0    0    0    0 -0.00000000000E+00 -0.00000000000E+00 -0.45593999997E+02  0.45594000000E+02  0.51100000000E-03 0. -1.
    9900012    2    1    2    0    0 -0.83917189669E+00 -0.14023280383E+00  0.81777998131E+00  0.90007898814E+02  0.90000162278E+02 0.  0.
        -12    1    1    2    0    0  0.83917189669E+00  0.14023280383E+00 -0.81777998131E+00  0.11801011860E+01  0.00000000000E+00 0.  1.
         11    1    3    3    0    0  0.41688163232E+01 -0.28620721925E+01  0.90435244747E+01  0.10361265461E+02  0.51100000000E-03 0. -1.
        -11    1    3    3    0    0  0.11976650906E+02 -0.11971917300E+02  0.30496577897E+02  0.34882778479E+02  0.51100000000E-03 0.  1.
         12    1    3    3    0    0 -0.16984639125E+02  0.14693756688E+02 -0.38722322390E+02  0.44763854874E+02  0.00000000000E+00 0. -1.
</event>
<event>
 7    1  0.2641103E-015  0.9000760E+02  0.7816164E-02  0.1186339E+00
        -11   -1    0    0    0    0  0.00000000000E+00  0.00000000000E+00  0.45593999997E+02  0.45594000000E+02  0.51100000000E-03 0.  1.
         11   -1    0    0    0    0 -0.00000000000E+00 -0.00000000000E+00 -0.45593999997E+02  0.45594000000E+02  0.51100000000E-03 0. -1.
    9900012    2    1    2    0    0 -0.89865085451E+00  0.71189690599E+00 -0.28100614586E+00  0.90007603873E+02  0.89999863444E+02 0.  0.
        -12    1    1    2    0    0  0.89865085451E+00 -0.71189690599E+00  0.28100614586E+00  0.11803961272E+01  0.00000000000E+00 0.  1.
         11    1    3    3    0    0  0.41998409580E+01 -0.59772332664E+01 -0.45933411640E+01  0.86292968951E+01  0.51100000000E-03 0. -1.
        -11    1    3    3    0    0 -0.11480122536E+02 -0.87077747605E+01 -0.35448740242E+02  0.38265281127E+02  0.51100000000E-03 0.  1.
         12    1    3    3    0    0  0.63816307236E+01  0.15396904933E+02  0.39761075260E+02  0.43113025851E+02  0.00000000000E+00 0. -1.
</event>
<event>
 7    1  0.2641103E-015  0.9000789E+02  0.7816164E-02  0.1186339E+00
        -11   -1    0    0    0    0  0.00000000000E+00  0.00000000000E+00  0.45593999997E+02  0.45594000000E+02  0.51100000000E-03 0.  1.
         11   -1    0    0    0    0 -0.00000000000E+00 -0.00000000000E+00 -0.45593999997E+02  0.45594000000E+02  0.51100000000E-03 0. -1.
    9900012    2    1    2    0    0  0.10645484406E+01 -0.58564225612E-01 -0.50594165129E+00  0.90007885554E+02  0.90000148843E+02 0.  0.
        -12    1    1    2    0    0 -0.10645484406E+01  0.58564225612E-01  0.50594165129E+00  0.11801144459E+01  0.00000000000E+00 0.  1.
         11    1    3    3    0    0 -0.33012558355E+02 -0.10607025021E+02 -0.89844574631E+01  0.35819805486E+02  0.51100000000E-03 0. -1.
        -11    1    3    3    0    0  0.48561129194E+01 -0.98657215671E+01 -0.92572587664E+01  0.14373974219E+02  0.51100000000E-03 0.  1.
        -12    1    3    3    0    0  0.29220993876E+02  0.20414182362E+02  0.17735774578E+02  0.39814105848E+02  0.00000000000E+00 0.  1.
</event>
<event>
 7    1  0.2641103E-015  0.9000768E+02  0.7816164E-02  0.1186339E+00
        -11   -1    0    0    0    0  0.00000000000E+00  0.00000000000E+00  0.45593999997E+02  0.45594000000E+02  0.51100000000E-03 0. -1.
         11   -1    0    0    0    0 -0.00000000000E+00 -0.00000000000E+00 -0.45593999997E+02  0.45594000000E+02  0.51100000000E-03 0.  1.
    9900012    2    1    2    0    0  0.10619204651E+01 -0.50948019904E+00 -0.76811695920E-01  0.90007684286E+02  0.89999944919E+02 0.  0.
        -12    1    1    2    0    0 -0.10619204651E+01  0.50948019904E+00  0.76811695920E-01  0.11803157137E+01  0.00000000000E+00 0.  1.
         11    1    3    3    0    0 -0.43328345665E+01 -0.63830089481E+00  0.38677117904E+02  0.38924289757E+02  0.51100000000E-03 0. -1.
        -11    1    3    3    0    0 -0.19494992220E+01  0.90467736711E+01  0.13465716689E+01  0.93518937437E+01  0.51100000000E-03 0.  1.
        -12    1    3    3    0    0  0.73442542535E+01 -0.89179529753E+01 -0.40100501269E+02  0.41731500786E+02  0.00000000000E+00 0.  1.
</event>
<event>
 7    1  0.2641103E-015  0.9000772E+02  0.7816164E-02  0.1186339E+00
        -11   -1    0    0    0    0  0.00000000000E+00  0.00000000000E+00  0.45593999997E+02  0.45594000000E+02  0.51100000000E-03 0.  1.
         11   -1    0    0    0    0 -0.00000000000E+00 -0.00000000000E+00 -0.45593999997E+02  0.45594000000E+02  0.51100000000E-03 0. -1.
    9900012    2    1    2    0    0  0.10188043869E+01  0.13216145421E+00 -0.58105475216E+00  0.90007723061E+02  0.89999984205E+02 0.  0.
        -12    1    1    2    0    0 -0.10188043869E+01 -0.13216145421E+00  0.58105475216E+00  0.11802769394E+01  0.00000000000E+00 0.  1.
         11    1    3    3    0    0 -0.35019804058E+02  0.11979324106E+02 -0.13312813292E+02  0.39333470230E+02  0.51100000000E-03 0. -1.
        -11    1    3    3    0    0  0.34662985727E+01  0.93050916786E+01  0.44668725216E+00  0.99397930916E+01  0.51100000000E-03 0.  1.
        -12    1    3    3    0    0  0.32572309872E+02 -0.21152254330E+02  0.12285071288E+02  0.40734459739E+02  0.00000000000E+00 0.  1.
</event>
<event>
 7    1  0.2641103E-015  0.9000776E+02  0.7816164E-02  0.1186339E+00
        -11   -1    0    0    0    0  0.00000000000E+00  0.00000000000E+00  0.45593999997E+02  0.45594000000E+02  0.51100000000E-03 0. -1.
         11   -1    0    0    0    0 -0.00000000000E+00 -0.00000000000E+00 -0.45593999997E+02  0.45594000000E+02  0.51100000000E-03 0.  1.
    9900012    2    1    2    0    0 -0.90752069663E+00 -0.70981824703E+00  0.25600575020E+00  0.90007756507E+02  0.90000018093E+02 0.  0.
        -12    1    1    2    0    0  0.90752069663E+00  0.70981824703E+00 -0.25600575020E+00  0.11802434930E+01  0.00000000000E+00 0.  1.
         11    1    3    3    0    0  0.33319362911E+00  0.91979198782E+01 -0.81471233479E+00  0.92399407211E+01  0.51100000000E-03 0. -1.
        -11    1    3    3    0    0 -0.14761181348E+01  0.31291460952E+02 -0.17155817193E+02  0.35716334037E+02  0.51100000000E-03 0.  1.
         12    1    3    3    0    0  0.23540380902E+00 -0.41199199077E+02  0.18226535278E+02  0.45051481749E+02  0.00000000000E+00 0. -1.
</event>
<event>
 7    1  0.2641103E-015  0.9000778E+02  0.7816164E-02  0.1186339E+00
        -11   -1    0    0    0    0  0.00000000000E+00  0.00000000000E+00  0.45593999997E+02  0.45594000000E+02  0.51100000000E-03 0. -1.
         11   -1    0    0    0    0 -0.00000000000E+00 -0.00000000000E+00 -0.45593999997E+02  0.45594000000E+02  0.51100000000E-03 0.  1.
    9900012    2    1    2    0    0  0.98339157677E+00  0.65109537367E+00 -0.44047785276E-01  0.90007777823E+02  0.90000039691E+02 0.  0.
        -12    1    1    2    0    0 -0.98339157677E+00 -0.65109537367E+00  0.44047785276E-01  0.11802221767E+01  0.00000000000E+00 0.  1.
         11    1    3    3    0    0  0.25241483948E+02  0.25432588804E+02  0.21196382109E+02  0.41632147433E+02  0.51100000000E-03 0. -1.
        -11    1    3    3    0    0 -0.52768053299E-01  0.37747964186E+01 -0.76850211957E+01  0.85622090320E+01  0.51100000000E-03 0.  1.
        -12    1    3    3    0    0 -0.24205324318E+02 -0.28556289849E+02 -0.13555408699E+02  0.39813421358E+02  0.00000000000E+00 0.  1.
</event>
<event>
 7    1  0.2641103E-015  0.9000744E+02  0.7816164E-02  0.1186340E+00
        -11   -1    0    0    0    0  0.00000000000E+00  0.00000000000E+00  0.45593999997E+02  0.45594000000E+02  0.51100000000E-03 0. -1.
         11   -1    0    0    0    0 -0.00000000000E+00 -0.00000000000E+00 -0.45593999997E+02  0.45594000000E+02  0.51100000000E-03 0.  1.
    9900012    2    1    2    0    0 -0.16703954529E+00 -0.81439170144E+00  0.83820910706E+00  0.90007436338E+02  0.89999693697E+02 0.  0.
        -12    1    1    2    0    0  0.16703954529E+00  0.81439170144E+00 -0.83820910706E+00  0.11805636621E+01  0.00000000000E+00 0.  1.
         11    1    3    3    0    0 -0.11648731434E+02  0.22250822371E+02  0.27539868114E+02  0.37272461365E+02  0.51100000000E-03 0. -1.
        -11    1    3    3    0    0  0.43155840675E+01  0.33132048498E+01  0.73024136047E+01  0.91064173491E+01  0.51100000000E-03 0.  1.
        -12    1    3    3    0    0  0.71661078217E+01 -0.26378418922E+02 -0.34004072612E+02  0.43628557624E+02  0.00000000000E+00 0.  1.
</event>
<event>
 7    1  0.2641103E-015  0.9000792E+02  0.7816164E-02  0.1186339E+00
        -11   -1    0    0    0    0  0.00000000000E+00  0.00000000000E+00  0.45593999997E+02  0.45594000000E+02  0.51100000000E-03 0.  1.
         11   -1    0    0    0    0 -0.00000000000E+00 -0.00000000000E+00 -0.45593999997E+02  0.45594000000E+02  0.51100000000E-03 0. -1.
    9900012    2    1    2    0    0  0.11265739257E+01 -0.64619745848E-01  0.34530996920E+00  0.90007922250E+02  0.90000186023E+02 0.  0.
        -12    1    1    2    0    0 -0.11265739257E+01  0.64619745848E-01 -0.34530996920E+00  0.11800777501E+01  0.00000000000E+00 0.  1.
         11    1    3    3    0    0  0.62012681280E+01 -0.69775150275E+01  0.17508793760E+01  0.94977376888E+01  0.51100000000E-03 0. -1.
        -11    1    3    3    0    0  0.19030597122E+02  0.24182968132E+02  0.25883498420E+02  0.40211131111E+02  0.51100000000E-03 0.  1.
         12    1    3    3    0    0 -0.24105291325E+02 -0.17270072851E+02 -0.27289067827E+02  0.40299053450E+02  0.00000000000E+00 0. -1.
</event>
<event>
 7    1  0.2641103E-015  0.9000771E+02  0.7816164E-02  0.1186339E+00
        -11   -1    0    0    0    0  0.00000000000E+00  0.00000000000E+00  0.45593999997E+02  0.45594000000E+02  0.51100000000E-03 0.  1.
         11   -1    0    0    0    0 -0.00000000000E+00 -0.00000000000E+00 -0.45593999997E+02  0.45594000000E+02  0.51100000000E-03 0. -1.
    9900012    2    1    2    0    0 -0.19541720190E+00  0.11544265898E+01 -0.14900390968E+00  0.90007707325E+02  0.89999968261E+02 0.  0.
        -12    1    1    2    0    0  0.19541720190E+00 -0.11544265898E+01  0.14900390968E+00  0.11802926752E+01  0.00000000000E+00 0.  1.
         11    1    3    3    0    0  0.35058973104E+01 -0.11138919079E+02  0.26147734348E+01  0.11966782131E+02  0.51100000000E-03 0. -1.
        -11    1    3    3    0    0 -0.33119536555E+02  0.38725031806E+00  0.20265352081E+02  0.38829604166E+02  0.51100000000E-03 0.  1.
         12    1    3    3    0    0  0.29418222043E+02  0.11906095351E+02 -0.23029129425E+02  0.39211321028E+02  0.00000000000E+00 0. -1.
</event>
<event>
 7    1  0.2641103E-015  0.9000773E+02  0.7816164E-02  0.1186339E+00
        -11   -1    0    0    0    0  0.00000000000E+00  0.00000000000E+00  0.45593999997E+02  0.45594000000E+02  0.51100000000E-03 0. -1.
         11   -1    0    0    0    0 -0.00000000000E+00 -0.00000000000E+00 -0.45593999997E+02  0.45594000000E+02  0.51100000000E-03 0.  1.
    9900012    2    1    2    0    0 -0.71627788744E+00  0.81763966467E+00 -0.45983206850E+00  0.90007731317E+02  0.89999992570E+02 0.  0.
        -12    1    1    2    0    0  0.71627788744E+00 -0.81763966467E+00  0.45983206850E+00  0.11802686832E+01  0.00000000000E+00 0.  1.
         11    1    3    3    0    0 -0.97547511038E+01 -0.12577927163E+01  0.32406438306E+01  0.10355625733E+02  0.51100000000E-03 0. -1.
        -11    1    3    3    0    0 -0.34260787725E+02  0.15626536127E+00  0.70905814593E+01  0.34987173937E+02  0.51100000000E-03 0.  1.
         12    1    3    3    0    0  0.43299260942E+02  0.19191670197E+01 -0.10791057358E+02  0.44664931647E+02  0.00000000000E+00 0. -1.
</event>
<event>
 7    1  0.2641103E-015  0.9000770E+02  0.7816164E-02  0.1186339E+00
        -11   -1    0    0    0    0  0.00000000000E+00  0.00000000000E+00  0.45593999997E+02  0.45594000000E+02  0.51100000000E-03 0.  1.
         11   -1    0    0    0    0 -0.00000000000E+00 -0.00000000000E+00 -0.45593999997E+02  0.45594000000E+02  0.51100000000E-03 0. -1.
    9900012    2    1    2    0    0 -0.67559191373E+00 -0.24468887834E-01  0.96751762324E+00  0.90007697703E+02  0.89999958513E+02 0.  0.
        -12    1    1    2    0    0  0.67559191373E+00  0.24468887834E-01 -0.96751762324E+00  0.11803022967E+01  0.00000000000E+00 0.  1.
         11    1    3    3    0    0 -0.36002940997E+01  0.60126259559E+01  0.72560416038E+01  0.10087810888E+02  0.51100000000E-03 0. -1.
        -11    1    3    3    0    0 -0.16719737569E+02  0.19404536176E+02  0.24474943553E+02  0.35427510649E+02  0.51100000000E-03 0.  1.
         12    1    3    3    0    0  0.19644439755E+02 -0.25441631020E+02 -0.30763467534E+02  0.44492376167E+02  0.00000000000E+00 0. -1.
</event>
<event>
 7    1  0.2641103E-015  0.9000777E+02  0.7816164E-02  0.1186339E+00
        -11   -1    0    0    0    0  0.00000000000E+00  0.00000000000E+00  0.45593999997E+02  0.45594000000E+02  0.51100000000E-03 0. -1.
         11   -1    0    0    0    0 -0.00000000000E+00 -0.00000000000E+00 -0.45593999997E+02  0.45594000000E+02  0.51100000000E-03 0.  1.
    9900012    2    1    2    0    0 -0.25612822905E+00  0.16129105223E+00  0.11407611580E+01  0.90007765916E+02  0.90000027626E+02 0.  0.
        -12    1    1    2    0    0  0.25612822905E+00 -0.16129105223E+00 -0.11407611580E+01  0.11802340839E+01  0.00000000000E+00 0.  1.
         11    1    3    3    0    0 -0.83428396730E+01 -0.27632652143E+02  0.32766448616E+02  0.43666996615E+02  0.51100000000E-03 0. -1.
        -11    1    3    3    0    0 -0.76755059497E+00 -0.32604357996E+00 -0.93580739115E+01  0.93951575786E+01  0.51100000000E-03 0.  1.
        -12    1    3    3    0    0  0.88542620390E+01  0.28119986775E+02 -0.22267613546E+02  0.36945611722E+02  0.00000000000E+00 0.  1.
</event>
<event>
 7    1  0.2724088E-015  0.9000748E+02  0.7816164E-02  0.1186340E+00
        -11   -1    0    0    0    0  0.00000000000E+00  0.00000000000E+00  0.45593999997E+02  0.45594000000E+02  0.51100000000E-03 0.  1.
         11   -1    0    0    0    0 -0.00000000000E+00 -0.00000000000E+00 -0.45593999997E+02  0.45594000000E+02  0.51100000000E-03 0. -1.
    9900012    2    1    2    0    0 -0.11377196494E+01 -0.27967313604E+00  0.14494675444E+00  0.90007477817E+02  0.89999735724E+02 0.  0.
        -12    1    1    2    0    0  0.11377196494E+01  0.27967313604E+00 -0.14494675444E+00  0.11805221833E+01  0.00000000000E+00 0.  1.
         11    1    3    3    0    0  0.22449650761E+01  0.93683085477E+01  0.31877777269E+01  0.10147265658E+02  0.51100000000E-03 0. -1.
        -11    1    3    3    0    0  0.30504702799E+02 -0.24308930846E+01 -0.24418227342E+02  0.39149661057E+02  0.51100000000E-03 0.  1.
         12    1    3    3    0    0 -0.33887387524E+02 -0.72170885991E+01  0.21375396370E+02  0.40710551102E+02  0.00000000000E+00 0. -1.
</event>
<event>
 7    1  0.2641103E-015  0.9000745E+02  0.7816164E-02  0.1186340E+00
        -11   -1    0    0    0    0  0.00000000000E+00  0.00000000000E+00  0.45593999997E+02  0.45594000000E+02  0.51100000000E-03 0. -1.
         11   -1    0    0    0    0 -0.00000000000E+00 -0.00000000000E+00 -0.45593999997E+02  0.45594000000E+02  0.51100000000E-03 0.  1.
    9900012    2    1    2    0    0  0.94998883662E+00  0.35302453694E+00 -0.60546599021E+00  0.90007451747E+02  0.89999709309E+02 0.  0.
        -12    1    1    2    0    0 -0.94998883662E+00 -0.35302453694E+00  0.60546599021E+00  0.11805482534E+01  0.00000000000E+00 0.  1.
         11    1    3    3    0    0  0.83983712984E+01  0.13262332692E+01  0.35975275905E+01  0.92322120954E+01  0.51100000000E-03 0. -1.
        -11    1    3    3    0    0  0.12065600836E+02 -0.60255382712E+01 -0.38610404779E+02  0.40898034091E+02  0.51100000000E-03 0.  1.
         12    1    3    3    0    0 -0.19513983298E+02  0.50523295389E+01  0.34407411199E+02  0.39877205561E+02  0.00000000000E+00 0. -1.
</event>
<event>
 7    1  0.2641103E-015  0.9000779E+02  0.7816164E-02  0.1186339E+00
        -11   -1    0    0    0    0  0.00000000000E+00  0.00000000000E+00  0.45593999997E+02  0.45594000000E+02  0.51100000000E-03 0. -1.
         11   -1    0    0    0    0 -0.00000000000E+00 -0.00000000000E+00 -0.45593999997E+02  0.45594000000E+02  0.51100000000E-03 0.  1.
    9900012    2    1    2    0    0  0.30901268333E+00  0.60538703268E+00  0.96484161156E+00  0.90007787463E+02  0.90000049457E+02 0.  0.
        -12    1    1    2    0    0 -0.30901268333E+00 -0.60538703268E+00 -0.96484161156E+00  0.11802125373E+01  0.00000000000E+00 0.  1.
         11    1    3    3    0    0 -0.32330557050E+02  0.16332404531E+02 -0.18359955775E+02  0.40609116381E+02  0.51100000000E-03 0. -1.
        -11    1    3    3    0    0  0.85003597462E+01 -0.10951333330E+02 -0.50581509010E+01  0.14757123986E+02  0.51100000000E-03 0.  1.
        -12    1    3    3    0    0  0.24139209987E+02 -0.47756841682E+01  0.24382948287E+02  0.34641547096E+02  0.00000000000E+00 0.  1.
</event>
<event>
 7    1  0.2641103E-015  0.9000774E+02  0.7816164E-02  0.1186339E+00
        -11   -1    0    0    0    0  0.00000000000E+00  0.00000000000E+00  0.45593999997E+02  0.45594000000E+02  0.51100000000E-03 0. -1.
         11   -1    0    0    0    0 -0.00000000000E+00 -0.00000000000E+00 -0.45593999997E+02  0.45594000000E+02  0.51100000000E-03 0.  1.
    9900012    2    1    2    0    0  0.11261076848E+01 -0.26690311970E+00 -0.23161720565E+00  0.90007744806E+02  0.90000006237E+02 0.  0.
        -12    1    1    2    0    0 -0.11261076848E+01  0.26690311970E+00  0.23161720565E+00  0.11802551940E+01  0.00000000000E+00 0.  1.
         11    1    3    3    0    0 -0.23998262629E+02  0.24139515493E+02  0.23931606605E+02  0.41609549533E+02  0.51100000000E-03 0. -1.
        -11    1    3    3    0    0  0.37871014910E+01 -0.72537811952E+01  0.40114848025E+01  0.91132590171E+01  0.51100000000E-03 0.  1.
        -12    1    3    3    0    0  0.21337268822E+02 -0.17152637417E+02 -0.28174708613E+02  0.39284936256E+02  0.00000000000E+00 0.  1.
</event>
<event>
 7    1  0.2641103E-015  0.9000771E+02  0.7816164E-02  0.1186339E+00
        -11   -1    0    0    0    0  0.00000000000E+00  0.00000000000E+00  0.45593999997E+02  0.45594000000E+02  0.51100000000E-03 0.  1.
         11   -1    0    0    0    0 -0.00000000000E+00 -0.00000000000E+00 -0.45593999997E+02  0.45594000000E+02  0.51100000000E-03 0. -1.
    9900012    2    1    2    0    0 -0.79328759612E-01 -0.54354764297E+00 -0.10446787242E+01  0.90007707355E+02  0.89999968292E+02 0.  0.
        -12    1    1    2    0    0  0.79328759612E-01  0.54354764297E+00  0.10446787242E+01  0.11802926455E+01  0.00000000000E+00 0.  1.
         11    1    3    3    0    0 -0.97656490437E+01  0.19016751719E+02 -0.38075709366E+02  0.43666513385E+02  0.51100000000E-03 0. -1.
        -11    1    3    3    0    0  0.41110952619E+01  0.25595284672E+01  0.88122883757E+01  0.10055283034E+02  0.51100000000E-03 0.  1.
        -12    1    3    3    0    0  0.55752250222E+01 -0.22119827830E+02  0.28218742267E+02  0.36285910935E+02  0.00000000000E+00 0.  1.
</event>
<event>
 7    1  0.2641103E-015  0.9000772E+02  0.7816164E-02  0.1186339E+00
        -11   -1    0    0    0    0  0.00000000000E+00  0.00000000000E+00  0.45593999997E+02  0.45594000000E+02  0.51100000000E-03 0. -1.
         11   -1    0    0    0    0 -0.00000000000E+00 -0.00000000000E+00 -0.45593999997E+02  0.45594000000E+02  0.51100000000E-03 0.  1.
    9900012    2    1    2    0    0 -0.34257844333E+00 -0.48622499731E+00 -0.10194540756E+01  0.90007719800E+02  0.89999980902E+02 0.  0.
        -12    1    1    2    0    0  0.34257844333E+00  0.48622499731E+00  0.10194540756E+01  0.11802801998E+01  0.00000000000E+00 0.  1.
         11    1    3    3    0    0  0.38800840972E+02 -0.94292362030E+01 -0.92729787037E+01  0.40992729719E+02  0.51100000000E-03 0. -1.
        -11    1    3    3    0    0 -0.12204333694E+00  0.58127303435E+01  0.79724474797E+01  0.98672512738E+01  0.51100000000E-03 0.  1.
        -12    1    3    3    0    0 -0.39021376079E+02  0.31302808622E+01  0.28107714843E+00  0.39147738807E+02  0.00000000000E+00 0.  1.
</event>
<event>
 7    1  0.2641103E-015  0.9000775E+02  0.7816164E-02  0.1186339E+00
        -11   -1    0    0    0    0  0.00000000000E+00  0.00000000000E+00  0.45593999997E+02  0.45594000000E+02  0.51100000000E-03 0. -1.
         11   -1    0    0    0    0 -0.00000000000E+00 -0.00000000000E+00 -0.45593999997E+02  0.45594000000E+02  0.51100000000E-03 0.  1.
    9900012    2    1    2    0    0 -0.15608164002E+00 -0.95676379921E+00  0.67322049028E+00  0.90007752452E+02  0.90000013984E+02 0.  0.
        -12    1    1    2    0    0  0.15608164002E+00  0.95676379921E+00 -0.67322049028E+00  0.11802475479E+01  0.00000000000E+00 0.  1.
         11    1    3    3    0    0 -0.17970753663E+02 -0.27212886427E+02  0.21923961490E+02  0.39295664680E+02  0.51100000000E-03 0. -1.
        -11    1    3    3    0    0 -0.39552332985E+01 -0.55062136747E+01 -0.67459967712E+01  0.95640332588E+01  0.51100000000E-03 0.  1.
        -12    1    3    3    0    0  0.21769905322E+02  0.31762336303E+02 -0.14504744229E+02  0.41148054514E+02  0.00000000000E+00 0.  1.
</event>
<event>
 7    1  0.2641103E-015  0.9000775E+02  0.7816164E-02  0.1186339E+00
        -11   -1    0    0    0    0  0.00000000000E+00  0.00000000000E+00  0.45593999997E+02  0.45594000000E+02  0.51100000000E-03 0. -1.
         11   -1    0    0    0    0 -0.00000000000E+00 -0.00000000000E+00 -0.45593999997E+02  0.45594000000E+02  0.51100000000E-03 0.  1.
    9900012    2    1    2    0    0  0.51967569244E+00  0.10433256987E+01 -0.18544053322E+00  0.90007754462E+02  0.90000016021E+02 0.  0.
        -12    1    1    2    0    0 -0.51967569244E+00 -0.10433256987E+01  0.18544053322E+00  0.11802455381E+01  0.00000000000E+00 0.  1.
         11    1    3    3    0    0 -0.36009784972E+02 -0.14250140535E+02  0.25819071227E+01  0.38812850496E+02  0.51100000000E-03 0. -1.
        -11    1    3    3    0    0  0.12715654065E+01  0.35896556555E+01  0.10950212022E+02  0.11593517581E+02  0.51100000000E-03 0.  1.
        -12    1    3    3    0    0  0.35257895258E+02  0.11703810578E+02 -0.13717559678E+02  0.39601386385E+02  0.00000000000E+00 0.  1.
</event>
<event>
 7    1  0.2641103E-015  0.9000786E+02  0.7816164E-02  0.1186339E+00
        -11   -1    0    0    0    0  0.00000000000E+00  0.00000000000E+00  0.45593999997E+02  0.45594000000E+02  0.51100000000E-03 0. -1.
         11   -1    0    0    0    0 -0.00000000000E+00 -0.00000000000E+00 -0.45593999997E+02  0.45594000000E+02  0.51100000000E-03 0.  1.
    9900012    2    1    2    0    0 -0.10685628621E+01 -0.22813022802E+00  0.44594690967E+00  0.90007856518E+02  0.90000119424E+02 0.  0.
        -12    1    1    2    0    0  0.10685628621E+01  0.22813022802E+00 -0.44594690967E+00  0.11801434817E+01  0.00000000000E+00 0.  1.
         11    1    3    3    0    0 -0.34082986303E+01 -0.12590053527E+02 -0.16203072170E+02  0.20800612860E+02  0.51100000000E-03 0. -1.
        -11    1    3    3    0    0 -0.33494851130E-01 -0.27280785584E+02  0.92777851939E+01  0.28815268216E+02  0.51100000000E-03 0.  1.
         12    1    3    3    0    0  0.23732306194E+01  0.39642708883E+02  0.73712338857E+01  0.40391975442E+02  0.00000000000E+00 0. -1.
</event>
<event>
 7    1  0.2641103E-015  0.9000826E+02  0.7816164E-02  0.1186338E+00
        -11   -1    0    0    0    0  0.00000000000E+00  0.00000000000E+00  0.45593999997E+02  0.45594000000E+02  0.51100000000E-03 0. -1.
         11   -1    0    0    0    0 -0.00000000000E+00 -0.00000000000E+00 -0.45593999997E+02  0.45594000000E+02  0.51100000000E-03 0.  1.
    9900012    2    1    2    0    0  0.75131687135E+00  0.89124506133E+00 -0.18164818417E+00  0.90008258137E+02  0.90000526343E+02 0.  0.
        -12    1    1    2    0    0 -0.75131687135E+00 -0.89124506133E+00  0.18164818417E+00  0.11797418630E+01  0.00000000000E+00 0.  1.
         11    1    3    3    0    0 -0.88734974898E+01  0.13857421477E+02  0.33136854345E+02  0.36997543213E+02  0.51100000000E-03 0. -1.
        -11    1    3    3    0    0  0.38421973626E+01 -0.93432037279E+01  0.68893779021E+01  0.12227896982E+02  0.51100000000E-03 0.  1.
        -12    1    3    3    0    0  0.57826169985E+01 -0.36229726880E+01 -0.40207880431E+02  0.40782817941E+02  0.00000000000E+00 0.  1.
</event>
<event>
 7    1  0.3364305E-015  0.9000782E+02  0.7816164E-02  0.1186339E+00
        -11   -1    0    0    0    0  0.00000000000E+00  0.00000000000E+00  0.45593999997E+02  0.45594000000E+02  0.51100000000E-03 0. -1.
         11   -1    0    0    0    0 -0.00000000000E+00 -0.00000000000E+00 -0.45593999997E+02  0.45594000000E+02  0.51100000000E-03 0.  1.
    9900012    2    1    2    0    0  0.60707544585E+00  0.74989462451E+00  0.67965518383E+00  0.90007824711E+02  0.90000087197E+02 0.  0.
        -12    1    1    2    0    0 -0.60707544585E+00 -0.74989462451E+00 -0.67965518383E+00  0.11801752894E+01  0.00000000000E+00 0.  1.
         11    1    3    3    0    0  0.76536292116E+00  0.83631841756E+01 -0.42491566092E+01  0.94119053389E+01  0.51100000000E-03 0. -1.
        -11    1    3    3    0    0  0.24589553501E+02 -0.17639701690E+02 -0.25884904521E+02  0.39822525026E+02  0.51100000000E-03 0.  1.
         12    1    3    3    0    0 -0.24747840976E+02  0.10026412139E+02  0.30813716314E+02  0.40773394346E+02  0.00000000000E+00 0. -1.
</event>
<event>
 7    1  0.2641103E-015  0.9000773E+02  0.7816164E-02  0.1186339E+00
        -11   -1    0    0    0    0  0.00000000000E+00  0.00000000000E+00  0.45593999997E+02  0.45594000000E+02  0.51100000000E-03 0. -1.
         11   -1    0    0    0    0 -0.00000000000E+00 -0.00000000000E+00 -0.45593999997E+02  0.45594000000E+02  0.51100000000E-03 0.  1.
    9900012    2    1    2    0    0 -0.59091705628E+00 -0.10124333310E+01 -0.13727196409E+00  0.90007725536E+02  0.89999986714E+02 0.  0.
        -12    1    1    2    0    0  0.59091705628E+00  0.10124333310E+01  0.13727196409E+00  0.11802744635E+01  0.00000000000E+00 0.  1.
         11    1    3    3    0    0  0.29899543780E+02 -0.15808936458E+02  0.19131252083E+01  0.33875732295E+02  0.51100000000E-03 0. -1.
        -11    1    3    3    0    0  0.44230958684E+01 -0.88781380037E+01  0.80287392617E+01  0.12761103630E+02  0.51100000000E-03 0.  1.
        -12    1    3    3    0    0 -0.34913556704E+02  0.23674641131E+02 -0.10079136434E+02  0.43370889611E+02  0.00000000000E+00 0.  1.
</event>
<event>
 7    1  0.2641103E-015  0.9000774E+02  0.7816164E-02  0.1186339E+00
        -11   -1    0    0    0    0  0.00000000000E+00  0.00000000000E+00  0.45593999997E+02  0.45594000000E+02  0.51100000000E-03 0. -1.
         11   -1    0    0    0    0 -0.00000000000E+00 -0.00000000000E+00 -0.45593999997E+02  0.45594000000E+02  0.51100000000E-03 0.  1.
    9900012    2    1    2    0    0  0.31305495103E+00  0.38996193931E+00  0.10690832436E+01  0.90007740411E+02  0.90000001784E+02 0.  0.
        -12    1    1    2    0    0 -0.31305495103E+00 -0.38996193931E+00 -0.10690832436E+01  0.11802595894E+01  0.00000000000E+00 0.  1.
         11    1    3    3    0    0  0.13779957153E+02  0.40710652424E+02  0.62171294177E+01  0.43426917211E+02  0.51100000000E-03 0. -1.
        -11    1    3    3    0    0 -0.83997793695E+01 -0.36024457439E+01  0.13054416683E+00  0.91406209217E+01  0.51100000000E-03 0.  1.
        -12    1    3    3    0    0 -0.50671228330E+01 -0.36718244741E+02 -0.52785903409E+01  0.37440202278E+02  0.00000000000E+00 0.  1.
</event>
<event>
 7    1  0.2857642E-015  0.9000822E+02  0.7816164E-02  0.1186338E+00
        -11   -1    0    0    0    0  0.00000000000E+00  0.00000000000E+00  0.45593999997E+02  0.45594000000E+02  0.51100000000E-03 0.  1.
         11   -1    0    0    0    0 -0.00000000000E+00 -0.00000000000E+00 -0.45593999997E+02  0.45594000000E+02  0.51100000000E-03 0. -1.
    9900012    2    1    2    0    0  0.19645510988E+00 -0.10071663929E+01  0.58215638093E+00  0.90008218323E+02  0.90000486004E+02 0.  0.
        -12    1    1    2    0    0 -0.19645510988E+00  0.10071663929E+01 -0.58215638093E+00  0.11797816769E+01  0.00000000000E+00 0.  1.
         11    1    3    3    0    0  0.49540313529E+01 -0.41724087591E+01 -0.71552324846E+01  0.96513612340E+01  0.51100000000E-03 0. -1.
        -11    1    3    3    0    0 -0.35104408496E+02 -0.17957181835E+02 -0.78959602736E+01  0.40213505993E+02  0.51100000000E-03 0.  1.
         12    1    3    3    0    0  0.30346832253E+02  0.21122424201E+02  0.15633349139E+02  0.40143351096E+02  0.00000000000E+00 0. -1.
</event>
<event>
 7    1  0.2641103E-015  0.9000765E+02  0.7816164E-02  0.1186339E+00
        -11   -1    0    0    0    0  0.00000000000E+00  0.00000000000E+00  0.45593999997E+02  0.45594000000E+02  0.51100000000E-03 0. -1.
         11   -1    0    0    0    0 -0.00000000000E+00 -0.00000000000E+00 -0.45593999997E+02  0.45594000000E+02  0.51100000000E-03 0.  1.
    9900012    2    1    2    0    0 -0.92097125445E+00 -0.11001474564E+00  0.73001805181E+00  0.90007653588E+02  0.89999913816E+02 0.  0.
        -12    1    1    2    0    0  0.92097125445E+00  0.11001474564E+00 -0.73001805181E+00  0.11803464118E+01  0.00000000000E+00 0.  1.
         11    1    3    3    0    0  0.58046751998E+01  0.23940513263E+02  0.83560427550E+01  0.26012802238E+02  0.51100000000E-03 0. -1.
        -11    1    3    3    0    0  0.23740251120E+01  0.82121840687E+01  0.19228519935E+02  0.21043097242E+02  0.51100000000E-03 0.  1.
        -12    1    3    3    0    0 -0.90996715662E+01 -0.32262712078E+02 -0.26854544638E+02  0.42951754108E+02  0.00000000000E+00 0.  1.
</event>
<event>
 7    1  0.2641103E-015  0.9000772E+02  0.7816164E-02  0.1186339E+00
        -11   -1    0    0    0    0  0.00000000000E+00  0.00000000000E+00  0.45593999997E+02  0.45594000000E+02  0.51100000000E-03 0. -1.
         11   -1    0    0    0    0 -0.00000000000E+00 -0.00000000000E+00 -0.45593999997E+02  0.45594000000E+02  0.51100000000E-03 0.  1.
    9900012    2    1    2    0    0 -0.97924953219E+00  0.97676375412E-01 -0.65160214060E+00  0.90007722206E+02  0.89999983339E+02 0.  0.
        -12    1    1    2    0    0  0.97924953219E+00 -0.97676375412E-01  0.65160214060E+00  0.11802777937E+01  0.00000000000E+00 0.  1.
         11    1    3    3    0    0  0.97257579836E+00  0.40214545116E+02  0.22512541655E+00  0.40226934065E+02  0.51100000000E-03 0. -1.
        -11    1    3    3    0    0 -0.82756764920E+01  0.83656092930E+00  0.33032040363E+00  0.83244079320E+01  0.51100000000E-03 0.  1.
        -12    1    3    3    0    0  0.63238511614E+01 -0.40953429670E+02 -0.12070479608E+01  0.41456380209E+02  0.00000000000E+00 0.  1.
</event>
<event>
 7    1  0.2641103E-015  0.9000773E+02  0.7816164E-02  0.1186339E+00
        -11   -1    0    0    0    0  0.00000000000E+00  0.00000000000E+00  0.45593999997E+02  0.45594000000E+02  0.51100000000E-03 0. -1.
         11   -1    0    0    0    0 -0.00000000000E+00 -0.00000000000E+00 -0.45593999997E+02  0.45594000000E+02  0.51100000000E-03 0.  1.
    9900012    2    1    2    0    0 -0.61355954513E+00  0.46734752275E+00  0.89339871811E+00  0.90007732957E+02  0.89999994232E+02 0.  0.
        -12    1    1    2    0    0  0.61355954513E+00 -0.46734752275E+00 -0.89339871811E+00  0.11802670426E+01  0.00000000000E+00 0.  1.
         11    1    3    3    0    0 -0.54021760260E+01  0.78807064543E+01 -0.13625564193E+01  0.96511968321E+01  0.51100000000E-03 0. -1.
        -11    1    3    3    0    0 -0.35056448812E+02  0.66982024623E+01 -0.86051456575E+01  0.36713336155E+02  0.51100000000E-03 0.  1.
         12    1    3    3    0    0  0.39845065293E+02 -0.14111561394E+02  0.10861100795E+02  0.43643199971E+02  0.00000000000E+00 0. -1.
</event>
<event>
 7    1  0.2641103E-015  0.9000812E+02  0.7816164E-02  0.1186338E+00
        -11   -1    0    0    0    0  0.00000000000E+00  0.00000000000E+00  0.45593999997E+02  0.45594000000E+02  0.51100000000E-03 0.  1.
         11   -1    0    0    0    0 -0.00000000000E+00 -0.00000000000E+00 -0.45593999997E+02  0.45594000000E+02  0.51100000000E-03 0. -1.
    9900012    2    1    2    0    0 -0.88801542105E+00  0.39397735609E+00 -0.66957270370E+00  0.90008119857E+02  0.90000386239E+02 0.  0.
        -12    1    1    2    0    0  0.88801542105E+00 -0.39397735609E+00  0.66957270370E+00  0.11798801425E+01  0.00000000000E+00 0.  1.
         11    1    3    3    0    0  0.24452104126E+02  0.23251015037E+01 -0.25723138844E+02  0.35566717102E+02  0.51100000000E-03 0. -1.
        -11    1    3    3    0    0  0.40431594083E+01 -0.59232767740E+01 -0.75203459008E+01  0.10391725000E+02  0.51100000000E-03 0.  1.
        -12    1    3    3    0    0 -0.29383278955E+02  0.39921526264E+01  0.32573912041E+02  0.44049677756E+02  0.00000000000E+00 0.  1.
</event>
<event>
 7    1  0.2641103E-015  0.9000716E+02  0.7816164E-02  0.1186340E+00
        -11   -1    0    0    0    0  0.00000000000E+00  0.00000000000E+00  0.45593999997E+02  0.45594000000E+02  0.51100000000E-03 0. -1.
         11   -1    0    0    0    0 -0.00000000000E+00 -0.00000000000E+00 -0.45593999997E+02  0.45594000000E+02  0.51100000000E-03 0.  1.
    9900012    2    1    2    0    0 -0.11289380262E+01  0.28148693869E+00  0.20159741865E+00  0.90007162381E+02  0.89999416122E+02 0.  0.
        -12    1    1    2    0    0  0.11289380262E+01 -0.28148693869E+00 -0.20159741865E+00  0.11808376192E+01  0.00000000000E+00 0.  1.
         11    1    3    3    0    0  0.94401825932E+01 -0.65772122909E+01  0.14285437465E+00  0.11506397201E+02  0.51100000000E-03 0. -1.
        -11    1    3    3    0    0 -0.37232945288E+02 -0.94345283353E+01 -0.17991090237E+02  0.42414406373E+02  0.51100000000E-03 0.  1.
         12    1    3    3    0    0  0.26663824669E+02  0.16293227565E+02  0.18049833281E+02  0.36086358807E+02  0.00000000000E+00 0. -1.
</event>
<event>
 7    1  0.2641103E-015  0.9000775E+02  0.7816164E-02  0.1186339E+00
        -11   -1    0    0    0    0  0.00000000000E+00  0.00000000000E+00  0.45593999997E+02  0.45594000000E+02  0.51100000000E-03 0.  1.
         11   -1    0    0    0    0 -0.00000000000E+00 -0.00000000000E+00 -0.45593999997E+02  0.45594000000E+02  0.51100000000E-03 0. -1.
    9900012    2    1    2    0    0 -0.84382401613E+00  0.61117003425E+00 -0.55445011704E+00  0.90007753113E+02  0.90000014655E+02 0.  0.
        -12    1    1    2    0    0  0.84382401613E+00 -0.61117003425E+00  0.55445011704E+00  0.11802468866E+01  0.00000000000E+00 0.  1.
         11    1    3    3    0    0 -0.12433687714E+00  0.96134006610E+01 -0.34110617682E+01  0.10201385914E+02  0.51100000000E-03 0. -1.
        -11    1    3    3    0    0  0.17483778668E+01  0.40815285458E+01  0.40053232381E+02  0.40298599539E+02  0.51100000000E-03 0.  1.
         12    1    3    3    0    0 -0.24678650057E+01 -0.13083759173E+02 -0.37196620729E+02  0.39507767660E+02  0.00000000000E+00 0. -1.
</event>
<event>
 7    1  0.2641103E-015  0.9000774E+02  0.7816164E-02  0.1186339E+00
        -11   -1    0    0    0    0  0.00000000000E+00  0.00000000000E+00  0.45593999997E+02  0.45594000000E+02  0.51100000000E-03 0.  1.
         11   -1    0    0    0    0 -0.00000000000E+00 -0.00000000000E+00 -0.45593999997E+02  0.45594000000E+02  0.51100000000E-03 0. -1.
    9900012    2    1    2    0    0  0.21003781685E+00 -0.87614665944E+00  0.76240582823E+00  0.90007740918E+02  0.90000002298E+02 0.  0.
        -12    1    1    2    0    0 -0.21003781685E+00  0.87614665944E+00 -0.76240582823E+00  0.11802590818E+01  0.00000000000E+00 0.  1.
         11    1    3    3    0    0 -0.41014541743E+01 -0.35916613212E+02 -0.77264347528E+01  0.36966509508E+02  0.51100000000E-03 0. -1.
        -11    1    3    3    0    0  0.95509792057E+01 -0.56928941158E+01  0.35741968540E+01  0.11679260705E+02  0.51100000000E-03 0.  1.
        -12    1    3    3    0    0 -0.52394872145E+01  0.40733360669E+02  0.49146437270E+01  0.41361970705E+02  0.00000000000E+00 0.  1.
</event>
<event>
 7    1  0.2641103E-015  0.9000774E+02  0.7816164E-02  0.1186339E+00
        -11   -1    0    0    0    0  0.00000000000E+00  0.00000000000E+00  0.45593999997E+02  0.45594000000E+02  0.51100000000E-03 0.  1.
         11   -1    0    0    0    0 -0.00000000000E+00 -0.00000000000E+00 -0.45593999997E+02  0.45594000000E+02  0.51100000000E-03 0. -1.
    9900012    2    1    2    0    0  0.10012830391E+01 -0.61093774014E+00 -0.13112468663E+00  0.90007743108E+02  0.90000004517E+02 0.  0.
        -12    1    1    2    0    0 -0.10012830391E+01  0.61093774014E+00  0.13112468663E+00  0.11802568916E+01  0.00000000000E+00 0.  1.
         11    1    3    3    0    0  0.33191498065E+02 -0.15279254178E+02 -0.21107339258E+02  0.42197759690E+02  0.51100000000E-03 0. -1.
        -11    1    3    3    0    0  0.22839724385E+01  0.66985769288E+01  0.91763684208E+00  0.71364921779E+01  0.51100000000E-03 0.  1.
        -12    1    3    3    0    0 -0.34474187464E+02  0.79697395090E+01  0.20058577730E+02  0.40673491241E+02  0.00000000000E+00 0.  1.
</event>
<event>
 7    1  0.2641103E-015  0.9000780E+02  0.7816164E-02  0.1186339E+00
        -11   -1    0    0    0    0  0.00000000000E+00  0.00000000000E+00  0.45593999997E+02  0.45594000000E+02  0.51100000000E-03 0.  1.
         11   -1    0    0    0    0 -0.00000000000E+00 -0.00000000000E+00 -0.45593999997E+02  0.45594000000E+02  0.51100000000E-03 0. -1.
    9900012    2    1    2    0    0 -0.86678900471E-01  0.74158085089E+00  0.91400966247E+00  0.90007801265E+02  0.90000063442E+02 0.  0.
        -12    1    1    2    0    0  0.86678900471E-01 -0.74158085089E+00 -0.91400966247E+00  0.11801987347E+01  0.00000000000E+00 0.  1.
         11    1    3    3    0    0  0.17640831627E+01 -0.98571930923E+01 -0.10569135528E+02  0.14559631559E+02  0.51100000000E-03 0. -1.
        -11    1    3    3    0    0  0.19314869277E+00 -0.26637945083E+02  0.24257313556E+02  0.36028248443E+02  0.51100000000E-03 0.  1.
         12    1    3    3    0    0 -0.20439107559E+01  0.37236719026E+02 -0.12774168365E+02  0.39419921263E+02  0.00000000000E+00 0. -1.
</event>
<event>
 7    1  0.2641103E-015  0.9000810E+02  0.7816164E-02  0.1186338E+00
        -11   -1    0    0    0    0  0.00000000000E+00  0.00000000000E+00  0.45593999997E+02  0.45594000000E+02  0.51100000000E-03 0.  1.
         11   -1    0    0    0    0 -0.00000000000E+00 -0.00000000000E+00 -0.45593999997E+02  0.45594000000E+02  0.51100000000E-03 0. -1.
    9900012    2    1    2    0    0  0.79556052561E-01  0.99746765349E+00  0.62521474495E+00  0.90008099851E+02  0.90000365968E+02 0.  0.
        -12    1    1    2    0    0 -0.79556052561E-01 -0.99746765349E+00 -0.62521474495E+00  0.11799001494E+01  0.00000000000E+00 0.  1.
         11    1    3    3    0    0  0.20258900118E+01  0.40914629942E+00 -0.38231034077E+02  0.38286859337E+02  0.51100000000E-03 0. -1.
        -11    1    3    3    0    0  0.50209018663E+01 -0.74420399083E+01 -0.22560717408E+01  0.92565259957E+01  0.51100000000E-03 0.  1.
        -12    1    3    3    0    0 -0.69672358255E+01  0.80303612624E+01  0.41112320563E+02  0.42464714518E+02  0.00000000000E+00 0.  1.
</event>
<event>
 7    1  0.2641103E-015  0.9000780E+02  0.7816164E-02  0.1186339E+00
        -11   -1    0    0    0    0  0.00000000000E+00  0.00000000000E+00  0.45593999997E+02  0.45594000000E+02  0.51100000000E-03 0. -1.
         11   -1    0    0    0    0 -0.00000000000E+00 -0.00000000000E+00 -0.45593999997E+02  0.45594000000E+02  0.51100000000E-03 0.  1.
    9900012    2    1    2    0    0  0.32172840911E+00 -0.11306002113E+01 -0.10534291412E+00  0.90007803772E+02  0.90000065982E+02 0.  0.
        -12    1    1    2    0    0 -0.32172840911E+00  0.11306002113E+01  0.10534291412E+00  0.11801962280E+01  0.00000000000E+00 0.  1.
         11    1    3    3    0    0 -0.72919960192E+00  0.10769643289E+02 -0.61553739660E+01  0.12426004086E+02  0.51100000000E-03 0. -1.
        -11    1    3    3    0    0 -0.14467065655E+02  0.23387554912E+02 -0.17321740496E+02  0.32501021638E+02  0.51100000000E-03 0.  1.
         12    1    3    3    0    0  0.15517993666E+02 -0.35287798412E+02  0.23371771548E+02  0.45080778048E+02  0.00000000000E+00 0. -1.
</event>
<event>
 7    1  0.2641103E-015  0.9000776E+02  0.7816164E-02  0.1186339E+00
        -11   -1    0    0    0    0  0.00000000000E+00  0.00000000000E+00  0.45593999997E+02  0.45594000000E+02  0.51100000000E-03 0.  1.
         11   -1    0    0    0    0 -0.00000000000E+00 -0.00000000000E+00 -0.45593999997E+02  0.45594000000E+02  0.51100000000E-03 0. -1.
    9900012    2    1    2    0    0  0.56431977892E+00  0.89349875754E+00 -0.52552159640E+00  0.90007758588E+02  0.90000020201E+02 0.  0.
        -12    1    1    2    0    0 -0.56431977892E+00 -0.89349875754E+00  0.52552159640E+00  0.11802414121E+01  0.00000000000E+00 0.  1.
         11    1    3    3    0    0  0.26447884790E+01 -0.18470298916E+02 -0.26771303547E+02  0.32632032453E+02  0.51100000000E-03 0. -1.
        -11    1    3    3    0    0  0.47838280657E+01 -0.87853051787E+01 -0.77891436380E+01  0.12678223729E+02  0.51100000000E-03 0.  1.
        -12    1    3    3    0    0 -0.68642967658E+01  0.28149102852E+02  0.34034925589E+02  0.44697502406E+02  0.00000000000E+00 0.  1.
</event>
<event>
 7    1  0.2641103E-015  0.9000777E+02  0.7816164E-02  0.1186339E+00
        -11   -1    0    0    0    0  0.00000000000E+00  0.00000000000E+00  0.45593999997E+02  0.45594000000E+02  0.51100000000E-03 0. -1.
         11   -1    0    0    0    0 -0.00000000000E+00 -0.00000000000E+00 -0.45593999997E+02  0.45594000000E+02  0.51100000000E-03 0.  1.
    9900012    2    1    2    0    0 -0.62986471894E+00 -0.94675051732E+00  0.31604848289E+00  0.90007765807E+02  0.90000027516E+02 0.  0.
        -12    1    1    2    0    0  0.62986471894E+00  0.94675051732E+00 -0.31604848289E+00  0.11802341928E+01  0.00000000000E+00 0.  1.
         11    1    3    3    0    0 -0.29948671540E+02 -0.18663960353E+02  0.69902767221E+00  0.35295254398E+02  0.51100000000E-03 0. -1.
        -11    1    3    3    0    0 -0.85319575803E+01 -0.51332277788E+01 -0.30640885879E+01  0.10417915661E+02  0.51100000000E-03 0.  1.
        -12    1    3    3    0    0  0.37850764401E+02  0.22850437615E+02  0.26811093986E+01  0.44294595749E+02  0.00000000000E+00 0.  1.
</event>
<event>
 7    1  0.2641103E-015  0.9000755E+02  0.7816164E-02  0.1186339E+00
        -11   -1    0    0    0    0  0.00000000000E+00  0.00000000000E+00  0.45593999997E+02  0.45594000000E+02  0.51100000000E-03 0. -1.
         11   -1    0    0    0    0 -0.00000000000E+00 -0.00000000000E+00 -0.45593999997E+02  0.45594000000E+02  0.51100000000E-03 0.  1.
    9900012    2    1    2    0    0 -0.64555195648E+00  0.98885700508E-01  0.98333397571E+00  0.90007550332E+02  0.89999809196E+02 0.  0.
        -12    1    1    2    0    0  0.64555195648E+00 -0.98885700508E-01 -0.98333397571E+00  0.11804496677E+01  0.00000000000E+00 0.  1.
         11    1    3    3    0    0  0.84017787729E+01  0.70693737007E+01  0.34175028329E+02  0.35895661195E+02  0.51100000000E-03 0. -1.
        -11    1    3    3    0    0  0.25284335900E+01  0.15810053561E+01  0.90274096503E+01  0.95071909421E+01  0.51100000000E-03 0.  1.
        -12    1    3    3    0    0 -0.11575764319E+02 -0.85514933563E+01 -0.42219104004E+02  0.44604698195E+02  0.00000000000E+00 0.  1.
</event>
<event>
 7    1  0.2641103E-015  0.9000780E+02  0.7816164E-02  0.1186339E+00
        -11   -1    0    0    0    0  0.00000000000E+00  0.00000000000E+00  0.45593999997E+02  0.45594000000E+02  0.51100000000E-03 0.  1.
         11   -1    0    0    0    0 -0.00000000000E+00 -0.00000000000E+00 -0.45593999997E+02  0.45594000000E+02  0.51100000000E-03 0. -1.
    9900012    2    1    2    0    0 -0.74764816343E-01  0.98927605591E+00 -0.63922382738E+00  0.90007803409E+02  0.90000065614E+02 0.  0.
        -12    1    1    2    0    0  0.74764816343E-01 -0.98927605591E+00  0.63922382738E+00  0.11801965913E+01  0.00000000000E+00 0.  1.
         11    1    3    3    0    0  0.33133571109E+02  0.28458508954E+02 -0.22028233213E+01  0.43732970368E+02  0.51100000000E-03 0. -1.
        -11    1    3    3    0    0 -0.58653594956E+01 -0.14475613511E+01 -0.51473621049E+01  0.79368263668E+01  0.51100000000E-03 0.  1.
        -12    1    3    3    0    0 -0.27342976430E+02 -0.26021671547E+02  0.67109615988E+01  0.38338006674E+02  0.00000000000E+00 0.  1.
</event>
<event>
 7    1  0.2641103E-015  0.9000774E+02  0.7816164E-02  0.1186339E+00
        -11   -1    0    0    0    0  0.00000000000E+00  0.00000000000E+00  0.45593999997E+02  0.45594000000E+02  0.51100000000E-03 0.  1.
         11   -1    0    0    0    0 -0.00000000000E+00 -0.00000000000E+00 -0.45593999997E+02  0.45594000000E+02  0.51100000000E-03 0. -1.
    9900012    2    1    2    0    0  0.25219494745E+00 -0.10905916539E+01  0.37419964624E+00  0.90007738240E+02  0.89999999585E+02 0.  0.
        -12    1    1    2    0    0 -0.25219494745E+00  0.10905916539E+01 -0.37419964624E+00  0.11802617601E+01  0.00000000000E+00 0.  1.
         11    1    3    3    0    0 -0.35174690163E+02 -0.15187614660E+02 -0.13408670407E+02  0.40592054758E+02  0.51100000000E-03 0. -1.
        -11    1    3    3    0    0  0.20217520131E+01  0.13774448870E+02  0.57094329593E+01  0.15047277091E+02  0.51100000000E-03 0.  1.
        -12    1    3    3    0    0  0.33405133098E+02  0.32257413633E+00  0.80734370939E+01  0.34368406391E+02  0.00000000000E+00 0.  1.
</event>
<event>
 7    1  0.2641103E-015  0.9000776E+02  0.7816164E-02  0.1186339E+00
        -11   -1    0    0    0    0  0.00000000000E+00  0.00000000000E+00  0.45593999997E+02  0.45594000000E+02  0.51100000000E-03 0. -1.
         11   -1    0    0    0    0 -0.00000000000E+00 -0.00000000000E+00 -0.45593999997E+02  0.45594000000E+02  0.51100000000E-03 0.  1.
    9900012    2    1    2    0    0 -0.60970058060E+00 -0.51862055641E+00  0.86733045038E+00  0.90007760961E+02  0.90000022605E+02 0.  0.
        -12    1    1    2    0    0  0.60970058060E+00  0.51862055641E+00 -0.86733045038E+00  0.11802390392E+01  0.00000000000E+00 0.  1.
         11    1    3    3    0    0 -0.95987759726E+01 -0.24973578502E+02  0.23081672819E+02  0.35335247894E+02  0.51100000000E-03 0. -1.
        -11    1    3    3    0    0 -0.53594012522E+01 -0.39207905205E+01  0.82815220632E+01  0.10615054782E+02  0.51100000000E-03 0.  1.
        -12    1    3    3    0    0  0.14348476644E+02  0.28375748466E+02 -0.30495864432E+02  0.44057458284E+02  0.00000000000E+00 0.  1.
</event>
<event>
 7    1  0.3010307E-015  0.9000777E+02  0.7816164E-02  0.1186339E+00
        -11   -1    0    0    0    0  0.00000000000E+00  0.00000000000E+00  0.45593999997E+02  0.45594000000E+02  0.51100000000E-03 0.  1.
         11   -1    0    0    0    0 -0.00000000000E+00 -0.00000000000E+00 -0.45593999997E+02  0.45594000000E+02  0.51100000000E-03 0. -1.
    9900012    2    1    2    0    0 -0.11724283246E+01  0.13526463991E+00  0.72118968115E-02  0.90007772602E+02  0.90000034401E+02 0.  0.
        -12    1    1    2    0    0  0.11724283246E+01 -0.13526463991E+00 -0.72118968115E-02  0.11802273978E+01  0.00000000000E+00 0.  1.
         11    1    3    3    0    0 -0.65073256270E-03 -0.94885711314E+01 -0.30724721090E+01  0.99736185841E+01  0.51100000000E-03 0. -1.
        -11    1    3    3    0    0 -0.30314196981E+02 -0.17142376950E+02 -0.13205275620E+02  0.37245012156E+02  0.51100000000E-03 0.  1.
         12    1    3    3    0    0  0.29142419389E+02  0.26766212721E+02  0.16284959626E+02  0.42789141862E+02  0.00000000000E+00 0. -1.
</event>
<event>
 7    1  0.2641103E-015  0.9000770E+02  0.7816164E-02  0.1186339E+00
        -11   -1    0    0    0    0  0.00000000000E+00  0.00000000000E+00  0.45593999997E+02  0.45594000000E+02  0.51100000000E-03 0.  1.
         11   -1    0    0    0    0 -0.00000000000E+00 -0.00000000000E+00 -0.45593999997E+02  0.45594000000E+02  0.51100000000E-03 0. -1.
    9900012    2    1    2    0    0  0.13810925996E+00  0.84303461833E+00 -0.81444307289E+00  0.90007703828E+02  0.89999964718E+02 0.  0.
        -12    1    1    2    0    0 -0.13810925996E+00 -0.84303461833E+00  0.81444307289E+00  0.11802961723E+01  0.00000000000E+00 0.  1.
         11    1    3    3    0    0  0.19056572576E+01  0.28944702025E+01 -0.82239229320E+01  0.89242588482E+01  0.51100000000E-03 0. -1.
        -11    1    3    3    0    0  0.35818988735E+02  0.13213795664E+02 -0.53601057141E+01  0.38553016527E+02  0.51100000000E-03 0.  1.
         12    1    3    3    0    0 -0.37586536732E+02 -0.15265231248E+02  0.12769585573E+02  0.42530428452E+02  0.00000000000E+00 0. -1.
</event>
<event>
 7    1  0.2641103E-015  0.9000775E+02  0.7816164E-02  0.1186339E+00
        -11   -1    0    0    0    0  0.00000000000E+00  0.00000000000E+00  0.45593999997E+02  0.45594000000E+02  0.51100000000E-03 0.  1.
         11   -1    0    0    0    0 -0.00000000000E+00 -0.00000000000E+00 -0.45593999997E+02  0.45594000000E+02  0.51100000000E-03 0. -1.
    9900012    2    1    2    0    0 -0.77819903419E+00 -0.52204731357E+00 -0.71753149606E+00  0.90007754863E+02  0.90000016428E+02 0.  0.
        -12    1    1    2    0    0  0.77819903419E+00  0.52204731357E+00  0.71753149606E+00  0.11802451365E+01  0.00000000000E+00 0.  1.
         11    1    3    3    0    0  0.71411964096E+01  0.81581249066E+00 -0.61912840037E+01  0.94865290837E+01  0.51100000000E-03 0. -1.
        -11    1    3    3    0    0  0.26192316363E+02  0.19575846052E+02  0.19558391793E+02  0.38102255509E+02  0.51100000000E-03 0.  1.
         12    1    3    3    0    0 -0.34111711807E+02 -0.20913705856E+02 -0.14084639285E+02  0.42418970271E+02  0.00000000000E+00 0. -1.
</event>
<event>
 7    1  0.2641103E-015  0.9000781E+02  0.7816164E-02  0.1186339E+00
        -11   -1    0    0    0    0  0.00000000000E+00  0.00000000000E+00  0.45593999997E+02  0.45594000000E+02  0.51100000000E-03 0. -1.
         11   -1    0    0    0    0 -0.00000000000E+00 -0.00000000000E+00 -0.45593999997E+02  0.45594000000E+02  0.51100000000E-03 0.  1.
    9900012    2    1    2    0    0 -0.74727674615E+00 -0.44075412418E+00  0.80010279653E+00  0.90007808821E+02  0.90000071098E+02 0.  0.
        -12    1    1    2    0    0  0.74727674615E+00  0.44075412418E+00 -0.80010279653E+00  0.11801911787E+01  0.00000000000E+00 0.  1.
         11    1    3    3    0    0 -0.52347182340E+01 -0.52851639232E+01 -0.62436792468E+01  0.97117847733E+01  0.51100000000E-03 0. -1.
        -11    1    3    3    0    0 -0.33307705966E+02 -0.60133861991E-01  0.21377339944E+02  0.39577740665E+02  0.51100000000E-03 0.  1.
         12    1    3    3    0    0  0.37795147454E+02  0.49045436610E+01 -0.14333557901E+02  0.40718283383E+02  0.00000000000E+00 0. -1.
</event>
<event>
 7    1  0.2641103E-015  0.9000771E+02  0.7816164E-02  0.1186339E+00
        -11   -1    0    0    0    0  0.00000000000E+00  0.00000000000E+00  0.45593999997E+02  0.45594000000E+02  0.51100000000E-03 0.  1.
         11   -1    0    0    0    0 -0.00000000000E+00 -0.00000000000E+00 -0.45593999997E+02  0.45594000000E+02  0.51100000000E-03 0. -1.
    9900012    2    1    2    0    0  0.52754568188E-01  0.11721474264E+01 -0.12793506293E+00  0.90007711894E+02  0.89999972891E+02 0.  0.
        -12    1    1    2    0    0 -0.52754568188E-01 -0.11721474264E+01  0.12793506293E+00  0.11802881064E+01  0.00000000000E+00 0.  1.
         11    1    3    3    0    0 -0.67376003469E+01 -0.22236384539E+02  0.34894338088E+02  0.41922152696E+02  0.51100000000E-03 0. -1.
        -11    1    3    3    0    0  0.85025890089E+01  0.16209514277E+01 -0.26979756167E+01  0.90664533349E+01  0.51100000000E-03 0.  1.
        -12    1    3    3    0    0 -0.17122340938E+01  0.21787580538E+02 -0.32324297534E+02  0.39019105863E+02  0.00000000000E+00 0.  1.
</event>
<event>
 7    1  0.2641103E-015  0.9000766E+02  0.7816164E-02  0.1186339E+00
        -11   -1    0    0    0    0  0.00000000000E+00  0.00000000000E+00  0.45593999997E+02  0.45594000000E+02  0.51100000000E-03 0.  1.
         11   -1    0    0    0    0 -0.00000000000E+00 -0.00000000000E+00 -0.45593999997E+02  0.45594000000E+02  0.51100000000E-03 0. -1.
    9900012    2    1    2    0    0  0.22597327383E+00 -0.11117250759E+00 -0.11531609464E+01  0.90007659619E+02  0.89999919926E+02 0.  0.
        -12    1    1    2    0    0 -0.22597327383E+00  0.11117250759E+00  0.11531609464E+01  0.11803403811E+01  0.00000000000E+00 0.  1.
         11    1    3    3    0    0 -0.70406177991E+01 -0.20883942087E+01  0.52708537461E+01  0.90395568939E+01  0.51100000000E-03 0. -1.
        -11    1    3    3    0    0 -0.32677639208E+02  0.47384814473E+01  0.14183281670E+02  0.35936705328E+02  0.51100000000E-03 0.  1.
         12    1    3    3    0    0  0.39944230281E+02 -0.27612597462E+01 -0.20607296363E+02  0.45031397397E+02  0.00000000000E+00 0. -1.
</event>
<event>
 7    1  0.2641103E-015  0.9000770E+02  0.7816164E-02  0.1186339E+00
        -11   -1    0    0    0    0  0.00000000000E+00  0.00000000000E+00  0.45593999997E+02  0.45594000000E+02  0.51100000000E-03 0.  1.
         11   -1    0    0    0    0 -0.00000000000E+00 -0.00000000000E+00 -0.45593999997E+02  0.45594000000E+02  0.51100000000E-03 0. -1.
    9900012    2    1    2    0    0  0.79273281165E+00  0.58221230790E+00 -0.65247139871E+00  0.90007696900E+02  0.89999957699E+02 0.  0.
        -12    1    1    2    0    0 -0.79273281165E+00 -0.58221230790E+00  0.65247139871E+00  0.11803031002E+01  0.00000000000E+00 0.  1.
         11    1    3    3    0    0  0.87257465022E+01 -0.10187902923E+02  0.46999516177E+01  0.14213428983E+02  0.51100000000E-03 0. -1.
        -11    1    3    3    0    0  0.19687624940E+02 -0.24021779805E+02 -0.43355832534E+01  0.31359938826E+02  0.51100000000E-03 0.  1.
         12    1    3    3    0    0 -0.27620638631E+02  0.34791895036E+02 -0.10168397630E+01  0.44434329090E+02  0.00000000000E+00 0. -1.
</event>
<event>
 7    1  0.2641103E-015  0.9000754E+02  0.7816164E-02  0.1186339E+00
        -11   -1    0    0    0    0  0.00000000000E+00  0.00000000000E+00  0.45593999997E+02  0.45594000000E+02  0.51100000000E-03 0. -1.
         11   -1    0    0    0    0 -0.00000000000E+00 -0.00000000000E+00 -0.45593999997E+02  0.45594000000E+02  0.51100000000E-03 0.  1.
    9900012    2    1    2    0    0 -0.10432914991E+01 -0.17210990171E-01  0.55202995432E+00  0.90007538039E+02  0.89999796741E+02 0.  0.
        -12    1    1    2    0    0  0.10432914991E+01  0.17210990171E-01 -0.55202995432E+00  0.11804619608E+01  0.00000000000E+00 0.  1.
         11    1    3    3    0    0  0.66239633662E+01 -0.44708474106E+01  0.44059362054E+01  0.91256584065E+01  0.51100000000E-03 0. -1.
        -11    1    3    3    0    0  0.34571660234E+01 -0.19714701210E+02  0.31081693739E+02  0.36968812892E+02  0.51100000000E-03 0.  1.
         12    1    3    3    0    0 -0.11124420889E+02  0.24168337631E+02 -0.34935599990E+02  0.43913066741E+02  0.00000000000E+00 0. -1.
</event>
<event>
 7    1  0.2641103E-015  0.9000779E+02  0.7816164E-02  0.1186339E+00
        -11   -1    0    0    0    0  0.00000000000E+00  0.00000000000E+00  0.45593999997E+02  0.45594000000E+02  0.51100000000E-03 0.  1.
         11   -1    0    0    0    0 -0.00000000000E+00 -0.00000000000E+00 -0.45593999997E+02  0.45594000000E+02  0.51100000000E-03 0. -1.
    9900012    2    1    2    0    0 -0.58754743390E+00 -0.18419860440E+00 -0.10068530275E+01  0.90007790641E+02  0.90000052677E+02 0.  0.
        -12    1    1    2    0    0  0.58754743390E+00  0.18419860440E+00  0.10068530275E+01  0.11802093593E+01  0.00000000000E+00 0.  1.
         11    1    3    3    0    0 -0.27633632071E+01 -0.96549660019E+01 -0.77172761681E+00  0.10072244461E+02  0.51100000000E-03 0. -1.
        -11    1    3    3    0    0 -0.19547730925E+02 -0.20736952928E+02  0.22519292811E+02  0.36321530117E+02  0.51100000000E-03 0.  1.
         12    1    3    3    0    0  0.21723546698E+02  0.30207720326E+02 -0.22754418222E+02  0.43614016062E+02  0.00000000000E+00 0. -1.
</event>
<event>
 7    1  0.2641103E-015  0.9000780E+02  0.7816164E-02  0.1186339E+00
        -11   -1    0    0    0    0  0.00000000000E+00  0.00000000000E+00  0.45593999997E+02  0.45594000000E+02  0.51100000000E-03 0.  1.
         11   -1    0    0    0    0 -0.00000000000E+00 -0.00000000000E+00 -0.45593999997E+02  0.45594000000E+02  0.51100000000E-03 0. -1.
    9900012    2    1    2    0    0  0.46122001780E+00 -0.84287896565E+00 -0.68535080326E+00  0.90007798924E+02  0.90000061070E+02 0.  0.
        -12    1    1    2    0    0 -0.46122001780E+00  0.84287896565E+00  0.68535080326E+00  0.11802010757E+01  0.00000000000E+00 0.  1.
         11    1    3    3    0    0 -0.25616338732E+01  0.28060879581E+02 -0.26450096309E+02  0.38646895425E+02  0.51100000000E-03 0. -1.
        -11    1    3    3    0    0 -0.70962273054E+01  0.44166100628E+01  0.56712926878E+00  0.83776203236E+01  0.51100000000E-03 0.  1.
        -12    1    3    3    0    0  0.10119081196E+02 -0.33320368610E+02  0.25197616237E+02  0.42983283176E+02  0.00000000000E+00 0.  1.
</event>
<event>
 7    1  0.2641103E-015  0.9000819E+02  0.7816164E-02  0.1186338E+00
        -11   -1    0    0    0    0  0.00000000000E+00  0.00000000000E+00  0.45593999997E+02  0.45594000000E+02  0.51100000000E-03 0. -1.
         11   -1    0    0    0    0 -0.00000000000E+00 -0.00000000000E+00 -0.45593999997E+02  0.45594000000E+02  0.51100000000E-03 0.  1.
    9900012    2    1    2    0    0  0.68581181130E-01  0.55195178650E+00  0.10404754068E+01  0.90008193564E+02  0.90000460918E+02 0.  0.
        -12    1    1    2    0    0 -0.68581181130E-01 -0.55195178650E+00 -0.10404754068E+01  0.11798064355E+01  0.00000000000E+00 0.  1.
         11    1    3    3    0    0  0.50372745562E+00 -0.35474196068E+02  0.18575751596E+02  0.40046608790E+02  0.51100000000E-03 0. -1.
        -11    1    3    3    0    0  0.40517387813E+01  0.33617729474E+01  0.70746344214E+01  0.88186482501E+01  0.51100000000E-03 0.  1.
        -12    1    3    3    0    0 -0.44868850558E+01  0.32664374907E+02 -0.24609910610E+02  0.41142936524E+02  0.00000000000E+00 0.  1.
</event>
<event>
 7    1  0.2641103E-015  0.9000772E+02  0.7816164E-02  0.1186339E+00
        -11   -1    0    0    0    0  0.00000000000E+00  0.00000000000E+00  0.45593999997E+02  0.45594000000E+02  0.51100000000E-03 0.  1.
         11   -1    0    0    0    0 -0.00000000000E+00 -0.00000000000E+00 -0.45593999997E+02  0.45594000000E+02  0.51100000000E-03 0. -1.
    9900012    2    1    2    0    0 -0.11337664904E+00 -0.10936653640E+01 -0.42907943445E+00  0.90007717257E+02  0.89999978325E+02 0.  0.
        -12    1    1    2    0    0  0.11337664904E+00  0.10936653640E+01  0.42907943445E+00  0.11802827432E+01  0.00000000000E+00 0.  1.
         11    1    3    3    0    0  0.82705594985E+01  0.65309141511E+01  0.71266676056E+01  0.12721807477E+02  0.51100000000E-03 0. -1.
        -11    1    3    3    0    0 -0.32109835554E+02  0.21722902361E+02  0.15426762262E+00  0.38767896835E+02  0.51100000000E-03 0.  1.
         12    1    3    3    0    0  0.23725899406E+02 -0.29347481876E+02 -0.77100146626E+01  0.38518012944E+02  0.00000000000E+00 0. -1.
</event>
<event>
 7    1  0.2641103E-015  0.9000773E+02  0.7816164E-02  0.1186339E+00
        -11   -1    0    0    0    0  0.00000000000E+00  0.00000000000E+00  0.45593999997E+02  0.45594000000E+02  0.51100000000E-03 0. -1.
         11   -1    0    0    0    0 -0.00000000000E+00 -0.00000000000E+00 -0.45593999997E+02  0.45594000000E+02  0.51100000000E-03 0.  1.
    9900012    2    1    2    0    0 -0.23585691069E-01 -0.13420038047E+00  0.11723783679E+01  0.90007730088E+02  0.89999991325E+02 0.  0.
        -12    1    1    2    0    0  0.23585691069E-01  0.13420038047E+00 -0.11723783679E+01  0.11802699117E+01  0.00000000000E+00 0.  1.
         11    1    3    3    0    0  0.30844683743E+01 -0.15094579798E+01 -0.74248532142E+01  0.81805167354E+01  0.51100000000E-03 0. -1.
        -11    1    3    3    0    0  0.50472444263E+01 -0.25153084703E+02  0.35083964474E+02  0.43463052238E+02  0.51100000000E-03 0.  1.
         12    1    3    3    0    0 -0.81552984917E+01  0.26528342302E+02 -0.26486732892E+02  0.38364161115E+02  0.00000000000E+00 0. -1.
</event>
<event>
 7    1  0.2641103E-015  0.9000780E+02  0.7816164E-02  0.1186339E+00
        -11   -1    0    0    0    0  0.00000000000E+00  0.00000000000E+00  0.45593999997E+02  0.45594000000E+02  0.51100000000E-03 0. -1.
         11   -1    0    0    0    0 -0.00000000000E+00 -0.00000000000E+00 -0.45593999997E+02  0.45594000000E+02  0.51100000000E-03 0.  1.
    9900012    2    1    2    0    0  0.75089849371E-01 -0.54086970314E+00  0.10462738455E+01  0.90007801931E+02  0.90000064117E+02 0.  0.
        -12    1    1    2    0    0 -0.75089849371E-01  0.54086970314E+00 -0.10462738455E+01  0.11801980685E+01  0.00000000000E+00 0.  1.
         11    1    3    3    0    0 -0.26483159740E+01  0.53885315271E+01  0.14214511308E+01  0.61701193745E+01  0.51100000000E-03 0. -1.
        -11    1    3    3    0    0 -0.32544957692E+02 -0.20833473559E+02 -0.16849275794E+02  0.42155734921E+02  0.51100000000E-03 0.  1.
         12    1    3    3    0    0  0.35268363515E+02  0.14904072329E+02  0.16474098508E+02  0.41681947636E+02  0.00000000000E+00 0. -1.
</event>
<event>
 7    1  0.2641103E-015  0.9000762E+02  0.7816164E-02  0.1186339E+00
        -11   -1    0    0    0    0  0.00000000000E+00  0.00000000000E+00  0.45593999997E+02  0.45594000000E+02  0.51100000000E-03 0.  1.
         11   -1    0    0    0    0 -0.00000000000E+00 -0.00000000000E+00 -0.45593999997E+02  0.45594000000E+02  0.51100000000E-03 0. -1.
    9900012    2    1    2    0    0  0.10898557174E+01  0.31423887977E+00  0.32673176885E+00  0.90007624972E+02  0.89999884821E+02 0.  0.
        -12    1    1    2    0    0 -0.10898557174E+01 -0.31423887977E+00 -0.32673176885E+00  0.11803750281E+01  0.00000000000E+00 0.  1.
         11    1    3    3    0    0 -0.79749450392E+00 -0.37735198530E+02 -0.10747171829E+02  0.39243890075E+02  0.51100000000E-03 0. -1.
        -11    1    3    3    0    0  0.36223586694E+01  0.11826834440E+01 -0.82616084924E+01  0.90980436140E+01  0.51100000000E-03 0.  1.
        -12    1    3    3    0    0 -0.17350084482E+01  0.36866753966E+02  0.19335512091E+02  0.41665691283E+02  0.00000000000E+00 0.  1.
</event>
<event>
 7    1  0.2641103E-015  0.9000785E+02  0.7816164E-02  0.1186339E+00
        -11   -1    0    0    0    0  0.00000000000E+00  0.00000000000E+00  0.45593999997E+02  0.45594000000E+02  0.51100000000E-03 0.  1.
         11   -1    0    0    0    0 -0.00000000000E+00 -0.00000000000E+00 -0.45593999997E+02  0.45594000000E+02  0.51100000000E-03 0. -1.
    9900012    2    1    2    0    0  0.22056663079E+00  0.21743930305E+00  0.11387807813E+01  0.90007851214E+02  0.90000114050E+02 0.  0.
        -12    1    1    2    0    0 -0.22056663079E+00 -0.21743930305E+00 -0.11387807813E+01  0.11801487859E+01  0.00000000000E+00 0.  1.
         11    1    3    3    0    0 -0.63065228335E+01 -0.77004391964E+01 -0.22987783735E+01  0.10215350035E+02  0.51100000000E-03 0. -1.
        -11    1    3    3    0    0 -0.17102016236E+01 -0.72508746282E+01  0.39295960615E+02  0.39995905958E+02  0.51100000000E-03 0.  1.
         12    1    3    3    0    0  0.82372910879E+01  0.15168753128E+02 -0.35858401460E+02  0.39796595221E+02  0.00000000000E+00 0. -1.
</event>
<event>
 7    1  0.2641103E-015  0.9000777E+02  0.7816164E-02  0.1186339E+00
        -11   -1    0    0    0    0  0.00000000000E+00  0.00000000000E+00  0.45593999997E+02  0.45594000000E+02  0.51100000000E-03 0. -1.
         11   -1    0    0    0    0 -0.00000000000E+00 -0.00000000000E+00 -0.45593999997E+02  0.45594000000E+02  0.51100000000E-03 0.  1.
    9900012    2    1    2    0    0  0.67116989952E+00 -0.59144142446E+00  0.76985719472E+00  0.90007766086E+02  0.90000027798E+02 0.  0.
        -12    1    1    2    0    0 -0.67116989952E+00  0.59144142446E+00 -0.76985719472E+00  0.11802339145E+01  0.00000000000E+00 0.  1.
         11    1    3    3    0    0  0.21830823674E+02  0.25999878134E+02  0.18679109875E+02  0.38749034456E+02  0.51100000000E-03 0. -1.
        -11    1    3    3    0    0  0.30978144352E+01 -0.42391055436E+01  0.78242719756E+01  0.94226165312E+01  0.51100000000E-03 0.  1.
        -12    1    3    3    0    0 -0.24257468210E+02 -0.22352214015E+02 -0.25733524656E+02  0.41836115099E+02  0.00000000000E+00 0.  1.
</event>
<event>
 7    1  0.2641103E-015  0.9000786E+02  0.7816164E-02  0.1186339E+00
        -11   -1    0    0    0    0  0.00000000000E+00  0.00000000000E+00  0.45593999997E+02  0.45594000000E+02  0.51100000000E-03 0.  1.
         11   -1    0    0    0    0 -0.00000000000E+00 -0.00000000000E+00 -0.45593999997E+02  0.45594000000E+02  0.51100000000E-03 0. -1.
    9900012    2    1    2    0    0  0.83672315022E+00 -0.20717378804E-01 -0.83197636289E+00  0.90007864623E+02  0.90000127636E+02 0.  0.
        -12    1    1    2    0    0 -0.83672315022E+00  0.20717378804E-01  0.83197636289E+00  0.11801353771E+01  0.00000000000E+00 0.  1.
         11    1    3    3    0    0 -0.35779139966E+02  0.88826411571E+01  0.10841473778E+02  0.38426367569E+02  0.51100000000E-03 0. -1.
        -11    1    3    3    0    0 -0.13987819672E+01 -0.49020027970E+01  0.73025644529E+01  0.89058222677E+01  0.51100000000E-03 0.  1.
        -12    1    3    3    0    0  0.38014645083E+02 -0.40013557389E+01 -0.18976014594E+02  0.42675674786E+02  0.00000000000E+00 0.  1.
</event>
<event>
 7    1  0.2641103E-015  0.9000779E+02  0.7816164E-02  0.1186339E+00
        -11   -1    0    0    0    0  0.00000000000E+00  0.00000000000E+00  0.45593999997E+02  0.45594000000E+02  0.51100000000E-03 0.  1.
         11   -1    0    0    0    0 -0.00000000000E+00 -0.00000000000E+00 -0.45593999997E+02  0.45594000000E+02  0.51100000000E-03 0. -1.
    9900012    2    1    2    0    0 -0.10259623869E+01  0.26890982346E+00 -0.51768178825E+00  0.90007785720E+02  0.90000047692E+02 0.  0.
        -12    1    1    2    0    0  0.10259623869E+01 -0.26890982346E+00  0.51768178825E+00  0.11802142798E+01  0.00000000000E+00 0.  1.
         11    1    3    3    0    0  0.68159558189E+01  0.57471768267E+01  0.30194361224E+01  0.94129851779E+01  0.51100000000E-03 0. -1.
        -11    1    3    3    0    0  0.31770887154E+02  0.15864055473E+02 -0.94715184826E+00  0.35524000668E+02  0.51100000000E-03 0.  1.
         12    1    3    3    0    0 -0.39612805359E+02 -0.21342322476E+02 -0.25899660623E+01  0.45070799874E+02  0.00000000000E+00 0. -1.
</event>
<event>
 7    1  0.2641103E-015  0.9000765E+02  0.7816164E-02  0.1186339E+00
        -11   -1    0    0    0    0  0.00000000000E+00  0.00000000000E+00  0.45593999997E+02  0.45594000000E+02  0.51100000000E-03 0.  1.
         11   -1    0    0    0    0 -0.00000000000E+00 -0.00000000000E+00 -0.45593999997E+02  0.45594000000E+02  0.51100000000E-03 0. -1.
    9900012    2    1    2    0    0 -0.53593972761E+00  0.10514386395E+01  0.21932120465E-01  0.90007645976E+02  0.89999906103E+02 0.  0.
        -12    1    1    2    0    0  0.53593972761E+00 -0.10514386395E+01 -0.21932120465E-01  0.11803540241E+01  0.00000000000E+00 0.  1.
         11    1    3    3    0    0 -0.18962738016E+01 -0.85446821864E+01  0.37686416867E+00  0.87606777626E+01  0.51100000000E-03 0. -1.
        -11    1    3    3    0    0 -0.26543790614E+02  0.12621340751E+02 -0.28896045301E+02  0.41217138387E+02  0.51100000000E-03 0.  1.
         12    1    3    3    0    0  0.27904124688E+02 -0.30252199250E+01  0.28541113253E+02  0.40029829826E+02  0.00000000000E+00 0. -1.
</event>
<event>
 7    1  0.2641103E-015  0.9000771E+02  0.7816164E-02  0.1186339E+00
        -11   -1    0    0    0    0  0.00000000000E+00  0.00000000000E+00  0.45593999997E+02  0.45594000000E+02  0.51100000000E-03 0. -1.
         11   -1    0    0    0    0 -0.00000000000E+00 -0.00000000000E+00 -0.45593999997E+02  0.45594000000E+02  0.51100000000E-03 0.  1.
    9900012    2    1    2    0    0  0.12907707356E+00  0.10791773596E+01 -0.46020600572E+00  0.90007714343E+02  0.89999975372E+02 0.  0.
        -12    1    1    2    0    0 -0.12907707356E+00 -0.10791773596E+01  0.46020600572E+00  0.11802856570E+01  0.00000000000E+00 0.  1.
         11    1    3    3    0    0  0.61785923972E+00 -0.12979870641E+02  0.27840736145E+01  0.13289464174E+02  0.51100000000E-03 0. -1.
        -11    1    3    3    0    0  0.35935128279E+02 -0.18319075125E+01  0.44014032874E+01  0.36249988699E+02  0.51100000000E-03 0.  1.
         12    1    3    3    0    0 -0.36423910445E+02  0.15890955513E+02 -0.76456829076E+01  0.40468261469E+02  0.00000000000E+00 0. -1.
</event>
<event>
 7    1  0.2641103E-015  0.9000778E+02  0.7816164E-02  0.1186339E+00
        -11   -1    0    0    0    0  0.00000000000E+00  0.00000000000E+00  0.45593999997E+02  0.45594000000E+02  0.51100000000E-03 0. -1.
         11   -1    0    0    0    0 -0.00000000000E+00 -0.00000000000E+00 -0.45593999997E+02  0.45594000000E+02  0.51100000000E-03 0.  1.
    9900012    2    1    2    0    0  0.81395800582E+00 -0.42494478306E+00  0.74149775695E+00  0.90007777721E+02  0.90000039587E+02 0.  0.
        -12    1    1    2    0    0 -0.81395800582E+00  0.42494478306E+00 -0.74149775695E+00  0.11802222788E+01  0.00000000000E+00 0.  1.
         11    1    3    3    0    0 -0.49465286234E+01  0.94852992554E+00 -0.28119876635E+01  0.57684598745E+01  0.51100000000E-03 0. -1.
        -11    1    3    3    0    0 -0.33945318662E+01  0.35430500668E+02 -0.18762600303E+02  0.40235287927E+02  0.51100000000E-03 0.  1.
         12    1    3    3    0    0  0.91550184955E+01 -0.36803975376E+02  0.22316085724E+02  0.44004029920E+02  0.00000000000E+00 0. -1.
</event>
<event>
 7    1  0.2641103E-015  0.9000780E+02  0.7816164E-02  0.1186339E+00
        -11   -1    0    0    0    0  0.00000000000E+00  0.00000000000E+00  0.45593999997E+02  0.45594000000E+02  0.51100000000E-03 0.  1.
         11   -1    0    0    0    0 -0.00000000000E+00 -0.00000000000E+00 -0.45593999997E+02  0.45594000000E+02  0.51100000000E-03 0. -1.
    9900012    2    1    2    0    0 -0.71860707718E+00  0.72833453992E+00  0.58821915722E+00  0.90007801241E+02  0.90000063418E+02 0.  0.
        -12    1    1    2    0    0  0.71860707718E+00 -0.72833453992E+00 -0.58821915722E+00  0.11801987588E+01  0.00000000000E+00 0.  1.
         11    1    3    3    0    0  0.90305116653E+00 -0.55101362991E+01 -0.10851503105E+02  0.12203779060E+02  0.51100000000E-03 0. -1.
        -11    1    3    3    0    0  0.35313539878E+02 -0.60975883461E+01  0.14684955178E+02  0.38728214408E+02  0.51100000000E-03 0.  1.
         12    1    3    3    0    0 -0.36935198122E+02  0.12336059185E+02 -0.32452329164E+01  0.39075807774E+02  0.00000000000E+00 0. -1.
</event>
<event>
 7    1  0.2641103E-015  0.9000774E+02  0.7816164E-02  0.1186339E+00
        -11   -1    0    0    0    0  0.00000000000E+00  0.00000000000E+00  0.45593999997E+02  0.45594000000E+02  0.51100000000E-03 0. -1.
         11   -1    0    0    0    0 -0.00000000000E+00 -0.00000000000E+00 -0.45593999997E+02  0.45594000000E+02  0.51100000000E-03 0.  1.
    9900012    2    1    2    0    0 -0.62500824002E+00 -0.75472781227E+00 -0.65785407424E+00  0.90007736744E+02  0.89999998069E+02 0.  0.
        -12    1    1    2    0    0  0.62500824002E+00  0.75472781227E+00  0.65785407424E+00  0.11802632561E+01  0.00000000000E+00 0.  1.
         11    1    3    3    0    0  0.84672538137E+01 -0.14385137112E+02 -0.14825275789E+01  0.16757817434E+02  0.51100000000E-03 0. -1.
        -11    1    3    3    0    0 -0.13403783495E+02 -0.48664593890E+01 -0.32164658269E+02  0.35183932139E+02  0.51100000000E-03 0.  1.
         12    1    3    3    0    0  0.43115214415E+01  0.18496868688E+02  0.32989331774E+02  0.38065987171E+02  0.00000000000E+00 0. -1.
</event>
<event>
 7    1  0.2641103E-015  0.9000784E+02  0.7816164E-02  0.1186339E+00
        -11   -1    0    0    0    0  0.00000000000E+00  0.00000000000E+00  0.45593999997E+02  0.45594000000E+02  0.51100000000E-03 0. -1.
         11   -1    0    0    0    0 -0.00000000000E+00 -0.00000000000E+00 -0.45593999997E+02  0.45594000000E+02  0.51100000000E-03 0.  1.
    9900012    2    1    2    0    0  0.11970227430E-01  0.11253098839E+01  0.35540024615E+00  0.90007841131E+02  0.90000103834E+02 0.  0.
        -12    1    1    2    0    0 -0.11970227430E-01 -0.11253098839E+01 -0.35540024615E+00  0.11801588690E+01  0.00000000000E+00 0.  1.
         11    1    3    3    0    0 -0.36263770325E+01 -0.11627084028E+02  0.34109972337E+01  0.12648106410E+02  0.51100000000E-03 0. -1.
        -11    1    3    3    0    0  0.26662523522E+02 -0.17211278818E+02 -0.18276182260E+02  0.36621538982E+02  0.51100000000E-03 0.  1.
         12    1    3    3    0    0 -0.23024176262E+02  0.29963672730E+02  0.15220585273E+02  0.40738195739E+02  0.00000000000E+00 0. -1.
</event>
<event>
 7    1  0.2641103E-015  0.9000766E+02  0.7816164E-02  0.1186339E+00
        -11   -1    0    0    0    0  0.00000000000E+00  0.00000000000E+00  0.45593999997E+02  0.45594000000E+02  0.51100000000E-03 0.  1.
         11   -1    0    0    0    0 -0.00000000000E+00 -0.00000000000E+00 -0.45593999997E+02  0.45594000000E+02  0.51100000000E-03 0. -1.
    9900012    2    1    2    0    0 -0.26094639573E-01 -0.13876097702E+00 -0.11718629942E+01  0.90007661737E+02  0.89999922071E+02 0.  0.
        -12    1    1    2    0    0  0.26094639573E-01  0.13876097702E+00  0.11718629942E+01  0.11803382634E+01  0.00000000000E+00 0.  1.
         11    1    3    3    0    0 -0.11237968811E+02  0.22449802596E+01 -0.56727000141E+01  0.12787157819E+02  0.51100000000E-03 0. -1.
        -11    1    3    3    0    0  0.20734199558E+01  0.14920225182E+02  0.36626989070E+02  0.39603642741E+02  0.51100000000E-03 0.  1.
         12    1    3    3    0    0  0.91384542158E+01 -0.17303966419E+02 -0.32126152050E+02  0.37616861177E+02  0.00000000000E+00 0. -1.
</event>
<event>
 7    1  0.2641103E-015  0.9000775E+02  0.7816164E-02  0.1186339E+00
        -11   -1    0    0    0    0  0.00000000000E+00  0.00000000000E+00  0.45593999997E+02  0.45594000000E+02  0.51100000000E-03 0. -1.
         11   -1    0    0    0    0 -0.00000000000E+00 -0.00000000000E+00 -0.45593999997E+02  0.45594000000E+02  0.51100000000E-03 0.  1.
    9900012    2    1    2    0    0  0.32827111973E+00  0.91137745309E+00 -0.67426286705E+00  0.90007745280E+02  0.90000006718E+02 0.  0.
        -12    1    1    2    0    0 -0.32827111973E+00 -0.91137745309E+00  0.67426286705E+00  0.11802547199E+01  0.00000000000E+00 0.  1.
         11    1    3    3    0    0  0.33353627388E+02  0.58871272227E+01 -0.14358874929E+02  0.36787226266E+02  0.51100000000E-03 0. -1.
        -11    1    3    3    0    0  0.87080324678E+01 -0.35351548431E+01  0.42584295645E+00  0.94078951796E+01  0.51100000000E-03 0.  1.
        -12    1    3    3    0    0 -0.41733388736E+02 -0.14405949266E+01  0.13258769105E+02  0.43812623835E+02  0.00000000000E+00 0.  1.
</event>
<event>
 7    1  0.2641103E-015  0.9000781E+02  0.7816164E-02  0.1186339E+00
        -11   -1    0    0    0    0  0.00000000000E+00  0.00000000000E+00  0.45593999997E+02  0.45594000000E+02  0.51100000000E-03 0.  1.
         11   -1    0    0    0    0 -0.00000000000E+00 -0.00000000000E+00 -0.45593999997E+02  0.45594000000E+02  0.51100000000E-03 0. -1.
    9900012    2    1    2    0    0 -0.71929831667E+00 -0.54811009900E+00 -0.75831317386E+00  0.90007807804E+02  0.90000070067E+02 0.  0.
        -12    1    1    2    0    0  0.71929831667E+00  0.54811009900E+00  0.75831317386E+00  0.11801921956E+01  0.00000000000E+00 0.  1.
         11    1    3    3    0    0  0.34011492132E+02  0.14595439009E+02 -0.10975669929E+01  0.37027193932E+02  0.51100000000E-03 0. -1.
        -11    1    3    3    0    0  0.15548937810E+01  0.81439485254E+01 -0.47667988216E+01  0.95636793924E+01  0.51100000000E-03 0.  1.
        -12    1    3    3    0    0 -0.36285684230E+02 -0.23287497634E+02  0.51060526406E+01  0.43416934480E+02  0.00000000000E+00 0.  1.
</event>
<event>
 7    1  0.2641103E-015  0.9000770E+02  0.7816164E-02  0.1186339E+00
        -11   -1    0    0    0    0  0.00000000000E+00  0.00000000000E+00  0.45593999997E+02  0.45594000000E+02  0.51100000000E-03 0. -1.
         11   -1    0    0    0    0 -0.00000000000E+00 -0.00000000000E+00 -0.45593999997E+02  0.45594000000E+02  0.51100000000E-03 0.  1.
    9900012    2    1    2    0    0 -0.33435493946E+00 -0.10401467123E+01  0.44655385439E+00  0.90007699719E+02  0.89999960555E+02 0.  0.
        -12    1    1    2    0    0  0.33435493946E+00  0.10401467123E+01 -0.44655385439E+00  0.11803002811E+01  0.00000000000E+00 0.  1.
         11    1    3    3    0    0 -0.25626643055E+01  0.11477618319E+01  0.10873316942E+02  0.11230032375E+02  0.51100000000E-03 0. -1.
        -11    1    3    3    0    0 -0.33537489993E+02  0.14130475142E+02 -0.14666745982E+02  0.39237061571E+02  0.51100000000E-03 0.  1.
         12    1    3    3    0    0  0.35765799359E+02 -0.16318383687E+02  0.42399828941E+01  0.39540605773E+02  0.00000000000E+00 0. -1.
</event>
<event>
 7    1  0.2641103E-015  0.9000718E+02  0.7816164E-02  0.1186340E+00
        -11   -1    0    0    0    0  0.00000000000E+00  0.00000000000E+00  0.45593999997E+02  0.45594000000E+02  0.51100000000E-03 0.  1.
         11   -1    0    0    0    0 -0.00000000000E+00 -0.00000000000E+00 -0.45593999997E+02  0.45594000000E+02  0.51100000000E-03 0. -1.
    9900012    2    1    2    0    0  0.26721724941E+00 -0.11473231390E+01  0.81065272631E-01  0.90007183748E+02  0.89999437771E+02 0.  0.
        -12    1    1    2    0    0 -0.26721724941E+00  0.11473231390E+01 -0.81065272631E-01  0.11808162525E+01  0.00000000000E+00 0.  1.
         11    1    3    3    0    0  0.95813436178E+01 -0.38939085351E+02  0.18029955233E+01  0.40141067582E+02  0.51100000000E-03 0. -1.
        -11    1    3    3    0    0 -0.38852750375E+01 -0.32250491827E+01 -0.64842875853E+01  0.82184116530E+01  0.51100000000E-03 0.  1.
        -12    1    3    3    0    0 -0.54288513309E+01  0.41016811395E+02  0.47623573346E+01  0.41647704512E+02  0.00000000000E+00 0.  1.
</event>
<event>
 7    1  0.2641103E-015  0.9000776E+02  0.7816164E-02  0.1186339E+00
        -11   -1    0    0    0    0  0.00000000000E+00  0.00000000000E+00  0.45593999997E+02  0.45594000000E+02  0.51100000000E-03 0.  1.
         11   -1    0    0    0    0 -0.00000000000E+00 -0.00000000000E+00 -0.45593999997E+02  0.45594000000E+02  0.51100000000E-03 0. -1.
    9900012    2    1    2    0    0  0.89513860528E+00  0.30561412489E-01 -0.76861180166E+00  0.90007757981E+02  0.90000019586E+02 0.  0.
        -12    1    1    2    0    0 -0.89513860528E+00 -0.30561412489E-01  0.76861180166E+00  0.11802420194E+01  0.00000000000E+00 0.  1.
         11    1    3    3    0    0 -0.16267869691E+02 -0.23485494194E+02 -0.22108663217E+02  0.36124853097E+02  0.51100000000E-03 0. -1.
        -11    1    3    3    0    0 -0.47843259067E+01 -0.52540194315E+01 -0.53701756499E+01  0.89069232252E+01  0.51100000000E-03 0.  1.
        -12    1    3    3    0    0  0.21947334203E+02  0.28770075038E+02  0.26710227065E+02  0.44975981658E+02  0.00000000000E+00 0.  1.
</event>
<event>
 7    1  0.2641103E-015  0.9000791E+02  0.7816164E-02  0.1186339E+00
        -11   -1    0    0    0    0  0.00000000000E+00  0.00000000000E+00  0.45593999997E+02  0.45594000000E+02  0.51100000000E-03 0.  1.
         11   -1    0    0    0    0 -0.00000000000E+00 -0.00000000000E+00 -0.45593999997E+02  0.45594000000E+02  0.51100000000E-03 0. -1.
    9900012    2    1    2    0    0  0.37689217320E+00 -0.51954943714E+00 -0.99026800024E+00  0.90007911003E+02  0.90000174628E+02 0.  0.
        -12    1    1    2    0    0 -0.37689217320E+00  0.51954943714E+00  0.99026800024E+00  0.11800889967E+01  0.00000000000E+00 0.  1.
         11    1    3    3    0    0 -0.26981319715E+02  0.77501171971E+01 -0.30598587436E+02  0.41525046460E+02  0.51100000000E-03 0. -1.
        -11    1    3    3    0    0  0.71925576574E+01 -0.23796174602E+01 -0.42124994065E+01  0.86683687291E+01  0.51100000000E-03 0.  1.
        -12    1    3    3    0    0  0.20165654231E+02 -0.58900491741E+01  0.33820818842E+02  0.39814495815E+02  0.00000000000E+00 0.  1.
</event>
<event>
 7    1  0.2641103E-015  0.9000766E+02  0.7816164E-02  0.1186339E+00
        -11   -1    0    0    0    0  0.00000000000E+00  0.00000000000E+00  0.45593999997E+02  0.45594000000E+02  0.51100000000E-03 0. -1.
         11   -1    0    0    0    0 -0.00000000000E+00 -0.00000000000E+00 -0.45593999997E+02  0.45594000000E+02  0.51100000000E-03 0.  1.
    9900012    2    1    2    0    0  0.93479878138E+00  0.11065270763E+00  0.71212067645E+00  0.90007657405E+02  0.89999917683E+02 0.  0.
        -12    1    1    2    0    0 -0.93479878138E+00 -0.11065270763E+00 -0.71212067645E+00  0.11803425948E+01  0.00000000000E+00 0.  1.
         11    1    3    3    0    0  0.55764714993E+01  0.47374177628E+01  0.52749960413E+01  0.90202962778E+01  0.51100000000E-03 0. -1.
        -11    1    3    3    0    0 -0.14134232520E+02 -0.38815598174E+02 -0.15086293907E+02  0.43977533521E+02  0.51100000000E-03 0.  1.
         12    1    3    3    0    0  0.94925598022E+01  0.34188833119E+02  0.10523418542E+02  0.37009827606E+02  0.00000000000E+00 0. -1.
</event>
<event>
 7    1  0.2641103E-015  0.9000775E+02  0.7816164E-02  0.1186339E+00
        -11   -1    0    0    0    0  0.00000000000E+00  0.00000000000E+00  0.45593999997E+02  0.45594000000E+02  0.51100000000E-03 0. -1.
         11   -1    0    0    0    0 -0.00000000000E+00 -0.00000000000E+00 -0.45593999997E+02  0.45594000000E+02  0.51100000000E-03 0.  1.
    9900012    2    1    2    0    0  0.51483313322E+00  0.10581682438E+01 -0.90601066344E-01  0.90007753526E+02  0.90000015072E+02 0.  0.
        -12    1    1    2    0    0 -0.51483313322E+00 -0.10581682438E+01  0.90601066344E-01  0.11802464744E+01  0.00000000000E+00 0.  1.
         11    1    3    3    0    0  0.80904695682E+01 -0.19900882857E+02  0.28292694128E+02  0.35524320931E+02  0.51100000000E-03 0. -1.
        -11    1    3    3    0    0  0.51345746900E+01 -0.42363200535E+01  0.67097215589E+01  0.94514881633E+01  0.51100000000E-03 0.  1.
        -12    1    3    3    0    0 -0.12710211125E+02  0.25195371154E+02 -0.35093016753E+02  0.45031944431E+02  0.00000000000E+00 0.  1.
</event>
<event>
 7    1  0.2641103E-015  0.9000771E+02  0.7816164E-02  0.1186339E+00
        -11   -1    0    0    0    0  0.00000000000E+00  0.00000000000E+00  0.45593999997E+02  0.45594000000E+02  0.51100000000E-03 0.  1.
         11   -1    0    0    0    0 -0.00000000000E+00 -0.00000000000E+00 -0.45593999997E+02  0.45594000000E+02  0.51100000000E-03 0. -1.
    9900012    2    1    2    0    0 -0.11621645654E+01 -0.20208510330E+00 -0.40333703156E-01  0.90007706954E+02  0.89999967886E+02 0.  0.
        -12    1    1    2    0    0  0.11621645654E+01  0.20208510330E+00  0.40333703156E-01  0.11802930457E+01  0.00000000000E+00 0.  1.
         11    1    3    3    0    0 -0.28676093609E+01 -0.52420627213E+01 -0.97895312257E+01  0.11468972356E+02  0.51100000000E-03 0. -1.
        -11    1    3    3    0    0 -0.30894956974E+02  0.15434457602E+02 -0.13596540284E+02  0.37115855855E+02  0.51100000000E-03 0.  1.
         12    1    3    3    0    0  0.32600401770E+02 -0.10394479984E+02  0.23345737806E+02  0.41422878743E+02  0.00000000000E+00 0. -1.
</event>
<event>
 7    1  0.2641103E-015  0.9000788E+02  0.7816164E-02  0.1186339E+00
        -11   -1    0    0    0    0  0.00000000000E+00  0.00000000000E+00  0.45593999997E+02  0.45594000000E+02  0.51100000000E-03 0. -1.
         11   -1    0    0    0    0 -0.00000000000E+00 -0.00000000000E+00 -0.45593999997E+02  0.45594000000E+02  0.51100000000E-03 0.  1.
    9900012    2    1    2    0    0 -0.91832541450E+00 -0.60509539964E+00  0.42803493164E+00  0.90007883094E+02  0.90000146351E+02 0.  0.
        -12    1    1    2    0    0  0.91832541450E+00  0.60509539964E+00 -0.42803493164E+00  0.11801169062E+01  0.00000000000E+00 0.  1.
         11    1    3    3    0    0  0.25485643298E+02  0.19002247406E+02 -0.12851686660E+02  0.34289492138E+02  0.51100000000E-03 0. -1.
        -11    1    3    3    0    0  0.88661262200E+01  0.50561775206E+01 -0.12751696063E+01  0.10285872985E+02  0.51100000000E-03 0.  1.
        -12    1    3    3    0    0 -0.35270094933E+02 -0.24663520326E+02  0.14554891198E+02  0.45432517971E+02  0.00000000000E+00 0.  1.
</event>
<event>
 7    1  0.2641103E-015  0.9000780E+02  0.7816164E-02  0.1186339E+00
        -11   -1    0    0    0    0  0.00000000000E+00  0.00000000000E+00  0.45593999997E+02  0.45594000000E+02  0.51100000000E-03 0. -1.
         11   -1    0    0    0    0 -0.00000000000E+00 -0.00000000000E+00 -0.45593999997E+02  0.45594000000E+02  0.51100000000E-03 0.  1.
    9900012    2    1    2    0    0 -0.10683876945E+00 -0.11093959884E+01  0.38818957475E+00  0.90007802928E+02  0.90000065127E+02 0.  0.
        -12    1    1    2    0    0  0.10683876945E+00  0.11093959884E+01 -0.38818957475E+00  0.11801970715E+01  0.00000000000E+00 0.  1.
         11    1    3    3    0    0  0.40556999748E+01 -0.38119115669E+02  0.64866916298E+01  0.38879208457E+02  0.51100000000E-03 0. -1.
        -11    1    3    3    0    0 -0.82414976717E+01 -0.63525878591E+00  0.72342523450E+01  0.10984545728E+02  0.51100000000E-03 0.  1.
        -12    1    3    3    0    0  0.40789589275E+01  0.37644978466E+02 -0.13332754400E+02  0.40144048744E+02  0.00000000000E+00 0.  1.
</event>
<event>
 7    1  0.2641103E-015  0.9000771E+02  0.7816164E-02  0.1186339E+00
        -11   -1    0    0    0    0  0.00000000000E+00  0.00000000000E+00  0.45593999997E+02  0.45594000000E+02  0.51100000000E-03 0.  1.
         11   -1    0    0    0    0 -0.00000000000E+00 -0.00000000000E+00 -0.45593999997E+02  0.45594000000E+02  0.51100000000E-03 0. -1.
    9900012    2    1    2    0    0 -0.76635835259E+00  0.25610024436E+00 -0.86034855421E+00  0.90007706776E+02  0.89999967706E+02 0.  0.
        -12    1    1    2    0    0  0.76635835259E+00 -0.25610024436E+00  0.86034855421E+00  0.11802932239E+01  0.00000000000E+00 0.  1.
         11    1    3    3    0    0 -0.10247554493E+02  0.16469664556E+01  0.62340364947E+01  0.12107356560E+02  0.51100000000E-03 0. -1.
        -11    1    3    3    0    0 -0.13843766868E+02  0.30584883898E+02 -0.16216733240E+02  0.37283608214E+02  0.51100000000E-03 0.  1.
         12    1    3    3    0    0  0.23324963008E+02 -0.31975750110E+02  0.91223481911E+01  0.40616742003E+02  0.00000000000E+00 0. -1.
</event>
<event>
 7    1  0.2641103E-015  0.9000776E+02  0.7816164E-02  0.1186339E+00
        -11   -1    0    0    0    0  0.00000000000E+00  0.00000000000E+00  0.45593999997E+02  0.45594000000E+02  0.51100000000E-03 0.  1.
         11   -1    0    0    0    0 -0.00000000000E+00 -0.00000000000E+00 -0.45593999997E+02  0.45594000000E+02  0.51100000000E-03 0. -1.
    9900012    2    1    2    0    0  0.11227080766E+00  0.11605056928E+01  0.18327347049E+00  0.90007759617E+02  0.90000021244E+02 0.  0.
        -12    1    1    2    0    0 -0.11227080766E+00 -0.11605056928E+01 -0.18327347049E+00  0.11802403833E+01  0.00000000000E+00 0.  1.
         11    1    3    3    0    0  0.20515327510E+02  0.27675138537E+02 -0.15551065972E+02  0.37797190491E+02  0.51100000000E-03 0. -1.
        -11    1    3    3    0    0  0.95209122897E+01 -0.88629668370E+00 -0.55295889710E+00  0.95780507642E+01  0.51100000000E-03 0.  1.
        -12    1    3    3    0    0 -0.29923968992E+02 -0.25628336161E+02  0.16287298340E+02  0.42632518361E+02  0.00000000000E+00 0.  1.
</event>
<event>
 7    1  0.2641103E-015  0.9000764E+02  0.7816164E-02  0.1186339E+00
        -11   -1    0    0    0    0  0.00000000000E+00  0.00000000000E+00  0.45593999997E+02  0.45594000000E+02  0.51100000000E-03 0.  1.
         11   -1    0    0    0    0 -0.00000000000E+00 -0.00000000000E+00 -0.45593999997E+02  0.45594000000E+02  0.51100000000E-03 0. -1.
    9900012    2    1    2    0    0 -0.10707099631E+01 -0.63492277993E-01 -0.49274175175E+00  0.90007641780E+02  0.89999901851E+02 0.  0.
        -12    1    1    2    0    0  0.10707099631E+01  0.63492277993E-01  0.49274175175E+00  0.11803582203E+01  0.00000000000E+00 0.  1.
         11    1    3    3    0    0  0.22211461176E+02  0.32901810781E+02  0.18842795322E+01  0.39742026494E+02  0.51100000000E-03 0. -1.
        -11    1    3    3    0    0 -0.85181714484E+01  0.30657275473E+01  0.54236500530E+01  0.10553383835E+02  0.51100000000E-03 0.  1.
        -12    1    3    3    0    0 -0.14763999690E+02 -0.36031030607E+02 -0.78006713370E+01  0.39712231450E+02  0.00000000000E+00 0.  1.
</event>
<event>
 7    1  0.2641103E-015  0.9000771E+02  0.7816164E-02  0.1186339E+00
        -11   -1    0    0    0    0  0.00000000000E+00  0.00000000000E+00  0.45593999997E+02  0.45594000000E+02  0.51100000000E-03 0. -1.
         11   -1    0    0    0    0 -0.00000000000E+00 -0.00000000000E+00 -0.45593999997E+02  0.45594000000E+02  0.51100000000E-03 0.  1.
    9900012    2    1    2    0    0 -0.78349534642E+00  0.88231287132E+00  0.27119163659E-01  0.90007713420E+02  0.89999974438E+02 0.  0.
        -12    1    1    2    0    0  0.78349534642E+00 -0.88231287132E+00 -0.27119163659E-01  0.11802865795E+01  0.00000000000E+00 0.  1.
         11    1    3    3    0    0 -0.22177936477E+02  0.29316481749E+02  0.15348318047E+02  0.39835760764E+02  0.51100000000E-03 0. -1.
        -11    1    3    3    0    0  0.71252144977E+01  0.61689448698E+01  0.71468656206E+00  0.94517373847E+01  0.51100000000E-03 0.  1.
        -12    1    3    3    0    0  0.14269226633E+02 -0.34603113748E+02 -0.16035885445E+02  0.40720215272E+02  0.00000000000E+00 0.  1.
</event>
<event>
 7    1  0.2641103E-015  0.9000773E+02  0.7816164E-02  0.1186339E+00
        -11   -1    0    0    0    0  0.00000000000E+00  0.00000000000E+00  0.45593999997E+02  0.45594000000E+02  0.51100000000E-03 0.  1.
         11   -1    0    0    0    0 -0.00000000000E+00 -0.00000000000E+00 -0.45593999997E+02  0.45594000000E+02  0.51100000000E-03 0. -1.
    9900012    2    1    2    0    0  0.89658429487E+00 -0.34356253167E+00  0.68639613060E+00  0.90007729582E+02  0.89999990813E+02 0.  0.
        -12    1    1    2    0    0 -0.89658429487E+00  0.34356253167E+00 -0.68639613060E+00  0.11802704178E+01  0.00000000000E+00 0.  1.
         11    1    3    3    0    0 -0.28457687258E+02 -0.14174211186E+00  0.24468168329E+02  0.37530671678E+02  0.51100000000E-03 0. -1.
        -11    1    3    3    0    0 -0.51060850424E+01  0.28026645442E+01  0.48453357283E+01  0.75765633099E+01  0.51100000000E-03 0.  1.
        -12    1    3    3    0    0  0.34460356596E+02 -0.30044849640E+01 -0.28627107927E+02  0.44900494595E+02  0.00000000000E+00 0.  1.
</event>
<event>
 7    1  0.2641103E-015  0.9000772E+02  0.7816164E-02  0.1186339E+00
        -11   -1    0    0    0    0  0.00000000000E+00  0.00000000000E+00  0.45593999997E+02  0.45594000000E+02  0.51100000000E-03 0. -1.
         11   -1    0    0    0    0 -0.00000000000E+00 -0.00000000000E+00 -0.45593999997E+02  0.45594000000E+02  0.51100000000E-03 0.  1.
    9900012    2    1    2    0    0 -0.43895344303E+00  0.10779771523E+01 -0.19581411124E+00  0.90007721206E+02  0.89999982326E+02 0.  0.
        -12    1    1    2    0    0  0.43895344303E+00 -0.10779771523E+01  0.19581411124E+00  0.11802787943E+01  0.00000000000E+00 0.  1.
         11    1    3    3    0    0  0.30242375838E+02 -0.14484982859E+02  0.17599297154E+02  0.37870189929E+02  0.51100000000E-03 0. -1.
        -11    1    3    3    0    0  0.29235683283E+01  0.55223334977E+01  0.68498910588E+01  0.92717003192E+01  0.51100000000E-03 0.  1.
        -12    1    3    3    0    0 -0.33604897609E+02  0.10040626513E+02 -0.24645002324E+02  0.42865830957E+02  0.00000000000E+00 0.  1.
</event>
<event>
 7    1  0.2641103E-015  0.9000770E+02  0.7816164E-02  0.1186339E+00
        -11   -1    0    0    0    0  0.00000000000E+00  0.00000000000E+00  0.45593999997E+02  0.45594000000E+02  0.51100000000E-03 0.  1.
         11   -1    0    0    0    0 -0.00000000000E+00 -0.00000000000E+00 -0.45593999997E+02  0.45594000000E+02  0.51100000000E-03 0. -1.
    9900012    2    1    2    0    0  0.47204235110E+00 -0.10633299115E+01 -0.19904056675E+00  0.90007698501E+02  0.89999959321E+02 0.  0.
        -12    1    1    2    0    0 -0.47204235110E+00  0.10633299115E+01  0.19904056675E+00  0.11803014993E+01  0.00000000000E+00 0.  1.
         11    1    3    3    0    0 -0.16199975389E+01 -0.27382134147E+02 -0.29916864766E+02  0.40588476938E+02  0.51100000000E-03 0. -1.
        -11    1    3    3    0    0 -0.51038394953E+01 -0.49593000816E+01  0.32739881029E+01  0.78334432564E+01  0.51100000000E-03 0.  1.
        -12    1    3    3    0    0  0.71958793853E+01  0.31278104317E+02  0.26443836096E+02  0.41585778306E+02  0.00000000000E+00 0.  1.
</event>
<event>
 7    1  0.4369121E-015  0.9000775E+02  0.7816164E-02  0.1186339E+00
        -11   -1    0    0    0    0  0.00000000000E+00  0.00000000000E+00  0.45593999997E+02  0.45594000000E+02  0.51100000000E-03 0. -1.
         11   -1    0    0    0    0 -0.00000000000E+00 -0.00000000000E+00 -0.45593999997E+02  0.45594000000E+02  0.51100000000E-03 0.  1.
    9900012    2    1    2    0    0 -0.19961027729E+00 -0.10864536900E+01  0.41565742456E+00  0.90007747070E+02  0.90000008532E+02 0.  0.
        -12    1    1    2    0    0  0.19961027729E+00  0.10864536900E+01 -0.41565742456E+00  0.11802529296E+01  0.00000000000E+00 0.  1.
         11    1    3    3    0    0  0.90111304450E+01 -0.30860654442E+01 -0.20421113172E+01  0.97413803291E+01  0.51100000000E-03 0. -1.
        -11    1    3    3    0    0  0.64928663833E+01 -0.80158976363E+01 -0.36046664693E+02  0.37493652324E+02  0.51100000000E-03 0.  1.
         12    1    3    3    0    0 -0.15703607106E+02  0.10015509390E+02  0.38504433435E+02  0.42772714418E+02  0.00000000000E+00 0. -1.
</event>
<event>
 7    1  0.2641103E-015  0.9000773E+02  0.7816164E-02  0.1186339E+00
        -11   -1    0    0    0    0  0.00000000000E+00  0.00000000000E+00  0.45593999997E+02  0.45594000000E+02  0.51100000000E-03 0. -1.
         11   -1    0    0    0    0 -0.00000000000E+00 -0.00000000000E+00 -0.45593999997E+02  0.45594000000E+02  0.51100000000E-03 0.  1.
    9900012    2    1    2    0    0 -0.10888678140E+01 -0.45465459429E+00 -0.26430240105E-01  0.90007727797E+02  0.89999989004E+02 0.  0.
        -12    1    1    2    0    0  0.10888678140E+01  0.45465459429E+00  0.26430240105E-01  0.11802722034E+01  0.00000000000E+00 0.  1.
         11    1    3    3    0    0  0.65379450358E+01  0.78781628198E+01  0.75992075460E+01  0.12749828638E+02  0.51100000000E-03 0. -1.
        -11    1    3    3    0    0  0.10371615703E+02 -0.17678551775E+02  0.28929249604E+02  0.35454239352E+02  0.51100000000E-03 0.  1.
         12    1    3    3    0    0 -0.17998428553E+02  0.93457343611E+01 -0.36554887390E+02  0.41803659806E+02  0.00000000000E+00 0. -1.
</event>
<event>
 7    1  0.2641103E-015  0.9000772E+02  0.7816164E-02  0.1186339E+00
        -11   -1    0    0    0    0  0.00000000000E+00  0.00000000000E+00  0.45593999997E+02  0.45594000000E+02  0.51100000000E-03 0.  1.
         11   -1    0    0    0    0 -0.00000000000E+00 -0.00000000000E+00 -0.45593999997E+02  0.45594000000E+02  0.51100000000E-03 0. -1.
    9900012    2    1    2    0    0  0.15812730378E+00  0.30222119904E-01 -0.11692448861E+01  0.90007724090E+02  0.89999985248E+02 0.  0.
        -12    1    1    2    0    0 -0.15812730378E+00 -0.30222119904E-01  0.11692448861E+01  0.11802759103E+01  0.00000000000E+00 0.  1.
         11    1    3    3    0    0  0.10233154196E+02  0.54440718407E+01 -0.40623516492E+02  0.42244827558E+02  0.51100000000E-03 0. -1.
        -11    1    3    3    0    0 -0.35552919161E+01  0.71831782589E+01  0.28500125799E+01  0.85065105933E+01  0.51100000000E-03 0.  1.
        -12    1    3    3    0    0 -0.65197349765E+01 -0.12597027980E+02  0.36604259026E+02  0.39256385938E+02  0.00000000000E+00 0.  1.
</event>
<event>
 7    1  0.2641103E-015  0.9000763E+02  0.7816164E-02  0.1186339E+00
        -11   -1    0    0    0    0  0.00000000000E+00  0.00000000000E+00  0.45593999997E+02  0.45594000000E+02  0.51100000000E-03 0.  1.
         11   -1    0    0    0    0 -0.00000000000E+00 -0.00000000000E+00 -0.45593999997E+02  0.45594000000E+02  0.51100000000E-03 0. -1.
    9900012    2    1    2    0    0 -0.73299794950E+00  0.21440522641E+00 -0.90000965169E+00  0.90007630156E+02  0.89999890074E+02 0.  0.
        -12    1    1    2    0    0  0.73299794950E+00 -0.21440522641E+00  0.90000965169E+00  0.11803698438E+01  0.00000000000E+00 0.  1.
         11    1    3    3    0    0  0.53663492294E+01 -0.54599077627E+01 -0.13611256129E+02  0.15616484575E+02  0.51100000000E-03 0. -1.
        -11    1    3    3    0    0 -0.95586510512E+00  0.23461780993E+02 -0.23812151186E+02  0.33442299410E+02  0.51100000000E-03 0.  1.
         12    1    3    3    0    0 -0.51434820737E+01 -0.17787468004E+02  0.36523397663E+02  0.40948846171E+02  0.00000000000E+00 0. -1.
</event>
<event>
 7    1  0.2641103E-015  0.9000773E+02  0.7816164E-02  0.1186339E+00
        -11   -1    0    0    0    0  0.00000000000E+00  0.00000000000E+00  0.45593999997E+02  0.45594000000E+02  0.51100000000E-03 0.  1.
         11   -1    0    0    0    0 -0.00000000000E+00 -0.00000000000E+00 -0.45593999997E+02  0.45594000000E+02  0.51100000000E-03 0. -1.
    9900012    2    1    2    0    0 -0.10820762316E+01  0.33294456970E+00 -0.33361675699E+00  0.90007728337E+02  0.89999989551E+02 0.  0.
        -12    1    1    2    0    0  0.10820762316E+01 -0.33294456970E+00  0.33361675699E+00  0.11802716628E+01  0.00000000000E+00 0.  1.
         11    1    3    3    0    0 -0.32244264968E+02  0.10232939033E+02 -0.16303614292E+02  0.37552809534E+02  0.51100000000E-03 0. -1.
        -11    1    3    3    0    0 -0.84581184857E+01 -0.28998563045E+01 -0.55711592500E+00  0.89587562374E+01  0.51100000000E-03 0.  1.
        -12    1    3    3    0    0  0.39620307222E+02 -0.70001381592E+01  0.16527113460E+02  0.43496162566E+02  0.00000000000E+00 0.  1.
</event>
<event>
 7    1  0.2641103E-015  0.9000766E+02  0.7816164E-02  0.1186339E+00
        -11   -1    0    0    0    0  0.00000000000E+00  0.00000000000E+00  0.45593999997E+02  0.45594000000E+02  0.51100000000E-03 0.  1.
         11   -1    0    0    0    0 -0.00000000000E+00 -0.00000000000E+00 -0.45593999997E+02  0.45594000000E+02  0.51100000000E-03 0. -1.
    9900012    2    1    2    0    0 -0.46030982631E-02 -0.11799236140E+01  0.31139236858E-01  0.90007656586E+02  0.89999916853E+02 0.  0.
        -12    1    1    2    0    0  0.46030982631E-02  0.11799236140E+01 -0.31139236858E-01  0.11803434142E+01  0.00000000000E+00 0.  1.
         11    1    3    3    0    0 -0.62001195144E+01  0.81146937900E+01  0.77088959144E+01  0.12795187133E+02  0.51100000000E-03 0. -1.
        -11    1    3    3    0    0  0.30786566970E+02  0.88672864374E+00 -0.29610467333E+02  0.42724451658E+02  0.51100000000E-03 0.  1.
         12    1    3    3    0    0 -0.24591050554E+02 -0.10181346048E+02  0.21932710656E+02  0.34488017795E+02  0.00000000000E+00 0. -1.
</event>
<event>
 7    1  0.2641103E-015  0.9000768E+02  0.7816164E-02  0.1186339E+00
        -11   -1    0    0    0    0  0.00000000000E+00  0.00000000000E+00  0.45593999997E+02  0.45594000000E+02  0.51100000000E-03 0.  1.
         11   -1    0    0    0    0 -0.00000000000E+00 -0.00000000000E+00 -0.45593999997E+02  0.45594000000E+02  0.51100000000E-03 0. -1.
    9900012    2    1    2    0    0  0.80416287300E+00  0.73814018731E+00  0.44902537346E+00  0.90007681124E+02  0.89999941715E+02 0.  0.
        -12    1    1    2    0    0 -0.80416287300E+00 -0.73814018731E+00 -0.44902537346E+00  0.11803188757E+01  0.00000000000E+00 0.  1.
         11    1    3    3    0    0  0.69068342178E+00  0.10243349712E+02 -0.18849456860E+01  0.10438212367E+02  0.51100000000E-03 0. -1.
        -11    1    3    3    0    0 -0.19629126105E+01  0.33332818425E+02  0.12220156550E+02  0.35556462654E+02  0.51100000000E-03 0.  1.
         12    1    3    3    0    0  0.20763920617E+01 -0.42838027950E+02 -0.98861854908E+01  0.44013006103E+02  0.00000000000E+00 0. -1.
</event>
<event>
 7    1  0.2641103E-015  0.9000771E+02  0.7816164E-02  0.1186339E+00
        -11   -1    0    0    0    0  0.00000000000E+00  0.00000000000E+00  0.45593999997E+02  0.45594000000E+02  0.51100000000E-03 0.  1.
         11   -1    0    0    0    0 -0.00000000000E+00 -0.00000000000E+00 -0.45593999997E+02  0.45594000000E+02  0.51100000000E-03 0. -1.
    9900012    2    1    2    0    0  0.91616255338E+00  0.44150297943E+00  0.59900391891E+00  0.90007710036E+02  0.89999971008E+02 0.  0.
        -12    1    1    2    0    0 -0.91616255338E+00 -0.44150297943E+00 -0.59900391891E+00  0.11802899643E+01  0.00000000000E+00 0.  1.
         11    1    3    3    0    0 -0.95003467502E+01  0.23608134358E+02 -0.27385935822E+02  0.37384356051E+02  0.51100000000E-03 0. -1.
        -11    1    3    3    0    0 -0.87963754147E+01  0.31372988190E+01 -0.49910931993E+00  0.93524314855E+01  0.51100000000E-03 0.  1.
        -12    1    3    3    0    0  0.19212884718E+02 -0.26303930197E+02  0.28484049061E+02  0.43270922499E+02  0.00000000000E+00 0.  1.
</event>
<event>
 7    1  0.2641103E-015  0.9000774E+02  0.7816164E-02  0.1186339E+00
        -11   -1    0    0    0    0  0.00000000000E+00  0.00000000000E+00  0.45593999997E+02  0.45594000000E+02  0.51100000000E-03 0.  1.
         11   -1    0    0    0    0 -0.00000000000E+00 -0.00000000000E+00 -0.45593999997E+02  0.45594000000E+02  0.51100000000E-03 0. -1.
    9900012    2    1    2    0    0 -0.11609783595E+01 -0.18725840311E+00 -0.10035840784E+00  0.90007742286E+02  0.90000003685E+02 0.  0.
        -12    1    1    2    0    0  0.11609783595E+01  0.18725840311E+00  0.10035840784E+00  0.11802577137E+01  0.00000000000E+00 0.  1.
         11    1    3    3    0    0 -0.10414955835E+02 -0.65042701745E+01 -0.36943697916E+02  0.38930883004E+02  0.51100000000E-03 0. -1.
        -11    1    3    3    0    0 -0.42753837199E+01  0.59450787944E+01 -0.37923362384E+01  0.82464951483E+01  0.51100000000E-03 0.  1.
        -12    1    3    3    0    0  0.13529361196E+02  0.37193297693E+00  0.40635675746E+02  0.42830364134E+02  0.00000000000E+00 0.  1.
</event>
<event>
 7    1  0.2641103E-015  0.9000717E+02  0.7816164E-02  0.1186340E+00
        -11   -1    0    0    0    0  0.00000000000E+00  0.00000000000E+00  0.45593999997E+02  0.45594000000E+02  0.51100000000E-03 0. -1.
         11   -1    0    0    0    0 -0.00000000000E+00 -0.00000000000E+00 -0.45593999997E+02  0.45594000000E+02  0.51100000000E-03 0.  1.
    9900012    2    1    2    0    0  0.10326109705E+01  0.53567514141E+00 -0.20280503996E+00  0.90007168446E+02  0.89999422268E+02 0.  0.
        -12    1    1    2    0    0 -0.10326109705E+01 -0.53567514141E+00  0.20280503996E+00  0.11808315535E+01  0.00000000000E+00 0.  1.
         11    1    3    3    0    0  0.39877898150E+00 -0.10798463109E+02 -0.97003945042E+01  0.14521139211E+02  0.51100000000E-03 0. -1.
        -11    1    3    3    0    0  0.33943628301E+02  0.20903335729E+02  0.87919625151E+01  0.40821782812E+02  0.51100000000E-03 0.  1.
         12    1    3    3    0    0 -0.33309796312E+02 -0.95691974792E+01  0.70562694912E+00  0.34664246424E+02  0.00000000000E+00 0. -1.
</event>
<event>
 7    1  0.2641103E-015  0.9000781E+02  0.7816164E-02  0.1186339E+00
        -11   -1    0    0    0    0  0.00000000000E+00  0.00000000000E+00  0.45593999997E+02  0.45594000000E+02  0.51100000000E-03 0.  1.
         11   -1    0    0    0    0 -0.00000000000E+00 -0.00000000000E+00 -0.45593999997E+02  0.45594000000E+02  0.51100000000E-03 0. -1.
    9900012    2    1    2    0    0  0.36802768764E-01 -0.11231472919E+01 -0.36060870767E+00  0.90007808099E+02  0.90000070366E+02 0.  0.
        -12    1    1    2    0    0 -0.36802768764E-01  0.11231472919E+01  0.36060870767E+00  0.11801919009E+01  0.00000000000E+00 0.  1.
         11    1    3    3    0    0 -0.31386453884E+01  0.55861077886E+01 -0.75129624633E+01  0.98742240372E+01  0.51100000000E-03 0. -1.
        -11    1    3    3    0    0 -0.22376501749E+01 -0.35455436027E+02 -0.19530388906E+02  0.40540487334E+02  0.51100000000E-03 0.  1.
         12    1    3    3    0    0  0.54130983320E+01  0.28746180947E+02  0.26682742661E+02  0.39593096728E+02  0.00000000000E+00 0. -1.
</event>
<event>
 7    1  0.2641103E-015  0.9000774E+02  0.7816164E-02  0.1186339E+00
        -11   -1    0    0    0    0  0.00000000000E+00  0.00000000000E+00  0.45593999997E+02  0.45594000000E+02  0.51100000000E-03 0.  1.
         11   -1    0    0    0    0 -0.00000000000E+00 -0.00000000000E+00 -0.45593999997E+02  0.45594000000E+02  0.51100000000E-03 0. -1.
    9900012    2    1    2    0    0 -0.61638857260E+00  0.79904734718E+00  0.61205353936E+00  0.90007736864E+02  0.89999998190E+02 0.  0.
        -12    1    1    2    0    0  0.61638857260E+00 -0.79904734718E+00 -0.61205353936E+00  0.11802631361E+01  0.00000000000E+00 0.  1.
         11    1    3    3    0    0  0.19313129973E+02  0.11180070713E+02  0.14614272002E+01  0.22363513593E+02  0.51100000000E-03 0. -1.
        -11    1    3    3    0    0  0.21782574058E+02  0.52432085465E+01  0.42723682499E+01  0.22808439210E+02  0.51100000000E-03 0.  1.
        -12    1    3    3    0    0 -0.41712092603E+02 -0.15624231913E+02 -0.51217419107E+01  0.44835784061E+02  0.00000000000E+00 0.  1.
</event>
<event>
 7    1  0.2641103E-015  0.9000767E+02  0.7816164E-02  0.1186339E+00
        -11   -1    0    0    0    0  0.00000000000E+00  0.00000000000E+00  0.45593999997E+02  0.45594000000E+02  0.51100000000E-03 0. -1.
         11   -1    0    0    0    0 -0.00000000000E+00 -0.00000000000E+00 -0.45593999997E+02  0.45594000000E+02  0.51100000000E-03 0.  1.
    9900012    2    1    2    0    0 -0.43212494953E+00 -0.97846416557E+00 -0.49905354356E+00  0.90007670159E+02  0.89999930605E+02 0.  0.
        -12    1    1    2    0    0  0.43212494953E+00  0.97846416557E+00  0.49905354356E+00  0.11803298415E+01  0.00000000000E+00 0.  1.
         11    1    3    3    0    0  0.22622319937E+01 -0.22829261139E+02  0.31278664046E+02  0.38789788379E+02  0.51100000000E-03 0. -1.
        -11    1    3    3    0    0  0.96219342109E+01  0.11852413109E+00  0.13615998821E+01  0.97185194566E+01  0.51100000000E-03 0.  1.
        -12    1    3    3    0    0 -0.12316291154E+02  0.21732272842E+02 -0.33139317472E+02  0.41499362323E+02  0.00000000000E+00 0.  1.
</event>
<event>
 7    1  0.2641103E-015  0.9000716E+02  0.7816164E-02  0.1186340E+00
        -11   -1    0    0    0    0  0.00000000000E+00  0.00000000000E+00  0.45593999997E+02  0.45594000000E+02  0.51100000000E-03 0. -1.
         11   -1    0    0    0    0 -0.00000000000E+00 -0.00000000000E+00 -0.45593999997E+02  0.45594000000E+02  0.51100000000E-03 0.  1.
    9900012    2    1    2    0    0 -0.11591868835E+01  0.93614369189E-01  0.20469314497E+00  0.90007162516E+02  0.89999416259E+02 0.  0.
        -12    1    1    2    0    0  0.11591868835E+01 -0.93614369189E-01 -0.20469314497E+00  0.11808374845E+01  0.00000000000E+00 0.  1.
         11    1    3    3    0    0  0.72885322754E+01  0.15476781158E+01  0.28467231398E+01  0.79763301822E+01  0.51100000000E-03 0. -1.
        -11    1    3    3    0    0 -0.10380740205E+02  0.39567826936E+02 -0.56084881047E+00  0.40910722889E+02  0.51100000000E-03 0.  1.
         12    1    3    3    0    0  0.19330210462E+01 -0.41021890683E+02 -0.20811811844E+01  0.41120109444E+02  0.00000000000E+00 0. -1.
</event>
<event>
 7    1  0.2641103E-015  0.9000716E+02  0.7816164E-02  0.1186340E+00
        -11   -1    0    0    0    0  0.00000000000E+00  0.00000000000E+00  0.45593999997E+02  0.45594000000E+02  0.51100000000E-03 0.  1.
         11   -1    0    0    0    0 -0.00000000000E+00 -0.00000000000E+00 -0.45593999997E+02  0.45594000000E+02  0.51100000000E-03 0. -1.
    9900012    2    1    2    0    0 -0.54538030482E+00 -0.87641456527E+00  0.57345172088E+00  0.90007157486E+02  0.89999411163E+02 0.  0.
        -12    1    1    2    0    0  0.54538030482E+00  0.87641456527E+00 -0.57345172088E+00  0.11808425142E+01  0.00000000000E+00 0.  1.
         11    1    3    3    0    0  0.18199517340E+01  0.44434664207E+01  0.86916671054E+01  0.99298386431E+01  0.51100000000E-03 0. -1.
        -11    1    3    3    0    0 -0.15891664133E+02 -0.35127170887E+02  0.13500117401E+02  0.40849924033E+02  0.51100000000E-03 0.  1.
         12    1    3    3    0    0  0.13526332094E+02  0.29807289901E+02 -0.21618332785E+02  0.39227394810E+02  0.00000000000E+00 0. -1.
</event>
<event>
 7    1  0.3123064E-015  0.9000759E+02  0.7816164E-02  0.1186339E+00
        -11   -1    0    0    0    0  0.00000000000E+00  0.00000000000E+00  0.45593999997E+02  0.45594000000E+02  0.51100000000E-03 0.  1.
         11   -1    0    0    0    0 -0.00000000000E+00 -0.00000000000E+00 -0.45593999997E+02  0.45594000000E+02  0.51100000000E-03 0. -1.
    9900012    2    1    2    0    0  0.39474464242E+00 -0.41814364710E+00 -0.10308703993E+01  0.90007592773E+02  0.89999852197E+02 0.  0.
        -12    1    1    2    0    0 -0.39474464242E+00  0.41814364710E+00  0.10308703993E+01  0.11804072274E+01  0.00000000000E+00 0.  1.
         11    1    3    3    0    0  0.48085660488E+01 -0.84632931485E+01 -0.18406466198E+01  0.99064432872E+01  0.51100000000E-03 0. -1.
        -11    1    3    3    0    0 -0.20377283686E+02 -0.23456393789E+02  0.22763909644E+02  0.38517939749E+02  0.51100000000E-03 0.  1.
         12    1    3    3    0    0  0.15963462279E+02  0.31501543290E+02 -0.21954133423E+02  0.41583209736E+02  0.00000000000E+00 0. -1.
</event>
<event>
 7    1  0.2641103E-015  0.9000820E+02  0.7816164E-02  0.1186338E+00
        -11   -1    0    0    0    0  0.00000000000E+00  0.00000000000E+00  0.45593999997E+02  0.45594000000E+02  0.51100000000E-03 0. -1.
         11   -1    0    0    0    0 -0.00000000000E+00 -0.00000000000E+00 -0.45593999997E+02  0.45594000000E+02  0.51100000000E-03 0.  1.
    9900012    2    1    2    0    0  0.78492858716E+00 -0.83846094671E+00 -0.26980637789E+00  0.90008201234E+02  0.90000468689E+02 0.  0.
        -12    1    1    2    0    0 -0.78492858716E+00  0.83846094671E+00  0.26980637789E+00  0.11797987657E+01  0.00000000000E+00 0.  1.
         11    1    3    3    0    0  0.10201849138E+02 -0.73824879617E+00 -0.12297752504E+01  0.10302188338E+02  0.51100000000E-03 0. -1.
        -11    1    3    3    0    0 -0.11764275552E+01 -0.24008462587E+02 -0.30824416632E+02  0.39088808098E+02  0.51100000000E-03 0.  1.
         12    1    3    3    0    0 -0.82404929959E+01  0.23908250436E+02  0.31784385504E+02  0.40617204798E+02  0.00000000000E+00 0. -1.
</event>
<event>
 7    1  0.2641103E-015  0.9000772E+02  0.7816164E-02  0.1186339E+00
        -11   -1    0    0    0    0  0.00000000000E+00  0.00000000000E+00  0.45593999997E+02  0.45594000000E+02  0.51100000000E-03 0. -1.
         11   -1    0    0    0    0 -0.00000000000E+00 -0.00000000000E+00 -0.45593999997E+02  0.45594000000E+02  0.51100000000E-03 0.  1.
    9900012    2    1    2    0    0  0.91046347739E-01 -0.11766870968E+01  0.13645453090E-01  0.90007716915E+02  0.89999977979E+02 0.  0.
        -12    1    1    2    0    0 -0.91046347739E-01  0.11766870968E+01 -0.13645453090E-01  0.11802830845E+01  0.00000000000E+00 0.  1.
         11    1    3    3    0    0  0.93336993332E+01 -0.25972086197E+02  0.21090176900E+02  0.34734172894E+02  0.51100000000E-03 0. -1.
        -11    1    3    3    0    0  0.52290789211E+01 -0.42229782059E+01  0.88734733286E+01  0.11131726751E+02  0.51100000000E-03 0.  1.
        -12    1    3    3    0    0 -0.14471731906E+02  0.29018377306E+02 -0.29950004776E+02  0.44141817270E+02  0.00000000000E+00 0.  1.
</event>
<event>
 7    1  0.2641103E-015  0.9000775E+02  0.7816164E-02  0.1186339E+00
        -11   -1    0    0    0    0  0.00000000000E+00  0.00000000000E+00  0.45593999997E+02  0.45594000000E+02  0.51100000000E-03 0. -1.
         11   -1    0    0    0    0 -0.00000000000E+00 -0.00000000000E+00 -0.45593999997E+02  0.45594000000E+02  0.51100000000E-03 0.  1.
    9900012    2    1    2    0    0 -0.62895370890E+00 -0.88974253535E+00  0.45361211267E+00  0.90007750664E+02  0.90000012172E+02 0.  0.
        -12    1    1    2    0    0  0.62895370890E+00  0.88974253535E+00 -0.45361211267E+00  0.11802493363E+01  0.00000000000E+00 0.  1.
         11    1    3    3    0    0 -0.23885053686E+02  0.36766729413E+02  0.35007655940E+01  0.43983446219E+02  0.51100000000E-03 0. -1.
        -11    1    3    3    0    0  0.81163562653E+01 -0.41434258736E+01  0.12457059824E+00  0.91136565160E+01  0.51100000000E-03 0.  1.
        -12    1    3    3    0    0  0.15139743712E+02 -0.33513046075E+02 -0.31717240796E+01  0.36910647929E+02  0.00000000000E+00 0.  1.
</event>
<event>
 7    1  0.2641103E-015  0.9000767E+02  0.7816164E-02  0.1186339E+00
        -11   -1    0    0    0    0  0.00000000000E+00  0.00000000000E+00  0.45593999997E+02  0.45594000000E+02  0.51100000000E-03 0.  1.
         11   -1    0    0    0    0 -0.00000000000E+00 -0.00000000000E+00 -0.45593999997E+02  0.45594000000E+02  0.51100000000E-03 0. -1.
    9900012    2    1    2    0    0  0.19939326389E-01 -0.92260204022E+00 -0.73591867727E+00  0.90007674451E+02  0.89999934954E+02 0.  0.
        -12    1    1    2    0    0 -0.19939326389E-01  0.92260204022E+00  0.73591867727E+00  0.11803255487E+01  0.00000000000E+00 0.  1.
         11    1    3    3    0    0  0.30863829034E+01  0.14305668262E+01  0.10516508378E+02  0.11053019027E+02  0.51100000000E-03 0. -1.
        -11    1    3    3    0    0 -0.78673902265E+01  0.59014316319E+01  0.32612087311E+02  0.34062750378E+02  0.51100000000E-03 0.  1.
         12    1    3    3    0    0  0.48009466495E+01 -0.82546004983E+01 -0.43864514366E+02  0.44891905047E+02  0.00000000000E+00 0. -1.
</event>
<event>
 7    1  0.2641103E-015  0.9000771E+02  0.7816164E-02  0.1186339E+00
        -11   -1    0    0    0    0  0.00000000000E+00  0.00000000000E+00  0.45593999997E+02  0.45594000000E+02  0.51100000000E-03 0. -1.
         11   -1    0    0    0    0 -0.00000000000E+00 -0.00000000000E+00 -0.45593999997E+02  0.45594000000E+02  0.51100000000E-03 0.  1.
    9900012    2    1    2    0    0  0.46004894114E+00 -0.53634985863E+00  0.94539845147E+00  0.90007705786E+02  0.89999966703E+02 0.  0.
        -12    1    1    2    0    0 -0.46004894114E+00  0.53634985863E+00 -0.94539845147E+00  0.11802942138E+01  0.00000000000E+00 0.  1.
         11    1    3    3    0    0 -0.37644311849E+01 -0.35123942860E+02  0.20908585435E+02  0.41049132139E+02  0.51100000000E-03 0. -1.
        -11    1    3    3    0    0  0.80169119777E+01 -0.94157605524E+00 -0.89443590160E-01  0.80725116007E+01  0.51100000000E-03 0.  1.
        -12    1    3    3    0    0 -0.37924318517E+01  0.35529169057E+02 -0.19873743394E+02  0.40886062047E+02  0.00000000000E+00 0.  1.
</event>
<event>
 7    1  0.2641103E-015  0.9000758E+02  0.7816164E-02  0.1186339E+00
        -11   -1    0    0    0    0  0.00000000000E+00  0.00000000000E+00  0.45593999997E+02  0.45594000000E+02  0.51100000000E-03 0. -1.
         11   -1    0    0    0    0 -0.00000000000E+00 -0.00000000000E+00 -0.45593999997E+02  0.45594000000E+02  0.51100000000E-03 0.  1.
    9900012    2    1    2    0    0  0.69396510636E+00 -0.51964945452E+00  0.80109966652E+00  0.90007583209E+02  0.89999842507E+02 0.  0.
        -12    1    1    2    0    0 -0.69396510636E+00  0.51964945452E+00 -0.80109966652E+00  0.11804167909E+01  0.00000000000E+00 0.  1.
         11    1    3    3    0    0 -0.16852480887E+01  0.12356163161E+02  0.66276083191E+01  0.14122323515E+02  0.51100000000E-03 0. -1.
        -11    1    3    3    0    0  0.11999356914E+02 -0.80083241180E+01 -0.38693378220E+02  0.41295221755E+02  0.51100000000E-03 0.  1.
         12    1    3    3    0    0 -0.96201437186E+01 -0.48674884975E+01  0.32866869567E+02  0.34590037938E+02  0.00000000000E+00 0. -1.
</event>
<event>
 7    1  0.2641103E-015  0.9000761E+02  0.7816164E-02  0.1186339E+00
        -11   -1    0    0    0    0  0.00000000000E+00  0.00000000000E+00  0.45593999997E+02  0.45594000000E+02  0.51100000000E-03 0.  1.
         11   -1    0    0    0    0 -0.00000000000E+00 -0.00000000000E+00 -0.45593999997E+02  0.45594000000E+02  0.51100000000E-03 0. -1.
    9900012    2    1    2    0    0 -0.98393212577E+00  0.40765970992E+00 -0.50892729910E+00  0.90007611986E+02  0.89999871664E+02 0.  0.
        -12    1    1    2    0    0  0.98393212577E+00 -0.40765970992E+00  0.50892729910E+00  0.11803880137E+01  0.00000000000E+00 0.  1.
         11    1    3    3    0    0  0.36804756147E+01  0.20496704178E+01 -0.12696785162E+02  0.13377421399E+02  0.51100000000E-03 0. -1.
        -11    1    3    3    0    0 -0.32969056943E+02 -0.20876684918E+02 -0.31061470522E+01  0.39146428172E+02  0.51100000000E-03 0.  1.
         12    1    3    3    0    0  0.28304649202E+02  0.19234674211E+02  0.15294004915E+02  0.37483762415E+02  0.00000000000E+00 0. -1.
</event>
<event>
 7    1  0.2641103E-015  0.9000753E+02  0.7816164E-02  0.1186339E+00
        -11   -1    0    0    0    0  0.00000000000E+00  0.00000000000E+00  0.45593999997E+02  0.45594000000E+02  0.51100000000E-03 0. -1.
         11   -1    0    0    0    0 -0.00000000000E+00 -0.00000000000E+00 -0.45593999997E+02  0.45594000000E+02  0.51100000000E-03 0.  1.
    9900012    2    1    2    0    0  0.10235154881E+01  0.49026173021E+00 -0.32492898721E+00  0.90007525788E+02  0.89999784328E+02 0.  0.
        -12    1    1    2    0    0 -0.10235154881E+01 -0.49026173021E+00  0.32492898721E+00  0.11804742121E+01  0.00000000000E+00 0.  1.
         11    1    3    3    0    0 -0.70978681350E+01  0.45560057062E+01 -0.16545444919E+01  0.85950240135E+01  0.51100000000E-03 0. -1.
        -11    1    3    3    0    0 -0.49429480578E+00  0.32088046614E+01 -0.39204748761E+02  0.39338951186E+02  0.51100000000E-03 0.  1.
         12    1    3    3    0    0  0.86156784289E+01 -0.72745486373E+01  0.40534364266E+02  0.42073550588E+02  0.00000000000E+00 0. -1.
</event>
<event>
 7    1  0.2641103E-015  0.9000777E+02  0.7816164E-02  0.1186339E+00
        -11   -1    0    0    0    0  0.00000000000E+00  0.00000000000E+00  0.45593999997E+02  0.45594000000E+02  0.51100000000E-03 0.  1.
         11   -1    0    0    0    0 -0.00000000000E+00 -0.00000000000E+00 -0.45593999997E+02  0.45594000000E+02  0.51100000000E-03 0. -1.
    9900012    2    1    2    0    0  0.15530334702E+00 -0.10994861204E+01  0.39992956510E+00  0.90007774379E+02  0.90000036201E+02 0.  0.
        -12    1    1    2    0    0 -0.15530334702E+00  0.10994861204E+01 -0.39992956510E+00  0.11802256206E+01  0.00000000000E+00 0.  1.
         11    1    3    3    0    0 -0.60246384408E+01  0.37319627763E+01  0.59588993687E+01  0.92591736377E+01  0.51100000000E-03 0. -1.
        -11    1    3    3    0    0  0.89813413556E+01  0.22267047950E+02  0.28415041406E+02  0.37200813100E+02  0.51100000000E-03 0.  1.
         12    1    3    3    0    0 -0.28013995678E+01 -0.27098496846E+02 -0.33974011209E+02  0.43547787642E+02  0.00000000000E+00 0. -1.
</event>
<event>
 7    1  0.2641103E-015  0.9000777E+02  0.7816164E-02  0.1186339E+00
        -11   -1    0    0    0    0  0.00000000000E+00  0.00000000000E+00  0.45593999997E+02  0.45594000000E+02  0.51100000000E-03 0.  1.
         11   -1    0    0    0    0 -0.00000000000E+00 -0.00000000000E+00 -0.45593999997E+02  0.45594000000E+02  0.51100000000E-03 0. -1.
    9900012    2    1    2    0    0 -0.17656176152E+00  0.11435742479E+01 -0.23239358317E+00  0.90007769983E+02  0.90000031746E+02 0.  0.
        -12    1    1    2    0    0  0.17656176152E+00 -0.11435742479E+01  0.23239358317E+00  0.11802300173E+01  0.00000000000E+00 0.  1.
         11    1    3    3    0    0 -0.13943102690E+02 -0.14118534837E+02  0.27418043924E+01  0.20031490962E+02  0.51100000000E-03 0. -1.
        -11    1    3    3    0    0  0.10056465122E+02 -0.26179422104E+02  0.17648500165E+01  0.28099988048E+02  0.51100000000E-03 0.  1.
         12    1    3    3    0    0  0.37100758061E+01  0.41441531189E+02 -0.47390479921E+01  0.41876290973E+02  0.00000000000E+00 0. -1.
</event>
<event>
 7    1  0.2641103E-015  0.9000773E+02  0.7816164E-02  0.1186339E+00
        -11   -1    0    0    0    0  0.00000000000E+00  0.00000000000E+00  0.45593999997E+02  0.45594000000E+02  0.51100000000E-03 0.  1.
         11   -1    0    0    0    0 -0.00000000000E+00 -0.00000000000E+00 -0.45593999997E+02  0.45594000000E+02  0.51100000000E-03 0. -1.
    9900012    2    1    2    0    0  0.80184965625E+00 -0.68333633205E+00 -0.53209321814E+00  0.90007731129E+02  0.89999992380E+02 0.  0.
        -12    1    1    2    0    0 -0.80184965625E+00  0.68333633205E+00  0.53209321814E+00  0.11802688705E+01  0.00000000000E+00 0.  1.
         11    1    3    3    0    0 -0.54019017852E+01  0.55105673486E+01  0.25038202564E+01  0.81127067948E+01  0.51100000000E-03 0. -1.
        -11    1    3    3    0    0 -0.21819604932E+02  0.22441615489E+02  0.18549607090E+02  0.36384188717E+02  0.51100000000E-03 0.  1.
         12    1    3    3    0    0  0.28023356373E+02 -0.28635519170E+02 -0.21585520565E+02  0.45510835617E+02  0.00000000000E+00 0. -1.
</event>
<event>
 7    1  0.2641103E-015  0.9000726E+02  0.7816164E-02  0.1186340E+00
        -11   -1    0    0    0    0  0.00000000000E+00  0.00000000000E+00  0.45593999997E+02  0.45594000000E+02  0.51100000000E-03 0. -1.
         11   -1    0    0    0    0 -0.00000000000E+00 -0.00000000000E+00 -0.45593999997E+02  0.45594000000E+02  0.51100000000E-03 0.  1.
    9900012    2    1    2    0    0 -0.48204835818E+00 -0.56585894578E+00  0.91737150116E+00  0.90007264027E+02  0.89999519111E+02 0.  0.
        -12    1    1    2    0    0  0.48204835818E+00  0.56585894578E+00 -0.91737150116E+00  0.11807359727E+01  0.00000000000E+00 0.  1.
         11    1    3    3    0    0  0.14324067035E+02  0.29983031110E+02 -0.92564455612E+01  0.34494098563E+02  0.51100000000E-03 0. -1.
        -11    1    3    3    0    0  0.64333148122E+01  0.39105574143E+01 -0.81365549129E+01  0.11085284159E+02  0.51100000000E-03 0.  1.
        -12    1    3    3    0    0 -0.21239430206E+02 -0.34459447470E+02  0.18310371975E+02  0.44427881306E+02  0.00000000000E+00 0.  1.
</event>
<event>
 7    1  0.2641103E-015  0.9000774E+02  0.7816164E-02  0.1186339E+00
        -11   -1    0    0    0    0  0.00000000000E+00  0.00000000000E+00  0.45593999997E+02  0.45594000000E+02  0.51100000000E-03 0. -1.
         11   -1    0    0    0    0 -0.00000000000E+00 -0.00000000000E+00 -0.45593999997E+02  0.45594000000E+02  0.51100000000E-03 0.  1.
    9900012    2    1    2    0    0  0.11629332530E+01 -0.19568324600E+00 -0.47942652324E-01  0.90007744019E+02  0.90000005440E+02 0.  0.
        -12    1    1    2    0    0 -0.11629332530E+01  0.19568324600E+00  0.47942652324E-01  0.11802559814E+01  0.00000000000E+00 0.  1.
         11    1    3    3    0    0  0.10657189252E+02  0.55574472269E+01 -0.67402754658E+01  0.13780138463E+02  0.51100000000E-03 0. -1.
        -11    1    3    3    0    0 -0.17937199831E+02 -0.18125419110E+02 -0.28342157587E+02  0.38125475113E+02  0.51100000000E-03 0.  1.
         12    1    3    3    0    0  0.84429438315E+01  0.12372288638E+02  0.35034490400E+02  0.38102130443E+02  0.00000000000E+00 0. -1.
</event>
<event>
 7    1  0.2641103E-015  0.9000776E+02  0.7816164E-02  0.1186339E+00
        -11   -1    0    0    0    0  0.00000000000E+00  0.00000000000E+00  0.45593999997E+02  0.45594000000E+02  0.51100000000E-03 0.  1.
         11   -1    0    0    0    0 -0.00000000000E+00 -0.00000000000E+00 -0.45593999997E+02  0.45594000000E+02  0.51100000000E-03 0. -1.
    9900012    2    1    2    0    0 -0.11251273661E+01 -0.15140988850E+00  0.32268966877E+00  0.90007760547E+02  0.90000022186E+02 0.  0.
        -12    1    1    2    0    0  0.11251273661E+01  0.15140988850E+00 -0.32268966877E+00  0.11802394531E+01  0.00000000000E+00 0.  1.
         11    1    3    3    0    0 -0.31664027865E+02 -0.14624219544E+01 -0.20897183026E+02  0.37966321882E+02  0.51100000000E-03 0. -1.
        -11    1    3    3    0    0 -0.45923156273E+01 -0.96638817654E+01  0.42624262007E+01  0.11517302244E+02  0.51100000000E-03 0.  1.
        -12    1    3    3    0    0  0.35131216126E+02  0.10974893831E+02  0.16957446494E+02  0.40524136421E+02  0.00000000000E+00 0.  1.
</event>
<event>
 7    1  0.2641103E-015  0.9000772E+02  0.7816164E-02  0.1186339E+00
        -11   -1    0    0    0    0  0.00000000000E+00  0.00000000000E+00  0.45593999997E+02  0.45594000000E+02  0.51100000000E-03 0.  1.
         11   -1    0    0    0    0 -0.00000000000E+00 -0.00000000000E+00 -0.45593999997E+02  0.45594000000E+02  0.51100000000E-03 0. -1.
    9900012    2    1    2    0    0  0.85329839264E+00  0.66032415842E+00 -0.47844092636E+00  0.90007723820E+02  0.89999984974E+02 0.  0.
        -12    1    1    2    0    0 -0.85329839264E+00 -0.66032415842E+00  0.47844092636E+00  0.11802761800E+01  0.00000000000E+00 0.  1.
         11    1    3    3    0    0 -0.30215814717E+01  0.91344768458E+01  0.17604904737E+02  0.20062434870E+02  0.51100000000E-03 0. -1.
        -11    1    3    3    0    0  0.48071140579E+01 -0.37846864597E+02 -0.11226915866E+02  0.39768544674E+02  0.51100000000E-03 0.  1.
         12    1    3    3    0    0 -0.93223419358E+00  0.29372711910E+02 -0.68564297972E+01  0.30176744276E+02  0.00000000000E+00 0. -1.
</event>
<event>
 8    1  0.2641103E-015  0.9000769E+02  0.7816164E-02  0.1186339E+00
        -11   -1    0    0    0    0  0.00000000000E+00  0.00000000000E+00  0.45593999997E+02  0.45594000000E+02  0.51100000000E-03 0.  1.
         11   -1    0    0    0    0 -0.00000000000E+00 -0.00000000000E+00 -0.45593999997E+02  0.45594000000E+02  0.51100000000E-03 0. -1.
    9900012    2    1    2    0    0  0.44406400144E+00  0.44844623767E+00 -0.99741094181E+00  0.90007692645E+02  0.89999953388E+02 0.  0.
         23    2    3    3    0    0 -0.25246691339E+01 -0.12313867165E+02 -0.26263048686E+02  0.61546447584E+02  0.54223723638E+02 0.  0.
        -12    1    1    2    0    0 -0.44406400144E+00 -0.44844623767E+00  0.99741094181E+00  0.11803073550E+01  0.00000000000E+00 0.  1.
         11    1    4    4    0    0 -0.24613431584E+02  0.76059820415E+01 -0.14488609436E+02  0.29556586082E+02  0.51100000000E-03 0. -1.
        -11    1    4    4    0    0  0.22088762450E+02 -0.19919849207E+02 -0.11774439250E+02  0.31989861502E+02  0.51100000000E-03 0.  1.
         12    1    3    3    0    0  0.29687331354E+01  0.12762313403E+02  0.25265637744E+02  0.28461245061E+02  0.00000000000E+00 0. -1.
</event>
<event>
 7    1  0.2641103E-015  0.9000778E+02  0.7816164E-02  0.1186339E+00
        -11   -1    0    0    0    0  0.00000000000E+00  0.00000000000E+00  0.45593999997E+02  0.45594000000E+02  0.51100000000E-03 0.  1.
         11   -1    0    0    0    0 -0.00000000000E+00 -0.00000000000E+00 -0.45593999997E+02  0.45594000000E+02  0.51100000000E-03 0. -1.
    9900012    2    1    2    0    0  0.76793824813E-01  0.11362063645E+01 -0.30994714804E+00  0.90007775687E+02  0.90000037526E+02 0.  0.
        -12    1    1    2    0    0 -0.76793824813E-01 -0.11362063645E+01  0.30994714804E+00  0.11802243130E+01  0.00000000000E+00 0.  1.
         11    1    3    3    0    0 -0.24081015354E+01 -0.64696959303E+01  0.55017317817E+01  0.88275121804E+01  0.51100000000E-03 0. -1.
        -11    1    3    3    0    0  0.10876486288E+02 -0.26643248516E+02  0.22037854622E+02  0.36246760987E+02  0.51100000000E-03 0.  1.
         12    1    3    3    0    0 -0.83915909274E+01  0.34249150811E+02 -0.27849533552E+02  0.44933502519E+02  0.00000000000E+00 0. -1.
</event>
<event>
 7    1  0.3133795E-015  0.9000787E+02  0.7816164E-02  0.1186339E+00
        -11   -1    0    0    0    0  0.00000000000E+00  0.00000000000E+00  0.45593999997E+02  0.45594000000E+02  0.51100000000E-03 0.  1.
         11   -1    0    0    0    0 -0.00000000000E+00 -0.00000000000E+00 -0.45593999997E+02  0.45594000000E+02  0.51100000000E-03 0. -1.
    9900012    2    1    2    0    0  0.94325078691E-01 -0.11491550049E+01  0.25150929123E+00  0.90007868071E+02  0.90000131130E+02 0.  0.
        -12    1    1    2    0    0 -0.94325078691E-01  0.11491550049E+01 -0.25150929123E+00  0.11801319288E+01  0.00000000000E+00 0.  1.
         11    1    3    3    0    0 -0.75995267026E+00 -0.45265077247E+01 -0.84198710219E+01  0.95896313031E+01  0.51100000000E-03 0. -1.
        -11    1    3    3    0    0 -0.27327128834E+02  0.21740591233E+02 -0.16288890182E+02  0.38532495651E+02  0.51100000000E-03 0.  1.
         12    1    3    3    0    0  0.28181406583E+02 -0.18363238513E+02  0.24960270495E+02  0.41885741117E+02  0.00000000000E+00 0. -1.
</event>
<event>
 7    1  0.2641103E-015  0.9000771E+02  0.7816164E-02  0.1186339E+00
        -11   -1    0    0    0    0  0.00000000000E+00  0.00000000000E+00  0.45593999997E+02  0.45594000000E+02  0.51100000000E-03 0.  1.
         11   -1    0    0    0    0 -0.00000000000E+00 -0.00000000000E+00 -0.45593999997E+02  0.45594000000E+02  0.51100000000E-03 0. -1.
    9900012    2    1    2    0    0  0.41594013885E+00  0.10852649348E+01  0.20563990361E+00  0.90007705991E+02  0.89999966910E+02 0.  0.
        -12    1    1    2    0    0 -0.41594013885E+00 -0.10852649348E+01 -0.20563990361E+00  0.11802940091E+01  0.00000000000E+00 0.  1.
         11    1    3    3    0    0  0.14202102297E+01  0.71751527886E+00  0.11508349064E+02  0.11617827840E+02  0.51100000000E-03 0. -1.
        -11    1    3    3    0    0 -0.31768001280E+01  0.37214519349E+02 -0.17009322265E+02  0.41040584226E+02  0.51100000000E-03 0.  1.
         12    1    3    3    0    0  0.21725300372E+01 -0.36846769693E+02  0.57066131044E+01  0.37349293925E+02  0.00000000000E+00 0. -1.
</event>
<event>
 7    1  0.2641103E-015  0.9000820E+02  0.7816164E-02  0.1186338E+00
        -11   -1    0    0    0    0  0.00000000000E+00  0.00000000000E+00  0.45593999997E+02  0.45594000000E+02  0.51100000000E-03 0. -1.
         11   -1    0    0    0    0 -0.00000000000E+00 -0.00000000000E+00 -0.45593999997E+02  0.45594000000E+02  0.51100000000E-03 0.  1.
    9900012    2    1    2    0    0 -0.65659949934E+00 -0.18927585420E+00  0.96175301497E+00  0.90008204631E+02  0.90000472131E+02 0.  0.
        -12    1    1    2    0    0  0.65659949934E+00  0.18927585420E+00 -0.96175301497E+00  0.11797953693E+01  0.00000000000E+00 0.  1.
         11    1    3    3    0    0 -0.10457347648E+02  0.28761929442E+02 -0.10551569452E+02  0.32371906388E+02  0.51100000000E-03 0. -1.
        -11    1    3    3    0    0 -0.66943703808E+01  0.33430520332E+01 -0.12197307981E+02  0.14309609147E+02  0.51100000000E-03 0.  1.
        -12    1    3    3    0    0  0.16495118529E+02 -0.32294257330E+02  0.23710630448E+02  0.43326689096E+02  0.00000000000E+00 0.  1.
</event>
<event>
 7    1  0.3798351E-015  0.9000767E+02  0.7816164E-02  0.1186339E+00
        -11   -1    0    0    0    0  0.00000000000E+00  0.00000000000E+00  0.45593999997E+02  0.45594000000E+02  0.51100000000E-03 0. -1.
         11   -1    0    0    0    0 -0.00000000000E+00 -0.00000000000E+00 -0.45593999997E+02  0.45594000000E+02  0.51100000000E-03 0.  1.
    9900012    2    1    2    0    0 -0.10277980263E+01  0.31534847942E-01  0.57949011157E+00  0.90007672919E+02  0.89999933401E+02 0.  0.
        -12    1    1    2    0    0  0.10277980263E+01 -0.31534847942E-01 -0.57949011157E+00  0.11803270814E+01  0.00000000000E+00 0.  1.
         11    1    3    3    0    0  0.58330379223E+01  0.16609965346E+00 -0.64702248419E+01  0.87129633457E+01  0.51100000000E-03 0. -1.
        -11    1    3    3    0    0 -0.83399845391E+01  0.37807111320E+01 -0.36455857700E+02  0.37588278488E+02  0.51100000000E-03 0.  1.
         12    1    3    3    0    0  0.14791485905E+01 -0.39152759375E+01  0.43505572654E+02  0.43706431085E+02  0.00000000000E+00 0. -1.
</event>
<event>
 7    1  0.2641103E-015  0.9000778E+02  0.7816164E-02  0.1186339E+00
        -11   -1    0    0    0    0  0.00000000000E+00  0.00000000000E+00  0.45593999997E+02  0.45594000000E+02  0.51100000000E-03 0.  1.
         11   -1    0    0    0    0 -0.00000000000E+00 -0.00000000000E+00 -0.45593999997E+02  0.45594000000E+02  0.51100000000E-03 0. -1.
    9900012    2    1    2    0    0 -0.79368679071E+00  0.80561250547E+00  0.33758034215E+00  0.90007783614E+02  0.90000045558E+02 0.  0.
        -12    1    1    2    0    0  0.79368679071E+00 -0.80561250547E+00 -0.33758034215E+00  0.11802163861E+01  0.00000000000E+00 0.  1.
         11    1    3    3    0    0  0.29834777047E+01  0.23527739528E+01  0.87103139150E+01  0.95029602360E+01  0.51100000000E-03 0. -1.
        -11    1    3    3    0    0  0.17893849162E+02  0.33990656375E+02 -0.28966664177E+01  0.38522009751E+02  0.51100000000E-03 0.  1.
         12    1    3    3    0    0 -0.21671013657E+02 -0.35537817823E+02 -0.54760671551E+01  0.41982813627E+02  0.00000000000E+00 0. -1.
</event>
<event>
 7    1  0.2641103E-015  0.9000775E+02  0.7816164E-02  0.1186339E+00
        -11   -1    0    0    0    0  0.00000000000E+00  0.00000000000E+00  0.45593999997E+02  0.45594000000E+02  0.51100000000E-03 0.  1.
         11   -1    0    0    0    0 -0.00000000000E+00 -0.00000000000E+00 -0.45593999997E+02  0.45594000000E+02  0.51100000000E-03 0. -1.
    9900012    2    1    2    0    0  0.55447050705E+00  0.87955563696E+00 -0.55852062763E+00  0.90007745386E+02  0.90000006825E+02 0.  0.
        -12    1    1    2    0    0 -0.55447050705E+00 -0.87955563696E+00  0.55852062763E+00  0.11802546137E+01  0.00000000000E+00 0.  1.
         11    1    3    3    0    0 -0.26171096913E+02  0.14961452687E+02 -0.33071822123E+02  0.44749489370E+02  0.51100000000E-03 0. -1.
        -11    1    3    3    0    0  0.49957150337E+01  0.53897428165E+00  0.76005449665E+01  0.91113086888E+01  0.51100000000E-03 0.  1.
        -12    1    3    3    0    0  0.21729852386E+02 -0.14620871332E+02  0.24912756529E+02  0.36146947327E+02  0.00000000000E+00 0.  1.
</event>
<event>
 7    1  0.2641103E-015  0.9000808E+02  0.7816164E-02  0.1186338E+00
        -11   -1    0    0    0    0  0.00000000000E+00  0.00000000000E+00  0.45593999997E+02  0.45594000000E+02  0.51100000000E-03 0. -1.
         11   -1    0    0    0    0 -0.00000000000E+00 -0.00000000000E+00 -0.45593999997E+02  0.45594000000E+02  0.51100000000E-03 0.  1.
    9900012    2    1    2    0    0  0.11658146578E+01  0.24963773243E-01  0.18020443097E+00  0.90008076001E+02  0.90000341804E+02 0.  0.
        -12    1    1    2    0    0 -0.11658146578E+01 -0.24963773243E-01 -0.18020443097E+00  0.11799239989E+01  0.00000000000E+00 0.  1.
         11    1    3    3    0    0  0.33721466197E+02 -0.13129620865E+01  0.10274768187E+02  0.35276507954E+02  0.51100000000E-03 0. -1.
        -11    1    3    3    0    0  0.96627593684E+01  0.33638996651E+01  0.26792024215E+01  0.10576524261E+02  0.51100000000E-03 0.  1.
        -12    1    3    3    0    0 -0.42218410907E+02 -0.20259738054E+01 -0.12773766177E+02  0.44155043786E+02  0.00000000000E+00 0.  1.
</event>
<event>
 7    1  0.2641103E-015  0.9000779E+02  0.7816164E-02  0.1186339E+00
        -11   -1    0    0    0    0  0.00000000000E+00  0.00000000000E+00  0.45593999997E+02  0.45594000000E+02  0.51100000000E-03 0. -1.
         11   -1    0    0    0    0 -0.00000000000E+00 -0.00000000000E+00 -0.45593999997E+02  0.45594000000E+02  0.51100000000E-03 0.  1.
    9900012    2    1    2    0    0 -0.89550631015E+00 -0.14987640685E+00  0.75398924894E+00  0.90007790579E+02  0.90000052615E+02 0.  0.
        -12    1    1    2    0    0  0.89550631015E+00  0.14987640685E+00 -0.75398924894E+00  0.11802094206E+01  0.00000000000E+00 0.  1.
         11    1    3    3    0    0  0.28345915837E+02 -0.27972860553E+02  0.61880520616E+01  0.40302157024E+02  0.51100000000E-03 0. -1.
        -11    1    3    3    0    0  0.55005210987E+01  0.42942602633E+01  0.16031437107E+01  0.71600610043E+01  0.51100000000E-03 0.  1.
        -12    1    3    3    0    0 -0.34741943246E+02  0.23528723883E+02 -0.70372065234E+01  0.42545572552E+02  0.00000000000E+00 0.  1.
</event>
<event>
 7    1  0.2641103E-015  0.9000770E+02  0.7816164E-02  0.1186339E+00
        -11   -1    0    0    0    0  0.00000000000E+00  0.00000000000E+00  0.45593999997E+02  0.45594000000E+02  0.51100000000E-03 0.  1.
         11   -1    0    0    0    0 -0.00000000000E+00 -0.00000000000E+00 -0.45593999997E+02  0.45594000000E+02  0.51100000000E-03 0. -1.
    9900012    2    1    2    0    0 -0.50701992905E+00  0.10514300402E+01 -0.17475760871E+00  0.90007697259E+02  0.89999958063E+02 0.  0.
        -12    1    1    2    0    0  0.50701992905E+00 -0.10514300402E+01  0.17475760871E+00  0.11803027407E+01  0.00000000000E+00 0.  1.
         11    1    3    3    0    0  0.31807200433E+01  0.22646144151E+01  0.92402729323E+01  0.10031355969E+02  0.51100000000E-03 0. -1.
        -11    1    3    3    0    0 -0.31188819418E+02  0.19268369838E+02  0.13127375105E+02  0.38940217132E+02  0.51100000000E-03 0.  1.
         12    1    3    3    0    0  0.27501079446E+02 -0.20481554212E+02 -0.22542405646E+02  0.41036124159E+02  0.00000000000E+00 0. -1.
</event>
<event>
 7    1  0.3034373E-015  0.9000769E+02  0.7816164E-02  0.1186339E+00
        -11   -1    0    0    0    0  0.00000000000E+00  0.00000000000E+00  0.45593999997E+02  0.45594000000E+02  0.51100000000E-03 0.  1.
         11   -1    0    0    0    0 -0.00000000000E+00 -0.00000000000E+00 -0.45593999997E+02  0.45594000000E+02  0.51100000000E-03 0. -1.
    9900012    2    1    2    0    0 -0.61058610851E+00 -0.53862955978E+00 -0.85451610028E+00  0.90007688616E+02  0.89999949305E+02 0.  0.
        -12    1    1    2    0    0  0.61058610851E+00  0.53862955978E+00  0.85451610028E+00  0.11803113844E+01  0.00000000000E+00 0.  1.
         11    1    3    3    0    0 -0.23829421292E+01  0.15691813482E+01 -0.97521211721E+01  0.10160935533E+02  0.51100000000E-03 0. -1.
        -11    1    3    3    0    0  0.28793167213E+02  0.15796520384E+02  0.27181677181E+02  0.42631210504E+02  0.51100000000E-03 0.  1.
         12    1    3    3    0    0 -0.27020811192E+02 -0.17904331292E+02 -0.18284072109E+02  0.37215542578E+02  0.00000000000E+00 0. -1.
</event>
<event>
 7    1  0.2641103E-015  0.9000776E+02  0.7816164E-02  0.1186339E+00
        -11   -1    0    0    0    0  0.00000000000E+00  0.00000000000E+00  0.45593999997E+02  0.45594000000E+02  0.51100000000E-03 0.  1.
         11   -1    0    0    0    0 -0.00000000000E+00 -0.00000000000E+00 -0.45593999997E+02  0.45594000000E+02  0.51100000000E-03 0. -1.
    9900012    2    1    2    0    0 -0.11466305289E+01 -0.54988505612E-01 -0.27420130725E+00  0.90007757795E+02  0.90000019398E+02 0.  0.
        -12    1    1    2    0    0  0.11466305289E+01  0.54988505612E-01  0.27420130725E+00  0.11802422050E+01  0.00000000000E+00 0.  1.
         11    1    3    3    0    0  0.33337825230E+02  0.19913055032E+01 -0.11600415416E+01  0.33417384477E+02  0.51100000000E-03 0. -1.
        -11    1    3    3    0    0  0.72317140359E+01 -0.50085010045E+01 -0.10056863085E+02  0.13361259880E+02  0.51100000000E-03 0.  1.
        -12    1    3    3    0    0 -0.41716169795E+02  0.29622069957E+01  0.10942703320E+02  0.43229113437E+02  0.00000000000E+00 0.  1.
</event>
<event>
 7    1  0.2641103E-015  0.9000770E+02  0.7816164E-02  0.1186339E+00
        -11   -1    0    0    0    0  0.00000000000E+00  0.00000000000E+00  0.45593999997E+02  0.45594000000E+02  0.51100000000E-03 0. -1.
         11   -1    0    0    0    0 -0.00000000000E+00 -0.00000000000E+00 -0.45593999997E+02  0.45594000000E+02  0.51100000000E-03 0.  1.
    9900012    2    1    2    0    0  0.14321087293E+00 -0.84151237477E+00  0.81513811386E+00  0.90007702336E+02  0.89999963207E+02 0.  0.
        -12    1    1    2    0    0 -0.14321087293E+00  0.84151237477E+00 -0.81513811386E+00  0.11802976640E+01  0.00000000000E+00 0.  1.
         11    1    3    3    0    0  0.32014845020E+02 -0.23283795138E+02 -0.55323583111E+01  0.39971144672E+02  0.51100000000E-03 0. -1.
        -11    1    3    3    0    0 -0.14692875710E+01 -0.51475247548E+01  0.72011151497E+01  0.89728410622E+01  0.51100000000E-03 0.  1.
        -12    1    3    3    0    0 -0.30402346576E+02  0.27589807518E+02 -0.85361872471E+00  0.41063716601E+02  0.00000000000E+00 0.  1.
</event>
<event>
 7    1  0.2641103E-015  0.9000786E+02  0.7816164E-02  0.1186339E+00
        -11   -1    0    0    0    0  0.00000000000E+00  0.00000000000E+00  0.45593999997E+02  0.45594000000E+02  0.51100000000E-03 0.  1.
         11   -1    0    0    0    0 -0.00000000000E+00 -0.00000000000E+00 -0.45593999997E+02  0.45594000000E+02  0.51100000000E-03 0. -1.
    9900012    2    1    2    0    0  0.22193167052E+00 -0.10626257045E+01  0.46291966388E+00  0.90007863707E+02  0.90000126708E+02 0.  0.
        -12    1    1    2    0    0 -0.22193167052E+00  0.10626257045E+01 -0.46291966388E+00  0.11801362927E+01  0.00000000000E+00 0.  1.
         11    1    3    3    0    0 -0.98938412223E+01 -0.95112527214E+01  0.49693042713E+01  0.14596095631E+02  0.51100000000E-03 0. -1.
        -11    1    3    3    0    0  0.13560077424E+01  0.45330743994E+01  0.34713886358E+02  0.35034860166E+02  0.51100000000E-03 0.  1.
         12    1    3    3    0    0  0.87597651504E+01  0.39155526175E+01 -0.39220270966E+02  0.40376907910E+02  0.00000000000E+00 0. -1.
</event>
<event>
 7    1  0.2641103E-015  0.9000765E+02  0.7816164E-02  0.1186339E+00
        -11   -1    0    0    0    0  0.00000000000E+00  0.00000000000E+00  0.45593999997E+02  0.45594000000E+02  0.51100000000E-03 0. -1.
         11   -1    0    0    0    0 -0.00000000000E+00 -0.00000000000E+00 -0.45593999997E+02  0.45594000000E+02  0.51100000000E-03 0.  1.
    9900012    2    1    2    0    0  0.55321310312E+00 -0.37773286293E+00  0.97185469816E+00  0.90007649032E+02  0.89999909199E+02 0.  0.
        -12    1    1    2    0    0 -0.55321310312E+00  0.37773286293E+00 -0.97185469816E+00  0.11803509680E+01  0.00000000000E+00 0.  1.
         11    1    3    3    0    0 -0.10115930667E+02  0.31492409833E+01 -0.15094442760E+02  0.18441582756E+02  0.51100000000E-03 0. -1.
        -11    1    3    3    0    0 -0.12555244839E+01 -0.29500858352E+02 -0.11660230539E+02  0.31746463767E+02  0.51100000000E-03 0.  1.
         12    1    3    3    0    0  0.11924668254E+02  0.25973884505E+02  0.27726527997E+02  0.39819602510E+02  0.00000000000E+00 0. -1.
</event>
<event>
 7    1  0.2641103E-015  0.9000776E+02  0.7816164E-02  0.1186339E+00
        -11   -1    0    0    0    0  0.00000000000E+00  0.00000000000E+00  0.45593999997E+02  0.45594000000E+02  0.51100000000E-03 0. -1.
         11   -1    0    0    0    0 -0.00000000000E+00 -0.00000000000E+00 -0.45593999997E+02  0.45594000000E+02  0.51100000000E-03 0.  1.
    9900012    2    1    2    0    0  0.10027114822E+01 -0.39525150550E+00  0.48095011760E+00  0.90007759734E+02  0.90000021363E+02 0.  0.
        -12    1    1    2    0    0 -0.10027114822E+01  0.39525150550E+00 -0.48095011760E+00  0.11802402657E+01  0.00000000000E+00 0.  1.
         11    1    3    3    0    0 -0.25193517422E+02  0.24996645786E+02  0.20404419635E+02  0.40937586171E+02  0.51100000000E-03 0. -1.
        -11    1    3    3    0    0 -0.36126113157E+01 -0.38188810995E+01 -0.94477775213E+01  0.10811813619E+02  0.51100000000E-03 0.  1.
        -12    1    3    3    0    0  0.29808840220E+02 -0.21573016192E+02 -0.10475691996E+02  0.38258359945E+02  0.00000000000E+00 0.  1.
</event>
<event>
 7    1  0.2641103E-015  0.9000773E+02  0.7816164E-02  0.1186339E+00
        -11   -1    0    0    0    0  0.00000000000E+00  0.00000000000E+00  0.45593999997E+02  0.45594000000E+02  0.51100000000E-03 0. -1.
         11   -1    0    0    0    0 -0.00000000000E+00 -0.00000000000E+00 -0.45593999997E+02  0.45594000000E+02  0.51100000000E-03 0.  1.
    9900012    2    1    2    0    0 -0.66387550570E+00  0.30922944228E+00  0.92557749488E+00  0.90007725780E+02  0.89999986960E+02 0.  0.
        -12    1    1    2    0    0  0.66387550570E+00 -0.30922944228E+00 -0.92557749488E+00  0.11802742199E+01  0.00000000000E+00 0.  1.
         11    1    3    3    0    0  0.38204223193E+02 -0.19104226540E+01  0.17563499894E+01  0.38292259663E+02  0.51100000000E-03 0. -1.
        -11    1    3    3    0    0  0.34400072398E+01  0.81957329182E+01 -0.13117381838E+01  0.89846727932E+01  0.51100000000E-03 0.  1.
        -12    1    3    3    0    0 -0.42308105939E+02 -0.59760808220E+01  0.48096568921E+00  0.42730793324E+02  0.00000000000E+00 0.  1.
</event>
<event>
 7    1  0.2641103E-015  0.9000777E+02  0.7816164E-02  0.1186339E+00
        -11   -1    0    0    0    0  0.00000000000E+00  0.00000000000E+00  0.45593999997E+02  0.45594000000E+02  0.51100000000E-03 0.  1.
         11   -1    0    0    0    0 -0.00000000000E+00 -0.00000000000E+00 -0.45593999997E+02  0.45594000000E+02  0.51100000000E-03 0. -1.
    9900012    2    1    2    0    0 -0.16840239432E+00 -0.96491561445E-01 -0.11641596553E+01  0.90007772187E+02  0.90000033980E+02 0.  0.
        -12    1    1    2    0    0  0.16840239432E+00  0.96491561445E-01  0.11641596553E+01  0.11802278131E+01  0.00000000000E+00 0.  1.
         11    1    3    3    0    0 -0.85690018103E+01 -0.22967094828E+02 -0.17652085860E+02  0.30207803170E+02  0.51100000000E-03 0. -1.
        -11    1    3    3    0    0 -0.64279046607E+01 -0.85783052423E+01 -0.11088189722E+02  0.15422491068E+02  0.51100000000E-03 0.  1.
        -12    1    3    3    0    0  0.14828504077E+02  0.31448908509E+02  0.27576115927E+02  0.44377477950E+02  0.00000000000E+00 0.  1.
</event>
<event>
 7    1  0.2641103E-015  0.9000666E+02  0.7816164E-02  0.1186341E+00
        -11   -1    0    0    0    0  0.00000000000E+00  0.00000000000E+00  0.45593999997E+02  0.45594000000E+02  0.51100000000E-03 0.  1.
         11   -1    0    0    0    0 -0.00000000000E+00 -0.00000000000E+00 -0.45593999997E+02  0.45594000000E+02  0.51100000000E-03 0. -1.
    9900012    2    1    2    0    0 -0.48967980091E+00  0.10258779403E+01 -0.32149086345E+00  0.90006658292E+02  0.89998905375E+02 0.  0.
        -12    1    1    2    0    0  0.48967980091E+00 -0.10258779403E+01  0.32149086345E+00  0.11813417080E+01  0.00000000000E+00 0.  1.
         11    1    3    3    0    0  0.25522160432E+02 -0.23879659433E+02 -0.19530737771E+02  0.40038338201E+02  0.51100000000E-03 0. -1.
        -11    1    3    3    0    0 -0.15283244149E+02  0.58838906500E+01 -0.52316230292E+01  0.17192079591E+02  0.51100000000E-03 0.  1.
        -12    1    3    3    0    0 -0.10728596084E+02  0.19021646723E+02  0.24440869937E+02  0.32776240500E+02  0.00000000000E+00 0.  1.
</event>
<event>
 7    1  0.2641103E-015  0.9000762E+02  0.7816164E-02  0.1186339E+00
        -11   -1    0    0    0    0  0.00000000000E+00  0.00000000000E+00  0.45593999997E+02  0.45594000000E+02  0.51100000000E-03 0. -1.
         11   -1    0    0    0    0 -0.00000000000E+00 -0.00000000000E+00 -0.45593999997E+02  0.45594000000E+02  0.51100000000E-03 0.  1.
    9900012    2    1    2    0    0 -0.65709122372E+00 -0.79901349835E+00  0.56842648859E+00  0.90007618655E+02  0.89999878421E+02 0.  0.
        -12    1    1    2    0    0  0.65709122372E+00  0.79901349835E+00 -0.56842648859E+00  0.11803813451E+01  0.00000000000E+00 0.  1.
         11    1    3    3    0    0  0.30463985549E+02  0.14219665110E+02 -0.19995487977E+02  0.39116145402E+02  0.51100000000E-03 0. -1.
        -11    1    3    3    0    0 -0.16368772376E+01  0.84370022212E+01  0.17161726720E+01  0.87639958051E+01  0.51100000000E-03 0.  1.
        -12    1    3    3    0    0 -0.29484199535E+02 -0.23455680829E+02  0.18847741794E+02  0.42127477448E+02  0.00000000000E+00 0.  1.
</event>
<event>
 7    1  0.2641103E-015  0.9000781E+02  0.7816164E-02  0.1186339E+00
        -11   -1    0    0    0    0  0.00000000000E+00  0.00000000000E+00  0.45593999997E+02  0.45594000000E+02  0.51100000000E-03 0. -1.
         11   -1    0    0    0    0 -0.00000000000E+00 -0.00000000000E+00 -0.45593999997E+02  0.45594000000E+02  0.51100000000E-03 0.  1.
    9900012    2    1    2    0    0  0.26513129715E+00 -0.32516420999E+00  0.11030937401E+01  0.90007812656E+02  0.90000074983E+02 0.  0.
        -12    1    1    2    0    0 -0.26513129715E+00  0.32516420999E+00 -0.11030937401E+01  0.11801873443E+01  0.00000000000E+00 0.  1.
         11    1    3    3    0    0 -0.22312075975E+02 -0.20633620938E+01 -0.24381088678E+02  0.33113798979E+02  0.51100000000E-03 0. -1.
        -11    1    3    3    0    0 -0.12327899294E+02 -0.53388493566E+01  0.60197695281E+00  0.13447780113E+02  0.51100000000E-03 0.  1.
        -12    1    3    3    0    0  0.34905106566E+02  0.70770472404E+01  0.24882205465E+02  0.43446233564E+02  0.00000000000E+00 0.  1.
</event>
<event>
 7    1  0.2641103E-015  0.9000783E+02  0.7816164E-02  0.1186339E+00
        -11   -1    0    0    0    0  0.00000000000E+00  0.00000000000E+00  0.45593999997E+02  0.45594000000E+02  0.51100000000E-03 0. -1.
         11   -1    0    0    0    0 -0.00000000000E+00 -0.00000000000E+00 -0.45593999997E+02  0.45594000000E+02  0.51100000000E-03 0.  1.
    9900012    2    1    2    0    0 -0.31571199557E+00  0.98442721856E+00  0.56924252613E+00  0.90007827103E+02  0.90000089621E+02 0.  0.
        -12    1    1    2    0    0  0.31571199557E+00 -0.98442721856E+00 -0.56924252613E+00  0.11801728968E+01  0.00000000000E+00 0.  1.
         11    1    3    3    0    0  0.28413342024E+00 -0.81587418495E+01  0.66142141626E+01  0.10506837279E+02  0.51100000000E-03 0. -1.
        -11    1    3    3    0    0 -0.26494722910E+02 -0.19642240129E+02 -0.19732765997E+02  0.38433969266E+02  0.51100000000E-03 0.  1.
         12    1    3    3    0    0  0.25894877494E+02  0.28785409197E+02  0.13687794361E+02  0.41067020558E+02  0.00000000000E+00 0. -1.
</event>
<event>
 7    1  0.2641103E-015  0.9000776E+02  0.7816164E-02  0.1186339E+00
        -11   -1    0    0    0    0  0.00000000000E+00  0.00000000000E+00  0.45593999997E+02  0.45594000000E+02  0.51100000000E-03 0.  1.
         11   -1    0    0    0    0 -0.00000000000E+00 -0.00000000000E+00 -0.45593999997E+02  0.45594000000E+02  0.51100000000E-03 0. -1.
    9900012    2    1    2    0    0  0.51380421283E+00  0.10258746768E+01 -0.27667007360E+00  0.90007762756E+02  0.90000024425E+02 0.  0.
        -12    1    1    2    0    0 -0.51380421283E+00 -0.10258746768E+01  0.27667007360E+00  0.11802372436E+01  0.00000000000E+00 0.  1.
         11    1    3    3    0    0  0.32133917816E+02  0.19251620451E+02 -0.44082098187E+00  0.37462086002E+02  0.51100000000E-03 0. -1.
        -11    1    3    3    0    0  0.51037518718E+01  0.65057111886E+01 -0.11964644691E+00  0.82696358307E+01  0.51100000000E-03 0.  1.
        -12    1    3    3    0    0 -0.36723865475E+02 -0.24731456963E+02  0.28379735517E+00  0.44276040924E+02  0.00000000000E+00 0.  1.
</event>
<event>
 7    1  0.2641103E-015  0.9000773E+02  0.7816164E-02  0.1186339E+00
        -11   -1    0    0    0    0  0.00000000000E+00  0.00000000000E+00  0.45593999997E+02  0.45594000000E+02  0.51100000000E-03 0. -1.
         11   -1    0    0    0    0 -0.00000000000E+00 -0.00000000000E+00 -0.45593999997E+02  0.45594000000E+02  0.51100000000E-03 0.  1.
    9900012    2    1    2    0    0  0.75745943584E+00  0.65200050888E+00  0.62784929764E+00  0.90007727065E+02  0.89999988262E+02 0.  0.
        -12    1    1    2    0    0 -0.75745943584E+00 -0.65200050888E+00 -0.62784929764E+00  0.11802729350E+01  0.00000000000E+00 0.  1.
         11    1    3    3    0    0 -0.27275097941E+01  0.10165865405E+02  0.17813908521E+01  0.10675087013E+02  0.51100000000E-03 0. -1.
        -11    1    3    3    0    0 -0.23780224511E+02 -0.34293793816E+02 -0.60390831454E+01  0.42166739234E+02  0.51100000000E-03 0.  1.
         12    1    3    3    0    0  0.27265193740E+02  0.24779928920E+02  0.48855415910E+01  0.37165900818E+02  0.00000000000E+00 0. -1.
</event>
<event>
 7    1  0.2641103E-015  0.9000762E+02  0.7816164E-02  0.1186339E+00
        -11   -1    0    0    0    0  0.00000000000E+00  0.00000000000E+00  0.45593999997E+02  0.45594000000E+02  0.51100000000E-03 0.  1.
         11   -1    0    0    0    0 -0.00000000000E+00 -0.00000000000E+00 -0.45593999997E+02  0.45594000000E+02  0.51100000000E-03 0. -1.
    9900012    2    1    2    0    0 -0.83509360552E+00 -0.76775269310E+00 -0.32628669565E+00  0.90007623562E+02  0.89999883393E+02 0.  0.
        -12    1    1    2    0    0  0.83509360552E+00  0.76775269310E+00  0.32628669565E+00  0.11803764381E+01  0.00000000000E+00 0.  1.
         11    1    3    3    0    0 -0.82359659022E+01 -0.41861330312E+01 -0.38170620380E+01  0.99962396410E+01  0.51100000000E-03 0. -1.
        -11    1    3    3    0    0 -0.33373015047E+02 -0.10694703350E+02  0.98386392178E+01  0.36399637842E+02  0.51100000000E-03 0.  1.
         12    1    3    3    0    0  0.40773887344E+02  0.14113083688E+02 -0.63478638754E+01  0.43611746079E+02  0.00000000000E+00 0. -1.
</event>
<event>
 7    1  0.2641103E-015  0.9000765E+02  0.7816164E-02  0.1186339E+00
        -11   -1    0    0    0    0  0.00000000000E+00  0.00000000000E+00  0.45593999997E+02  0.45594000000E+02  0.51100000000E-03 0. -1.
         11   -1    0    0    0    0 -0.00000000000E+00 -0.00000000000E+00 -0.45593999997E+02  0.45594000000E+02  0.51100000000E-03 0.  1.
    9900012    2    1    2    0    0  0.24052419524E+00  0.65685045861E+00  0.95075354514E+00  0.90007645512E+02  0.89999905633E+02 0.  0.
        -12    1    1    2    0    0 -0.24052419524E+00 -0.65685045861E+00 -0.95075354514E+00  0.11803544879E+01  0.00000000000E+00 0.  1.
         11    1    3    3    0    0 -0.13666615243E+02 -0.34600681146E+01  0.39575906563E+02  0.42011912883E+02  0.51100000000E-03 0. -1.
        -11    1    3    3    0    0 -0.63614130473E+01  0.34039197265E+01 -0.51801095921E+01  0.88818793682E+01  0.51100000000E-03 0.  1.
        -12    1    3    3    0    0  0.20268552486E+02  0.71299884671E+00 -0.33445043425E+02  0.39113853261E+02  0.00000000000E+00 0.  1.
</event>
<event>
 7    1  0.2723872E-015  0.9000785E+02  0.7816164E-02  0.1186339E+00
        -11   -1    0    0    0    0  0.00000000000E+00  0.00000000000E+00  0.45593999997E+02  0.45594000000E+02  0.51100000000E-03 0.  1.
         11   -1    0    0    0    0 -0.00000000000E+00 -0.00000000000E+00 -0.45593999997E+02  0.45594000000E+02  0.51100000000E-03 0. -1.
    9900012    2    1    2    0    0 -0.87535862459E-01  0.89074070166E+00 -0.76920200816E+00  0.90007850326E+02  0.90000113150E+02 0.  0.
        -12    1    1    2    0    0  0.87535862459E-01 -0.89074070166E+00  0.76920200816E+00  0.11801496745E+01  0.00000000000E+00 0.  1.
         11    1    3    3    0    0  0.64122040679E+01 -0.60491967986E+01 -0.92537992977E+00  0.88637165564E+01  0.51100000000E-03 0. -1.
        -11    1    3    3    0    0 -0.11218108946E+02 -0.62721020541E+01  0.38354688921E+02  0.40450802155E+02  0.51100000000E-03 0.  1.
         12    1    3    3    0    0  0.47183690158E+01  0.13212039554E+02 -0.38198510999E+02  0.40693331614E+02  0.00000000000E+00 0. -1.
</event>
<event>
 7    1  0.2641103E-015  0.9000773E+02  0.7816164E-02  0.1186339E+00
        -11   -1    0    0    0    0  0.00000000000E+00  0.00000000000E+00  0.45593999997E+02  0.45594000000E+02  0.51100000000E-03 0.  1.
         11   -1    0    0    0    0 -0.00000000000E+00 -0.00000000000E+00 -0.45593999997E+02  0.45594000000E+02  0.51100000000E-03 0. -1.
    9900012    2    1    2    0    0  0.66250400791E+00  0.91094030668E+00 -0.35259579940E+00  0.90007725625E+02  0.89999986803E+02 0.  0.
        -12    1    1    2    0    0 -0.66250400791E+00 -0.91094030668E+00  0.35259579940E+00  0.11802743751E+01  0.00000000000E+00 0.  1.
         11    1    3    3    0    0  0.31405352610E+01 -0.64238631444E+01  0.40018757845E+01  0.81941436087E+01  0.51100000000E-03 0. -1.
        -11    1    3    3    0    0 -0.13894097619E+01  0.16538839024E+02  0.36407021355E+02  0.40011684043E+02  0.51100000000E-03 0.  1.
         12    1    3    3    0    0 -0.10886214912E+01 -0.92040355734E+01 -0.40761492939E+02  0.41801897973E+02  0.00000000000E+00 0. -1.
</event>
<event>
 7    1  0.2648592E-015  0.9000778E+02  0.7816164E-02  0.1186339E+00
        -11   -1    0    0    0    0  0.00000000000E+00  0.00000000000E+00  0.45593999997E+02  0.45594000000E+02  0.51100000000E-03 0.  1.
         11   -1    0    0    0    0 -0.00000000000E+00 -0.00000000000E+00 -0.45593999997E+02  0.45594000000E+02  0.51100000000E-03 0. -1.
    9900012    2    1    2    0    0  0.76980026479E+00  0.82778301361E+00 -0.33928248097E+00  0.90007775544E+02  0.90000037381E+02 0.  0.
        -12    1    1    2    0    0 -0.76980026479E+00 -0.82778301361E+00  0.33928248097E+00  0.11802244563E+01  0.00000000000E+00 0.  1.
         11    1    3    3    0    0 -0.71983783763E+01 -0.57554867212E+01  0.17119708080E+01  0.93740665111E+01  0.51100000000E-03 0. -1.
        -11    1    3    3    0    0  0.29926735125E+02  0.24629205574E+01  0.29420141841E+02  0.42038318224E+02  0.51100000000E-03 0.  1.
         12    1    3    3    0    0 -0.21958556484E+02  0.41203491774E+01 -0.31471395130E+02  0.38595390808E+02  0.00000000000E+00 0. -1.
</event>
<event>
 7    1  0.2641103E-015  0.9000774E+02  0.7816164E-02  0.1186339E+00
        -11   -1    0    0    0    0  0.00000000000E+00  0.00000000000E+00  0.45593999997E+02  0.45594000000E+02  0.51100000000E-03 0.  1.
         11   -1    0    0    0    0 -0.00000000000E+00 -0.00000000000E+00 -0.45593999997E+02  0.45594000000E+02  0.51100000000E-03 0. -1.
    9900012    2    1    2    0    0 -0.33246091334E+00  0.11091704648E+01 -0.22854172052E+00  0.90007737022E+02  0.89999998351E+02 0.  0.
        -12    1    1    2    0    0  0.33246091334E+00 -0.11091704648E+01  0.22854172052E+00  0.11802629778E+01  0.00000000000E+00 0.  1.
         11    1    3    3    0    0 -0.57651000954E+00 -0.11954984744E+01 -0.89202744343E+01  0.90184741857E+01  0.51100000000E-03 0. -1.
        -11    1    3    3    0    0  0.34351151633E+02 -0.18385141266E+02 -0.39021633926E+01  0.39156633120E+02  0.51100000000E-03 0.  1.
         12    1    3    3    0    0 -0.34107102537E+02  0.20689810205E+02  0.12593896106E+02  0.41832629716E+02  0.00000000000E+00 0. -1.
</event>
<event>
 7    1  0.2641103E-015  0.9000759E+02  0.7816164E-02  0.1186339E+00
        -11   -1    0    0    0    0  0.00000000000E+00  0.00000000000E+00  0.45593999997E+02  0.45594000000E+02  0.51100000000E-03 0.  1.
         11   -1    0    0    0    0 -0.00000000000E+00 -0.00000000000E+00 -0.45593999997E+02  0.45594000000E+02  0.51100000000E-03 0. -1.
    9900012    2    1    2    0    0 -0.74380155410E+00 -0.14136761108E+00 -0.90562281878E+00  0.90007585563E+02  0.89999844892E+02 0.  0.
        -12    1    1    2    0    0  0.74380155410E+00  0.14136761108E+00  0.90562281878E+00  0.11804144371E+01  0.00000000000E+00 0.  1.
         11    1    3    3    0    0 -0.22713115010E+02  0.30799832332E+02  0.13784379836E+02  0.40675845325E+02  0.51100000000E-03 0. -1.
        -11    1    3    3    0    0 -0.54924552852E+01 -0.20024705316E+01 -0.62421465224E+01  0.85522714386E+01  0.51100000000E-03 0.  1.
        -12    1    3    3    0    0  0.27461768741E+02 -0.28938729411E+02 -0.84478561327E+01  0.40779468800E+02  0.00000000000E+00 0.  1.
</event>
<event>
 7    1  0.2641103E-015  0.9000773E+02  0.7816164E-02  0.1186339E+00
        -11   -1    0    0    0    0  0.00000000000E+00  0.00000000000E+00  0.45593999997E+02  0.45594000000E+02  0.51100000000E-03 0. -1.
         11   -1    0    0    0    0 -0.00000000000E+00 -0.00000000000E+00 -0.45593999997E+02  0.45594000000E+02  0.51100000000E-03 0.  1.
    9900012    2    1    2    0    0 -0.10056558514E+01 -0.46313634605E+00 -0.40890939667E+00  0.90007726362E+02  0.89999987550E+02 0.  0.
        -12    1    1    2    0    0  0.10056558514E+01  0.46313634605E+00  0.40890939667E+00  0.11802736383E+01  0.00000000000E+00 0.  1.
         11    1    3    3    0    0 -0.96928401675E+01 -0.38561267315E+02  0.54058455657E+01  0.40126620266E+02  0.51100000000E-03 0. -1.
        -11    1    3    3    0    0  0.62782117058E+01 -0.19890113315E+01  0.50256441576E+01  0.82842747275E+01  0.51100000000E-03 0.  1.
        -12    1    3    3    0    0  0.24089726103E+01  0.40087142300E+02 -0.10840399120E+02  0.41596831368E+02  0.00000000000E+00 0.  1.
</event>
<event>
 7    1  0.2641103E-015  0.9000769E+02  0.7816164E-02  0.1186339E+00
        -11   -1    0    0    0    0  0.00000000000E+00  0.00000000000E+00  0.45593999997E+02  0.45594000000E+02  0.51100000000E-03 0.  1.
         11   -1    0    0    0    0 -0.00000000000E+00 -0.00000000000E+00 -0.45593999997E+02  0.45594000000E+02  0.51100000000E-03 0. -1.
    9900012    2    1    2    0    0  0.15795853003E+00  0.47983231446E+00 -0.10667489067E+01  0.90007685136E+02  0.89999945780E+02 0.  0.
        -12    1    1    2    0    0 -0.15795853003E+00 -0.47983231446E+00  0.10667489067E+01  0.11803148635E+01  0.00000000000E+00 0.  1.
         11    1    3    3    0    0 -0.32543078677E+01  0.85569944273E+01 -0.12065712949E+01  0.92340937767E+01  0.51100000000E-03 0. -1.
        -11    1    3    3    0    0  0.28378893454E+02  0.14676286115E+02 -0.23399252054E+02  0.39601514677E+02  0.51100000000E-03 0.  1.
         12    1    3    3    0    0 -0.24966627056E+02 -0.22753448228E+02  0.23539074442E+02  0.41172076683E+02  0.00000000000E+00 0. -1.
</event>
<event>
 7    1  0.2641103E-015  0.9000772E+02  0.7816164E-02  0.1186339E+00
        -11   -1    0    0    0    0  0.00000000000E+00  0.00000000000E+00  0.45593999997E+02  0.45594000000E+02  0.51100000000E-03 0.  1.
         11   -1    0    0    0    0 -0.00000000000E+00 -0.00000000000E+00 -0.45593999997E+02  0.45594000000E+02  0.51100000000E-03 0. -1.
    9900012    2    1    2    0    0 -0.52494455432E+00  0.63335368454E-01 -0.10552128184E+01  0.90007723657E+02  0.89999984809E+02 0.  0.
        -12    1    1    2    0    0  0.52494455432E+00 -0.63335368454E-01  0.10552128184E+01  0.11802763431E+01  0.00000000000E+00 0.  1.
         11    1    3    3    0    0 -0.68277358823E+01 -0.29463156507E+02 -0.23754064821E+02  0.38457134116E+02  0.51100000000E-03 0. -1.
        -11    1    3    3    0    0 -0.52437009255E+01  0.23562319013E+01 -0.74131321452E+01  0.93809784475E+01  0.51100000000E-03 0.  1.
        -12    1    3    3    0    0  0.11546492254E+02  0.27170259975E+02  0.30111984148E+02  0.42169611093E+02  0.00000000000E+00 0.  1.
</event>
<event>
 7    1  0.2641103E-015  0.9000759E+02  0.7816164E-02  0.1186339E+00
        -11   -1    0    0    0    0  0.00000000000E+00  0.00000000000E+00  0.45593999997E+02  0.45594000000E+02  0.51100000000E-03 0.  1.
         11   -1    0    0    0    0 -0.00000000000E+00 -0.00000000000E+00 -0.45593999997E+02  0.45594000000E+02  0.51100000000E-03 0. -1.
    9900012    2    1    2    0    0  0.69584261409E+00 -0.45564723462E+00 -0.83759048615E+00  0.90007589407E+02  0.89999848787E+02 0.  0.
        -12    1    1    2    0    0 -0.69584261409E+00  0.45564723462E+00  0.83759048615E+00  0.11804105932E+01  0.00000000000E+00 0.  1.
         11    1    3    3    0    0  0.40982895383E+02 -0.39197171880E+01 -0.71754957199E+01  0.41790544815E+02  0.51100000000E-03 0. -1.
        -11    1    3    3    0    0 -0.44868836180E+01  0.65034476576E+01 -0.63260592849E+01  0.10121560274E+02  0.51100000000E-03 0.  1.
        -12    1    3    3    0    0 -0.35800169151E+02 -0.30393777043E+01  0.12663964519E+02  0.38095484318E+02  0.00000000000E+00 0.  1.
</event>
<event>
 7    1  0.2641103E-015  0.9000788E+02  0.7816164E-02  0.1186339E+00
        -11   -1    0    0    0    0  0.00000000000E+00  0.00000000000E+00  0.45593999997E+02  0.45594000000E+02  0.51100000000E-03 0.  1.
         11   -1    0    0    0    0 -0.00000000000E+00 -0.00000000000E+00 -0.45593999997E+02  0.45594000000E+02  0.51100000000E-03 0. -1.
    9900012    2    1    2    0    0 -0.68111204929E+00  0.89195066296E+00 -0.36496854079E+00  0.90007876428E+02  0.90000139597E+02 0.  0.
        -12    1    1    2    0    0  0.68111204929E+00 -0.89195066296E+00  0.36496854079E+00  0.11801235717E+01  0.00000000000E+00 0.  1.
         11    1    3    3    0    0  0.12833869251E+02 -0.21883737363E+02 -0.22645515428E+02  0.34006257221E+02  0.51100000000E-03 0. -1.
        -11    1    3    3    0    0 -0.86023873092E+00  0.13484524107E+02 -0.12143342583E+02  0.18166815087E+02  0.51100000000E-03 0.  1.
        -12    1    3    3    0    0 -0.12654742569E+02  0.92911639188E+01  0.34423889471E+02  0.37834804120E+02  0.00000000000E+00 0.  1.
</event>
<event>
 7    1  0.3397176E-015  0.9000782E+02  0.7816164E-02  0.1186339E+00
        -11   -1    0    0    0    0  0.00000000000E+00  0.00000000000E+00  0.45593999997E+02  0.45594000000E+02  0.51100000000E-03 0.  1.
         11   -1    0    0    0    0 -0.00000000000E+00 -0.00000000000E+00 -0.45593999997E+02  0.45594000000E+02  0.51100000000E-03 0. -1.
    9900012    2    1    2    0    0  0.95261154914E+00  0.46553957436E+00 -0.51829224405E+00  0.90007820900E+02  0.90000083335E+02 0.  0.
        -12    1    1    2    0    0 -0.95261154914E+00 -0.46553957436E+00  0.51829224405E+00  0.11801791004E+01  0.00000000000E+00 0.  1.
         11    1    3    3    0    0 -0.34187343369E+01  0.94504947528E+01  0.41137344539E+00  0.10058271418E+02  0.51100000000E-03 0. -1.
        -11    1    3    3    0    0  0.57761188024E+01  0.19543447524E+02  0.31006294963E+02  0.37103911076E+02  0.51100000000E-03 0.  1.
         12    1    3    3    0    0 -0.14047729164E+01 -0.28528402702E+02 -0.31935960652E+02  0.42845638406E+02  0.00000000000E+00 0. -1.
</event>
<event>
 7    1  0.2641103E-015  0.9000809E+02  0.7816164E-02  0.1186338E+00
        -11   -1    0    0    0    0  0.00000000000E+00  0.00000000000E+00  0.45593999997E+02  0.45594000000E+02  0.51100000000E-03 0.  1.
         11   -1    0    0    0    0 -0.00000000000E+00 -0.00000000000E+00 -0.45593999997E+02  0.45594000000E+02  0.51100000000E-03 0. -1.
    9900012    2    1    2    0    0 -0.11003050042E+01  0.79714182036E-01 -0.41851589433E+00  0.90008092797E+02  0.90000358822E+02 0.  0.
        -12    1    1    2    0    0  0.11003050042E+01 -0.79714182036E-01  0.41851589433E+00  0.11799072026E+01  0.00000000000E+00 0.  1.
         11    1    3    3    0    0  0.61901033904E+01 -0.10269190376E+02 -0.37838686965E+02  0.39693070963E+02  0.51100000000E-03 0. -1.
        -11    1    3    3    0    0  0.59612609185E+00  0.89033805918E+01 -0.27617800836E+01  0.93409304553E+01  0.51100000000E-03 0.  1.
        -12    1    3    3    0    0 -0.78865344864E+01  0.14455239662E+01  0.40181951155E+02  0.40974091379E+02  0.00000000000E+00 0.  1.
</event>
<event>
 7    1  0.2641103E-015  0.9000777E+02  0.7816164E-02  0.1186339E+00
        -11   -1    0    0    0    0  0.00000000000E+00  0.00000000000E+00  0.45593999997E+02  0.45594000000E+02  0.51100000000E-03 0.  1.
         11   -1    0    0    0    0 -0.00000000000E+00 -0.00000000000E+00 -0.45593999997E+02  0.45594000000E+02  0.51100000000E-03 0. -1.
    9900012    2    1    2    0    0  0.63088013904E+00  0.99410165403E+00 -0.81892023941E-01  0.90007765213E+02  0.90000026914E+02 0.  0.
        -12    1    1    2    0    0 -0.63088013904E+00 -0.99410165403E+00  0.81892023941E-01  0.11802347868E+01  0.00000000000E+00 0.  1.
         11    1    3    3    0    0 -0.88074115389E+01  0.43921781226E+01  0.18293497793E+01  0.10010406962E+02  0.51100000000E-03 0. -1.
        -11    1    3    3    0    0 -0.25116344261E+02 -0.25900983840E+02  0.93121175272E+01  0.37261337148E+02  0.51100000000E-03 0.  1.
         12    1    3    3    0    0  0.34554635939E+02  0.22502907372E+02 -0.11223359330E+02  0.42736021103E+02  0.00000000000E+00 0. -1.
</event>
<event>
 7    1  0.2641103E-015  0.9000759E+02  0.7816164E-02  0.1186339E+00
        -11   -1    0    0    0    0  0.00000000000E+00  0.00000000000E+00  0.45593999997E+02  0.45594000000E+02  0.51100000000E-03 0. -1.
         11   -1    0    0    0    0 -0.00000000000E+00 -0.00000000000E+00 -0.45593999997E+02  0.45594000000E+02  0.51100000000E-03 0.  1.
    9900012    2    1    2    0    0  0.30269636172E+00  0.68459322402E+00  0.91272636503E+00  0.90007592279E+02  0.89999851697E+02 0.  0.
        -12    1    1    2    0    0 -0.30269636172E+00 -0.68459322402E+00 -0.91272636503E+00  0.11804077207E+01  0.00000000000E+00 0.  1.
         11    1    3    3    0    0  0.22777221479E+02 -0.20931427094E+02  0.15662683626E+02  0.34673420903E+02  0.51100000000E-03 0. -1.
        -11    1    3    3    0    0  0.89473987768E+01 -0.23217420789E+01  0.56932661453E+01  0.10856321238E+02  0.51100000000E-03 0.  1.
        -12    1    3    3    0    0 -0.31421923894E+02  0.23937762397E+02 -0.20443223406E+02  0.44477850139E+02  0.00000000000E+00 0.  1.
</event>
<event>
 7    1  0.2641103E-015  0.9000770E+02  0.7816164E-02  0.1186339E+00
        -11   -1    0    0    0    0  0.00000000000E+00  0.00000000000E+00  0.45593999997E+02  0.45594000000E+02  0.51100000000E-03 0.  1.
         11   -1    0    0    0    0 -0.00000000000E+00 -0.00000000000E+00 -0.45593999997E+02  0.45594000000E+02  0.51100000000E-03 0. -1.
    9900012    2    1    2    0    0  0.83624172836E+00  0.71103443302E+00 -0.43385583493E+00  0.90007702970E+02  0.89999963849E+02 0.  0.
        -12    1    1    2    0    0 -0.83624172836E+00 -0.71103443302E+00  0.43385583493E+00  0.11802970299E+01  0.00000000000E+00 0.  1.
         11    1    3    3    0    0  0.21604907420E+02 -0.34263317044E+02  0.10061737361E+02  0.41737099546E+02  0.51100000000E-03 0. -1.
        -11    1    3    3    0    0 -0.67313436293E+01  0.92476122960E+00  0.48747245838E+01  0.83623627293E+01  0.51100000000E-03 0.  1.
        -12    1    3    3    0    0 -0.14037322063E+02  0.34049590248E+02 -0.15370317780E+02  0.39908240695E+02  0.00000000000E+00 0.  1.
</event>
<event>
 7    1  0.2641103E-015  0.9000782E+02  0.7816164E-02  0.1186339E+00
        -11   -1    0    0    0    0  0.00000000000E+00  0.00000000000E+00  0.45593999997E+02  0.45594000000E+02  0.51100000000E-03 0.  1.
         11   -1    0    0    0    0 -0.00000000000E+00 -0.00000000000E+00 -0.45593999997E+02  0.45594000000E+02  0.51100000000E-03 0. -1.
    9900012    2    1    2    0    0  0.53565639173E+00  0.10435860777E+01 -0.12969134233E+00  0.90007822252E+02  0.90000084706E+02 0.  0.
        -12    1    1    2    0    0 -0.53565639173E+00 -0.10435860777E+01  0.12969134233E+00  0.11801777476E+01  0.00000000000E+00 0.  1.
         11    1    3    3    0    0  0.27690844558E+02  0.91376810916E+01 -0.30812282941E+02  0.42422598558E+02  0.51100000000E-03 0. -1.
        -11    1    3    3    0    0 -0.48146897450E+01 -0.69085718675E+01 -0.13349650513E+01  0.85259447886E+01  0.51100000000E-03 0.  1.
        -12    1    3    3    0    0 -0.22340498422E+02 -0.11855231464E+01  0.32017556650E+02  0.39059278906E+02  0.00000000000E+00 0.  1.
</event>
<event>
 7    1  0.2641103E-015  0.9000776E+02  0.7816164E-02  0.1186339E+00
        -11   -1    0    0    0    0  0.00000000000E+00  0.00000000000E+00  0.45593999997E+02  0.45594000000E+02  0.51100000000E-03 0.  1.
         11   -1    0    0    0    0 -0.00000000000E+00 -0.00000000000E+00 -0.45593999997E+02  0.45594000000E+02  0.51100000000E-03 0. -1.
    9900012    2    1    2    0    0  0.11239924005E+01  0.23185077421E+00 -0.27541199053E+00  0.90007760422E+02  0.90000022059E+02 0.  0.
        -12    1    1    2    0    0 -0.11239924005E+01 -0.23185077421E+00  0.27541199053E+00  0.11802395784E+01  0.00000000000E+00 0.  1.
         11    1    3    3    0    0 -0.33436883218E+02 -0.66726088761E+01  0.45351171921E+01  0.34396455584E+02  0.51100000000E-03 0. -1.
        -11    1    3    3    0    0 -0.10165254766E+02  0.17380817751E+01 -0.19620374333E+01  0.10497758040E+02  0.51100000000E-03 0.  1.
        -12    1    3    3    0    0  0.44726130384E+02  0.51663778753E+01 -0.28484917493E+01  0.45113546798E+02  0.00000000000E+00 0.  1.
</event>
<event>
 7    1  0.2641103E-015  0.9000777E+02  0.7816164E-02  0.1186339E+00
        -11   -1    0    0    0    0  0.00000000000E+00  0.00000000000E+00  0.45593999997E+02  0.45594000000E+02  0.51100000000E-03 0.  1.
         11   -1    0    0    0    0 -0.00000000000E+00 -0.00000000000E+00 -0.45593999997E+02  0.45594000000E+02  0.51100000000E-03 0. -1.
    9900012    2    1    2    0    0 -0.37037590587E+00  0.20942976957E+00 -0.11008670549E+01  0.90007768068E+02  0.90000029807E+02 0.  0.
        -12    1    1    2    0    0  0.37037590587E+00 -0.20942976957E+00  0.11008670549E+01  0.11802319317E+01  0.00000000000E+00 0.  1.
         11    1    3    3    0    0 -0.18747111383E+02  0.13304412436E+02 -0.27355549243E+02  0.35732165483E+02  0.51100000000E-03 0. -1.
        -11    1    3    3    0    0 -0.61770619079E+01  0.14922664268E+01 -0.76499060761E+01  0.99450498308E+01  0.51100000000E-03 0.  1.
        -12    1    3    3    0    0  0.24553797385E+02 -0.14587249093E+02  0.33904588264E+02  0.44330552754E+02  0.00000000000E+00 0.  1.
</event>
<event>
 7    1  0.2641103E-015  0.9000766E+02  0.7816164E-02  0.1186339E+00
        -11   -1    0    0    0    0  0.00000000000E+00  0.00000000000E+00  0.45593999997E+02  0.45594000000E+02  0.51100000000E-03 0.  1.
         11   -1    0    0    0    0 -0.00000000000E+00 -0.00000000000E+00 -0.45593999997E+02  0.45594000000E+02  0.51100000000E-03 0. -1.
    9900012    2    1    2    0    0 -0.76522914914E+00 -0.65225985404E+00  0.61821343454E+00  0.90007658347E+02  0.89999918637E+02 0.  0.
        -12    1    1    2    0    0  0.76522914914E+00  0.65225985404E+00 -0.61821343454E+00  0.11803416533E+01  0.00000000000E+00 0.  1.
         11    1    3    3    0    0 -0.13645370379E+02  0.30379280845E+02 -0.17805150286E+02  0.37764006864E+02  0.51100000000E-03 0. -1.
        -11    1    3    3    0    0  0.68395710799E+01  0.43889524642E+01 -0.48207454575E+01  0.94489270987E+01  0.51100000000E-03 0.  1.
        -12    1    3    3    0    0  0.60405701495E+01 -0.35420493163E+02  0.23244109178E+02  0.42794724384E+02  0.00000000000E+00 0.  1.
</event>
<event>
 7    1  0.2641103E-015  0.9000747E+02  0.7816164E-02  0.1186340E+00
        -11   -1    0    0    0    0  0.00000000000E+00  0.00000000000E+00  0.45593999997E+02  0.45594000000E+02  0.51100000000E-03 0.  1.
         11   -1    0    0    0    0 -0.00000000000E+00 -0.00000000000E+00 -0.45593999997E+02  0.45594000000E+02  0.51100000000E-03 0. -1.
    9900012    2    1    2    0    0 -0.86619097714E+00 -0.62055538350E+00 -0.50821307785E+00  0.90007467779E+02  0.89999725553E+02 0.  0.
        -12    1    1    2    0    0  0.86619097714E+00  0.62055538350E+00  0.50821307785E+00  0.11805322212E+01  0.00000000000E+00 0.  1.
         11    1    3    3    0    0 -0.36140217042E+02  0.60619477613E+01 -0.29498834846E+01  0.36763627560E+02  0.51100000000E-03 0. -1.
        -11    1    3    3    0    0  0.24413053278E+01  0.12449591580E+02 -0.64278367052E+01  0.14222144254E+02  0.51100000000E-03 0.  1.
        -12    1    3    3    0    0  0.32832720737E+02 -0.19132094725E+02  0.88695071120E+01  0.39021695965E+02  0.00000000000E+00 0.  1.
</event>
<event>
 7    1  0.2641103E-015  0.9000772E+02  0.7816164E-02  0.1186339E+00
        -11   -1    0    0    0    0  0.00000000000E+00  0.00000000000E+00  0.45593999997E+02  0.45594000000E+02  0.51100000000E-03 0. -1.
         11   -1    0    0    0    0 -0.00000000000E+00 -0.00000000000E+00 -0.45593999997E+02  0.45594000000E+02  0.51100000000E-03 0.  1.
    9900012    2    1    2    0    0 -0.88423944786E-01  0.56619307976E+00  0.10318297404E+01  0.90007717826E+02  0.89999978901E+02 0.  0.
        -12    1    1    2    0    0  0.88423944786E-01 -0.56619307976E+00 -0.10318297404E+01  0.11802821742E+01  0.00000000000E+00 0.  1.
         11    1    3    3    0    0 -0.94375982481E+01  0.41620529790E+01  0.16024767220E+01  0.10438336917E+02  0.51100000000E-03 0. -1.
        -11    1    3    3    0    0 -0.28775213650E+02  0.16201271821E+02 -0.11969066920E+02  0.35124815906E+02  0.51100000000E-03 0.  1.
         12    1    3    3    0    0  0.38124387953E+02 -0.19797131721E+02  0.11398419939E+02  0.44444565003E+02  0.00000000000E+00 0. -1.
</event>
<event>
 7    1  0.3884824E-015  0.9000772E+02  0.7816164E-02  0.1186339E+00
        -11   -1    0    0    0    0  0.00000000000E+00  0.00000000000E+00  0.45593999997E+02  0.45594000000E+02  0.51100000000E-03 0. -1.
         11   -1    0    0    0    0 -0.00000000000E+00 -0.00000000000E+00 -0.45593999997E+02  0.45594000000E+02  0.51100000000E-03 0.  1.
    9900012    2    1    2    0    0 -0.11248353236E+00  0.89339996422E+00  0.76305082482E+00  0.90007719270E+02  0.89999980364E+02 0.  0.
        -12    1    1    2    0    0  0.11248353236E+00 -0.89339996422E+00 -0.76305082482E+00  0.11802807303E+01  0.00000000000E+00 0.  1.
         11    1    3    3    0    0 -0.41076621406E+01  0.16521549016E+01 -0.84890868839E+01  0.95742937319E+01  0.51100000000E-03 0. -1.
        -11    1    3    3    0    0  0.28022322347E+02 -0.50001494229E+01 -0.25334964542E+02  0.38106593557E+02  0.51100000000E-03 0.  1.
         12    1    3    3    0    0 -0.24027143739E+02  0.42413944855E+01  0.34587102250E+02  0.42326831980E+02  0.00000000000E+00 0. -1.
</event>
<event>
 7    1  0.2641103E-015  0.9000774E+02  0.7816164E-02  0.1186339E+00
        -11   -1    0    0    0    0  0.00000000000E+00  0.00000000000E+00  0.45593999997E+02  0.45594000000E+02  0.51100000000E-03 0. -1.
         11   -1    0    0    0    0 -0.00000000000E+00 -0.00000000000E+00 -0.45593999997E+02  0.45594000000E+02  0.51100000000E-03 0.  1.
    9900012    2    1    2    0    0 -0.43223714147E+00 -0.59961970127E+00  0.92012829759E+00  0.90007742055E+02  0.90000003450E+02 0.  0.
        -12    1    1    2    0    0  0.43223714147E+00  0.59961970127E+00 -0.92012829759E+00  0.11802579450E+01  0.00000000000E+00 0.  1.
         11    1    3    3    0    0 -0.10961076394E+02 -0.61959945122E+01 -0.38929512726E+02  0.40915064525E+02  0.51100000000E-03 0. -1.
        -11    1    3    3    0    0  0.10231379324E+02 -0.24143839730E+01  0.23843785396E+01  0.10779407874E+02  0.51100000000E-03 0.  1.
        -12    1    3    3    0    0  0.29745992873E+00  0.80107587839E+01  0.37465262484E+02  0.38313269656E+02  0.00000000000E+00 0.  1.
</event>
<event>
 7    1  0.2641103E-015  0.9000772E+02  0.7816164E-02  0.1186339E+00
        -11   -1    0    0    0    0  0.00000000000E+00  0.00000000000E+00  0.45593999997E+02  0.45594000000E+02  0.51100000000E-03 0. -1.
         11   -1    0    0    0    0 -0.00000000000E+00 -0.00000000000E+00 -0.45593999997E+02  0.45594000000E+02  0.51100000000E-03 0.  1.
    9900012    2    1    2    0    0 -0.27562827910E+00 -0.69392647693E+00  0.91408160080E+00  0.90007724576E+02  0.89999985740E+02 0.  0.
        -12    1    1    2    0    0  0.27562827910E+00  0.69392647693E+00 -0.91408160080E+00  0.11802754240E+01  0.00000000000E+00 0.  1.
         11    1    3    3    0    0  0.65343075649E+01 -0.39548323049E+01  0.42008525712E+01  0.87169396292E+01  0.51100000000E-03 0. -1.
        -11    1    3    3    0    0 -0.47159854541E+01  0.20299384761E+02 -0.37562572673E+02  0.42956401230E+02  0.51100000000E-03 0.  1.
         12    1    3    3    0    0 -0.20939503899E+01 -0.17038478934E+02  0.34275801703E+02  0.38334383717E+02  0.00000000000E+00 0. -1.
</event>
<event>
 7    1  0.2641103E-015  0.9000777E+02  0.7816164E-02  0.1186339E+00
        -11   -1    0    0    0    0  0.00000000000E+00  0.00000000000E+00  0.45593999997E+02  0.45594000000E+02  0.51100000000E-03 0. -1.
         11   -1    0    0    0    0 -0.00000000000E+00 -0.00000000000E+00 -0.45593999997E+02  0.45594000000E+02  0.51100000000E-03 0.  1.
    9900012    2    1    2    0    0 -0.60291702859E+00  0.51485616667E+00  0.87427110691E+00  0.90007772995E+02  0.90000034798E+02 0.  0.
        -12    1    1    2    0    0  0.60291702859E+00 -0.51485616667E+00 -0.87427110691E+00  0.11802270053E+01  0.00000000000E+00 0.  1.
         11    1    3    3    0    0  0.80985655576E+01  0.30159842037E+01  0.55207831719E+01  0.10254851140E+02  0.51100000000E-03 0. -1.
        -11    1    3    3    0    0  0.26223003174E+02  0.23145145994E+02  0.50848669257E+01  0.35344017181E+02  0.51100000000E-03 0.  1.
         12    1    3    3    0    0 -0.34924485760E+02 -0.25646274031E+02 -0.97313789907E+01  0.44408904674E+02  0.00000000000E+00 0. -1.
</event>
<event>
 7    1  0.2641103E-015  0.9000767E+02  0.7816164E-02  0.1186339E+00
        -11   -1    0    0    0    0  0.00000000000E+00  0.00000000000E+00  0.45593999997E+02  0.45594000000E+02  0.51100000000E-03 0.  1.
         11   -1    0    0    0    0 -0.00000000000E+00 -0.00000000000E+00 -0.45593999997E+02  0.45594000000E+02  0.51100000000E-03 0. -1.
    9900012    2    1    2    0    0  0.79435564991E+00 -0.47870145117E+00  0.73008416978E+00  0.90007670015E+02  0.89999930459E+02 0.  0.
        -12    1    1    2    0    0 -0.79435564991E+00  0.47870145117E+00 -0.73008416978E+00  0.11803299847E+01  0.00000000000E+00 0.  1.
         11    1    3    3    0    0  0.86358690938E+01  0.70380770737E+01 -0.49029275673E-01  0.11140698723E+02  0.51100000000E-03 0. -1.
        -11    1    3    3    0    0  0.34520504354E+02 -0.89377221878E+01 -0.52893020842E+01  0.36048922530E+02  0.51100000000E-03 0.  1.
         12    1    3    3    0    0 -0.42362017798E+02  0.14209436629E+01  0.60684155297E+01  0.42818048763E+02  0.00000000000E+00 0. -1.
</event>
<event>
 7    1  0.3005538E-015  0.9000769E+02  0.7816164E-02  0.1186339E+00
        -11   -1    0    0    0    0  0.00000000000E+00  0.00000000000E+00  0.45593999997E+02  0.45594000000E+02  0.51100000000E-03 0.  1.
         11   -1    0    0    0    0 -0.00000000000E+00 -0.00000000000E+00 -0.45593999997E+02  0.45594000000E+02  0.51100000000E-03 0. -1.
    9900012    2    1    2    0    0 -0.22086198638E+00 -0.37017647665E+00 -0.10987770913E+01  0.90007694219E+02  0.89999954982E+02 0.  0.
        -12    1    1    2    0    0  0.22086198638E+00  0.37017647665E+00  0.10987770913E+01  0.11803057812E+01  0.00000000000E+00 0.  1.
         11    1    3    3    0    0  0.30655229961E+01 -0.94614277422E+01 -0.16886992367E+01  0.10088000373E+02  0.51100000000E-03 0. -1.
        -11    1    3    3    0    0 -0.95224421616E+01  0.97712436179E+01  0.38835808891E+02  0.41162776377E+02  0.51100000000E-03 0.  1.
         12    1    3    3    0    0  0.62360571791E+01 -0.67999235229E+00 -0.38245886745E+02  0.38756917469E+02  0.00000000000E+00 0. -1.
</event>
<event>
 7    1  0.2641103E-015  0.9000773E+02  0.7816164E-02  0.1186339E+00
        -11   -1    0    0    0    0  0.00000000000E+00  0.00000000000E+00  0.45593999997E+02  0.45594000000E+02  0.51100000000E-03 0.  1.
         11   -1    0    0    0    0 -0.00000000000E+00 -0.00000000000E+00 -0.45593999997E+02  0.45594000000E+02  0.51100000000E-03 0. -1.
    9900012    2    1    2    0    0 -0.29528961005E+00  0.26826358718E-01 -0.11424210627E+01  0.90007728213E+02  0.89999989425E+02 0.  0.
        -12    1    1    2    0    0  0.29528961005E+00 -0.26826358718E-01  0.11424210627E+01  0.11802717872E+01  0.00000000000E+00 0.  1.
         11    1    3    3    0    0 -0.11120323857E+01  0.89918921659E+01  0.34825956008E+01  0.97066581855E+01  0.51100000000E-03 0. -1.
        -11    1    3    3    0    0 -0.37116782455E+02 -0.10135898486E+02  0.97937169600E+01  0.39702756455E+02  0.51100000000E-03 0.  1.
         12    1    3    3    0    0  0.37933525231E+02  0.11708326789E+01 -0.14418733623E+02  0.40598313572E+02  0.00000000000E+00 0. -1.
</event>
<event>
 7    1  0.2641103E-015  0.9000775E+02  0.7816164E-02  0.1186339E+00
        -11   -1    0    0    0    0  0.00000000000E+00  0.00000000000E+00  0.45593999997E+02  0.45594000000E+02  0.51100000000E-03 0.  1.
         11   -1    0    0    0    0 -0.00000000000E+00 -0.00000000000E+00 -0.45593999997E+02  0.45594000000E+02  0.51100000000E-03 0. -1.
    9900012    2    1    2    0    0  0.43452567346E+00  0.81761424548E+00 -0.73190070105E+00  0.90007752462E+02  0.90000013994E+02 0.  0.
        -12    1    1    2    0    0 -0.43452567346E+00 -0.81761424548E+00  0.73190070105E+00  0.11802475382E+01  0.00000000000E+00 0.  1.
         11    1    3    3    0    0  0.32021548020E+00  0.69683853980E+01 -0.57056598890E+01  0.90119636062E+01  0.51100000000E-03 0. -1.
        -11    1    3    3    0    0 -0.76508104741E+00  0.26128101168E+02 -0.25556746797E+02  0.36556946354E+02  0.51100000000E-03 0.  1.
         12    1    3    3    0    0  0.87939124067E+00 -0.32278872320E+02  0.30530505985E+02  0.44438842502E+02  0.00000000000E+00 0. -1.
</event>
<event>
 7    1  0.2641103E-015  0.9000775E+02  0.7816164E-02  0.1186339E+00
        -11   -1    0    0    0    0  0.00000000000E+00  0.00000000000E+00  0.45593999997E+02  0.45594000000E+02  0.51100000000E-03 0.  1.
         11   -1    0    0    0    0 -0.00000000000E+00 -0.00000000000E+00 -0.45593999997E+02  0.45594000000E+02  0.51100000000E-03 0. -1.
    9900012    2    1    2    0    0  0.77128063011E+00 -0.70635803758E+00 -0.54695786128E+00  0.90007754945E+02  0.90000016510E+02 0.  0.
        -12    1    1    2    0    0 -0.77128063011E+00  0.70635803758E+00  0.54695786128E+00  0.11802450549E+01  0.00000000000E+00 0.  1.
         11    1    3    3    0    0 -0.18641126017E+01 -0.11818604987E+01  0.10885608981E+02  0.11107123533E+02  0.51100000000E-03 0. -1.
        -11    1    3    3    0    0  0.35460907122E+02  0.62598807078E+01  0.12224123009E+02  0.38027506150E+02  0.51100000000E-03 0.  1.
         12    1    3    3    0    0 -0.32825513890E+02 -0.57843782467E+01 -0.23656689852E+02  0.40873125261E+02  0.00000000000E+00 0. -1.
</event>
<event>
 7    1  0.2641103E-015  0.9000774E+02  0.7816164E-02  0.1186339E+00
        -11   -1    0    0    0    0  0.00000000000E+00  0.00000000000E+00  0.45593999997E+02  0.45594000000E+02  0.51100000000E-03 0. -1.
         11   -1    0    0    0    0 -0.00000000000E+00 -0.00000000000E+00 -0.45593999997E+02  0.45594000000E+02  0.51100000000E-03 0.  1.
    9900012    2    1    2    0    0  0.10523840880E+01 -0.46486717063E+00  0.26341858710E+00  0.90007744474E+02  0.90000005901E+02 0.  0.
        -12    1    1    2    0    0 -0.10523840880E+01  0.46486717063E+00 -0.26341858710E+00  0.11802555261E+01  0.00000000000E+00 0.  1.
         11    1    3    3    0    0  0.20577308507E+01  0.74700914549E+01  0.68308769265E+01  0.10329443472E+02  0.51100000000E-03 0. -1.
        -11    1    3    3    0    0  0.32984510457E+02 -0.76583848800E+01 -0.23974092653E+02  0.41489587945E+02  0.51100000000E-03 0.  1.
         12    1    3    3    0    0 -0.33989857219E+02 -0.27657374551E+00  0.17406634313E+02  0.38188713057E+02  0.00000000000E+00 0. -1.
</event>
<event>
 7    1  0.2641103E-015  0.9000763E+02  0.7816164E-02  0.1186339E+00
        -11   -1    0    0    0    0  0.00000000000E+00  0.00000000000E+00  0.45593999997E+02  0.45594000000E+02  0.51100000000E-03 0. -1.
         11   -1    0    0    0    0 -0.00000000000E+00 -0.00000000000E+00 -0.45593999997E+02  0.45594000000E+02  0.51100000000E-03 0.  1.
    9900012    2    1    2    0    0  0.23931821349E+00  0.11484623932E+01  0.13048411254E+00  0.90007633455E+02  0.89999893417E+02 0.  0.
        -12    1    1    2    0    0 -0.23931821349E+00 -0.11484623932E+01 -0.13048411254E+00  0.11803665445E+01  0.00000000000E+00 0.  1.
         11    1    3    3    0    0 -0.28386558965E+02  0.38520470893E+01  0.28156562538E+02  0.40167486987E+02  0.51100000000E-03 0. -1.
        -11    1    3    3    0    0 -0.31039391170E+00  0.97094457838E+01 -0.71452128998E+01  0.12059176981E+02  0.51100000000E-03 0.  1.
        -12    1    3    3    0    0  0.28936271090E+02 -0.12413030480E+02 -0.20880865526E+02  0.37780969487E+02  0.00000000000E+00 0.  1.
</event>
<event>
 7    1  0.2641103E-015  0.9000770E+02  0.7816164E-02  0.1186339E+00
        -11   -1    0    0    0    0  0.00000000000E+00  0.00000000000E+00  0.45593999997E+02  0.45594000000E+02  0.51100000000E-03 0.  1.
         11   -1    0    0    0    0 -0.00000000000E+00 -0.00000000000E+00 -0.45593999997E+02  0.45594000000E+02  0.51100000000E-03 0. -1.
    9900012    2    1    2    0    0  0.55648673636E+00 -0.57005283094E-01 -0.10393161126E+01  0.90007701279E+02  0.89999962135E+02 0.  0.
        -12    1    1    2    0    0 -0.55648673636E+00  0.57005283094E-01  0.10393161126E+01  0.11802987215E+01  0.00000000000E+00 0.  1.
         11    1    3    3    0    0  0.35262406188E+00  0.85721356856E+01 -0.71899036636E+01  0.11193773666E+02  0.51100000000E-03 0. -1.
        -11    1    3    3    0    0  0.31695389870E+02  0.51111763892E+01 -0.18009581094E+02  0.36811232994E+02  0.51100000000E-03 0.  1.
         12    1    3    3    0    0 -0.31491527196E+02 -0.13740317358E+02  0.24160168645E+02  0.42002694618E+02  0.00000000000E+00 0. -1.
</event>
<event>
 7    1  0.2641103E-015  0.9000763E+02  0.7816164E-02  0.1186339E+00
        -11   -1    0    0    0    0  0.00000000000E+00  0.00000000000E+00  0.45593999997E+02  0.45594000000E+02  0.51100000000E-03 0.  1.
         11   -1    0    0    0    0 -0.00000000000E+00 -0.00000000000E+00 -0.45593999997E+02  0.45594000000E+02  0.51100000000E-03 0. -1.
    9900012    2    1    2    0    0 -0.63933304163E+00  0.90449341195E+00  0.40794077603E+00  0.90007631097E+02  0.89999891027E+02 0.  0.
        -12    1    1    2    0    0  0.63933304163E+00 -0.90449341195E+00 -0.40794077603E+00  0.11803689030E+01  0.00000000000E+00 0.  1.
         11    1    3    3    0    0 -0.34064128630E+02  0.17028212644E+02  0.45853018378E+01  0.38358178767E+02  0.51100000000E-03 0. -1.
        -11    1    3    3    0    0 -0.47752445624E+01 -0.24884298756E+01  0.76904981681E+01  0.93882376520E+01  0.51100000000E-03 0.  1.
        -12    1    3    3    0    0  0.38200040150E+02 -0.13635289357E+02 -0.11867859230E+02  0.42261214678E+02  0.00000000000E+00 0.  1.
</event>
<event>
 7    1  0.2641103E-015  0.9000766E+02  0.7816164E-02  0.1186339E+00
        -11   -1    0    0    0    0  0.00000000000E+00  0.00000000000E+00  0.45593999997E+02  0.45594000000E+02  0.51100000000E-03 0.  1.
         11   -1    0    0    0    0 -0.00000000000E+00 -0.00000000000E+00 -0.45593999997E+02  0.45594000000E+02  0.51100000000E-03 0. -1.
    9900012    2    1    2    0    0 -0.13043231626E+00  0.11597138798E+01 -0.17675441026E+00  0.90007664881E+02  0.89999925257E+02 0.  0.
        -12    1    1    2    0    0  0.13043231626E+00 -0.11597138798E+01  0.17675441026E+00  0.11803351193E+01  0.00000000000E+00 0.  1.
         11    1    3    3    0    0  0.47401147804E+01 -0.56722793497E+01 -0.51222628643E+01  0.89933874744E+01  0.51100000000E-03 0. -1.
        -11    1    3    3    0    0 -0.39458342825E+02  0.16696662015E+02 -0.63538801060E+01  0.43314098555E+02  0.51100000000E-03 0.  1.
         12    1    3    3    0    0  0.34587795729E+02 -0.98646687852E+01  0.11299388560E+02  0.37700178852E+02  0.00000000000E+00 0. -1.
</event>
<event>
 7    1  0.2641103E-015  0.9000772E+02  0.7816164E-02  0.1186339E+00
        -11   -1    0    0    0    0  0.00000000000E+00  0.00000000000E+00  0.45593999997E+02  0.45594000000E+02  0.51100000000E-03 0. -1.
         11   -1    0    0    0    0 -0.00000000000E+00 -0.00000000000E+00 -0.45593999997E+02  0.45594000000E+02  0.51100000000E-03 0.  1.
    9900012    2    1    2    0    0  0.64564205620E+00 -0.28876526159E+00  0.94488628650E+00  0.90007724975E+02  0.89999986144E+02 0.  0.
        -12    1    1    2    0    0 -0.64564205620E+00  0.28876526159E+00 -0.94488628650E+00  0.11802750253E+01  0.00000000000E+00 0.  1.
         11    1    3    3    0    0 -0.43008392966E+01  0.43422151237E+00  0.94536827200E+01  0.10395089428E+02  0.51100000000E-03 0. -1.
        -11    1    3    3    0    0 -0.19956224626E+02  0.13550237794E+02  0.25505879372E+02  0.35105693675E+02  0.51100000000E-03 0.  1.
         12    1    3    3    0    0  0.24902705979E+02 -0.14273224568E+02 -0.34014675805E+02  0.44506941872E+02  0.00000000000E+00 0. -1.
</event>
<event>
 7    1  0.2641103E-015  0.9000782E+02  0.7816164E-02  0.1186339E+00
        -11   -1    0    0    0    0  0.00000000000E+00  0.00000000000E+00  0.45593999997E+02  0.45594000000E+02  0.51100000000E-03 0.  1.
         11   -1    0    0    0    0 -0.00000000000E+00 -0.00000000000E+00 -0.45593999997E+02  0.45594000000E+02  0.51100000000E-03 0. -1.
    9900012    2    1    2    0    0 -0.85344741894E+00 -0.62402350608E+00 -0.52445639265E+00  0.90007816819E+02  0.90000079201E+02 0.  0.
        -12    1    1    2    0    0  0.85344741894E+00  0.62402350608E+00  0.52445639265E+00  0.11801831810E+01  0.00000000000E+00 0.  1.
         11    1    3    3    0    0 -0.88468675947E+01 -0.27769543393E+01  0.50384155974E+01  0.10552922516E+02  0.51100000000E-03 0. -1.
        -11    1    3    3    0    0 -0.24469318788E+01  0.38739541839E+02  0.68863523255E+01  0.39422854110E+02  0.51100000000E-03 0.  1.
         12    1    3    3    0    0  0.10440352055E+02 -0.36586611006E+02 -0.12449224316E+02  0.40032040193E+02  0.00000000000E+00 0. -1.
</event>
<event>
 7    1  0.3508435E-015  0.9000773E+02  0.7816164E-02  0.1186339E+00
        -11   -1    0    0    0    0  0.00000000000E+00  0.00000000000E+00  0.45593999997E+02  0.45594000000E+02  0.51100000000E-03 0. -1.
         11   -1    0    0    0    0 -0.00000000000E+00 -0.00000000000E+00 -0.45593999997E+02  0.45594000000E+02  0.51100000000E-03 0.  1.
    9900012    2    1    2    0    0 -0.88300996594E+00  0.46857729460E+00  0.62750685784E+00  0.90007730481E+02  0.89999991723E+02 0.  0.
        -12    1    1    2    0    0  0.88300996594E+00 -0.46857729460E+00 -0.62750685784E+00  0.11802695190E+01  0.00000000000E+00 0.  1.
         11    1    3    3    0    0 -0.11328965086E+01 -0.82118249377E+01 -0.43236189044E+01  0.93493959162E+01  0.51100000000E-03 0. -1.
        -11    1    3    3    0    0 -0.22365808268E+02 -0.26456877702E+02 -0.10352835413E+02  0.36157668046E+02  0.51100000000E-03 0.  1.
         12    1    3    3    0    0  0.22615694810E+02  0.35137279934E+02  0.15303961175E+02  0.44500666518E+02  0.00000000000E+00 0. -1.
</event>
<event>
 7    1  0.2641103E-015  0.9000769E+02  0.7816164E-02  0.1186339E+00
        -11   -1    0    0    0    0  0.00000000000E+00  0.00000000000E+00  0.45593999997E+02  0.45594000000E+02  0.51100000000E-03 0. -1.
         11   -1    0    0    0    0 -0.00000000000E+00 -0.00000000000E+00 -0.45593999997E+02  0.45594000000E+02  0.51100000000E-03 0.  1.
    9900012    2    1    2    0    0 -0.56421527228E+00  0.53370107894E+00  0.88878980787E+00  0.90007693668E+02  0.89999954424E+02 0.  0.
        -12    1    1    2    0    0  0.56421527228E+00 -0.53370107894E+00 -0.88878980787E+00  0.11803063321E+01  0.00000000000E+00 0.  1.
         11    1    3    3    0    0 -0.78201245134E+01 -0.35549569328E+02  0.15812399569E+02  0.39685743123E+02  0.51100000000E-03 0. -1.
        -11    1    3    3    0    0  0.51739668684E+01 -0.40315933586E+01 -0.65895953281E+01  0.92976580392E+01  0.51100000000E-03 0.  1.
        -12    1    3    3    0    0  0.20819423727E+01  0.40114863766E+02 -0.83340144334E+01  0.41024292505E+02  0.00000000000E+00 0.  1.
</event>
<event>
 7    1  0.2641103E-015  0.9000773E+02  0.7816164E-02  0.1186339E+00
        -11   -1    0    0    0    0  0.00000000000E+00  0.00000000000E+00  0.45593999997E+02  0.45594000000E+02  0.51100000000E-03 0. -1.
         11   -1    0    0    0    0 -0.00000000000E+00 -0.00000000000E+00 -0.45593999997E+02  0.45594000000E+02  0.51100000000E-03 0.  1.
    9900012    2    1    2    0    0 -0.10768564942E+01  0.32768161858E+00 -0.35502341677E+00  0.90007730209E+02  0.89999991448E+02 0.  0.
        -12    1    1    2    0    0  0.10768564942E+01 -0.32768161858E+00  0.35502341677E+00  0.11802697906E+01  0.00000000000E+00 0.  1.
         11    1    3    3    0    0 -0.62530527715E+01  0.36327270141E+01  0.99941288868E+01  0.12336125283E+02  0.51100000000E-03 0. -1.
        -11    1    3    3    0    0  0.36603527969E+01 -0.39746935714E+02 -0.10200478677E+02  0.41197898572E+02  0.51100000000E-03 0.  1.
         12    1    3    3    0    0  0.15158434804E+01  0.36441890318E+02 -0.14867362677E+00  0.36473706355E+02  0.00000000000E+00 0. -1.
</event>
<event>
 7    1  0.2641103E-015  0.9000805E+02  0.7816164E-02  0.1186338E+00
        -11   -1    0    0    0    0  0.00000000000E+00  0.00000000000E+00  0.45593999997E+02  0.45594000000E+02  0.51100000000E-03 0.  1.
         11   -1    0    0    0    0 -0.00000000000E+00 -0.00000000000E+00 -0.45593999997E+02  0.45594000000E+02  0.51100000000E-03 0. -1.
    9900012    2    1    2    0    0 -0.13903470959E+00  0.24424457014E+00 -0.11459923044E+01  0.90008048975E+02  0.90000314421E+02 0.  0.
        -12    1    1    2    0    0  0.13903470959E+00 -0.24424457014E+00  0.11459923044E+01  0.11799510253E+01  0.00000000000E+00 0.  1.
         11    1    3    3    0    0 -0.14074497428E+02  0.20027947194E+02 -0.50727869267E+01  0.24998866257E+02  0.51100000000E-03 0. -1.
        -11    1    3    3    0    0  0.97397269001E+01  0.12126400575E+02  0.22874302616E+02  0.27661265181E+02  0.51100000000E-03 0.  1.
         12    1    3    3    0    0  0.41957358183E+01 -0.31910103198E+02 -0.18947507994E+02  0.37347917537E+02  0.00000000000E+00 0. -1.
</event>
<event>
 7    1  0.2641103E-015  0.9000772E+02  0.7816164E-02  0.1186339E+00
        -11   -1    0    0    0    0  0.00000000000E+00  0.00000000000E+00  0.45593999997E+02  0.45594000000E+02  0.51100000000E-03 0.  1.
         11   -1    0    0    0    0 -0.00000000000E+00 -0.00000000000E+00 -0.45593999997E+02  0.45594000000E+02  0.51100000000E-03 0. -1.
    9900012    2    1    2    0    0  0.99313233284E+00  0.12895012873E+00 -0.62460438025E+00  0.90007715882E+02  0.89999976932E+02 0.  0.
        -12    1    1    2    0    0 -0.99313233284E+00 -0.12895012873E+00  0.62460438025E+00  0.11802841175E+01  0.00000000000E+00 0.  1.
         11    1    3    3    0    0 -0.28604100776E+00  0.94206072672E+01  0.12430663891E+02  0.15599713644E+02  0.51100000000E-03 0. -1.
        -11    1    3    3    0    0  0.36043584675E+02 -0.92249368351E+01  0.18977561599E+00  0.37205852643E+02  0.51100000000E-03 0.  1.
         12    1    3    3    0    0 -0.34764411334E+02 -0.66720303331E-01 -0.13245043887E+02  0.37202149596E+02  0.00000000000E+00 0. -1.
</event>
<event>
 7    1  0.2641103E-015  0.9000773E+02  0.7816164E-02  0.1186339E+00
        -11   -1    0    0    0    0  0.00000000000E+00  0.00000000000E+00  0.45593999997E+02  0.45594000000E+02  0.51100000000E-03 0.  1.
         11   -1    0    0    0    0 -0.00000000000E+00 -0.00000000000E+00 -0.45593999997E+02  0.45594000000E+02  0.51100000000E-03 0. -1.
    9900012    2    1    2    0    0 -0.11170385705E+01 -0.38094117778E+00 -0.12016746280E-01  0.90007730645E+02  0.89999991889E+02 0.  0.
        -12    1    1    2    0    0  0.11170385705E+01  0.38094117778E+00  0.12016746280E-01  0.11802693553E+01  0.00000000000E+00 0.  1.
         11    1    3    3    0    0 -0.67497385513E+01 -0.31139491932E+01  0.52590553453E+01  0.91056747951E+01  0.51100000000E-03 0. -1.
        -11    1    3    3    0    0  0.17054947008E+01  0.71701070385E+01  0.37248979812E+02  0.37971115923E+02  0.51100000000E-03 0.  1.
         12    1    3    3    0    0  0.39272052800E+01 -0.44370990231E+01 -0.42520051904E+02  0.42930939927E+02  0.00000000000E+00 0. -1.
</event>
<event>
 7    1  0.2641103E-015  0.9000813E+02  0.7816164E-02  0.1186338E+00
        -11   -1    0    0    0    0  0.00000000000E+00  0.00000000000E+00  0.45593999997E+02  0.45594000000E+02  0.51100000000E-03 0. -1.
         11   -1    0    0    0    0 -0.00000000000E+00 -0.00000000000E+00 -0.45593999997E+02  0.45594000000E+02  0.51100000000E-03 0.  1.
    9900012    2    1    2    0    0  0.10253496917E+00 -0.73791886281E+00  0.91491228748E+00  0.90008126209E+02  0.90000392674E+02 0.  0.
        -12    1    1    2    0    0 -0.10253496917E+00  0.73791886281E+00 -0.91491228748E+00  0.11798737906E+01  0.00000000000E+00 0.  1.
         11    1    3    3    0    0 -0.32734120917E+02  0.80361136919E+01 -0.16992205025E+02  0.37747010840E+02  0.51100000000E-03 0. -1.
        -11    1    3    3    0    0  0.25780592167E+01 -0.12673766896E+01 -0.10009102569E+02  0.10413201596E+02  0.51100000000E-03 0.  1.
        -12    1    3    3    0    0  0.30258596669E+02 -0.75066558651E+01  0.27916219881E+02  0.41847913773E+02  0.00000000000E+00 0.  1.
</event>
<event>
 7    1  0.3366638E-015  0.9000783E+02  0.7816164E-02  0.1186339E+00
        -11   -1    0    0    0    0  0.00000000000E+00  0.00000000000E+00  0.45593999997E+02  0.45594000000E+02  0.51100000000E-03 0.  1.
         11   -1    0    0    0    0 -0.00000000000E+00 -0.00000000000E+00 -0.45593999997E+02  0.45594000000E+02  0.51100000000E-03 0. -1.
    9900012    2    1    2    0    0 -0.11659506545E+01  0.86030647934E-01 -0.16109184452E+00  0.90007833578E+02  0.90000096181E+02 0.  0.
        -12    1    1    2    0    0  0.11659506545E+01 -0.86030647934E-01  0.16109184452E+00  0.11801664220E+01  0.00000000000E+00 0.  1.
         11    1    3    3    0    0 -0.12923418271E+01  0.89814726670E+01  0.21633937771E+01  0.93283048601E+01  0.51100000000E-03 0. -1.
        -11    1    3    3    0    0  0.32000305050E+02 -0.25603557704E+02  0.10786231709E+02  0.42378113280E+02  0.51100000000E-03 0.  1.
         12    1    3    3    0    0 -0.31873913878E+02  0.16708115685E+02 -0.13110717330E+02  0.38301415438E+02  0.00000000000E+00 0. -1.
</event>
<event>
 7    1  0.2641103E-015  0.9000775E+02  0.7816164E-02  0.1186339E+00
        -11   -1    0    0    0    0  0.00000000000E+00  0.00000000000E+00  0.45593999997E+02  0.45594000000E+02  0.51100000000E-03 0. -1.
         11   -1    0    0    0    0 -0.00000000000E+00 -0.00000000000E+00 -0.45593999997E+02  0.45594000000E+02  0.51100000000E-03 0.  1.
    9900012    2    1    2    0    0  0.69370110528E+00  0.93569654153E+00  0.19036260900E+00  0.90007751228E+02  0.90000012744E+02 0.  0.
        -12    1    1    2    0    0 -0.69370110528E+00 -0.93569654153E+00 -0.19036260900E+00  0.11802487722E+01  0.00000000000E+00 0.  1.
         11    1    3    3    0    0 -0.53013347119E+01  0.18092286470E+02  0.28058495323E+02  0.33804055075E+02  0.51100000000E-03 0. -1.
        -11    1    3    3    0    0  0.51191907738E+01  0.15138508599E+02 -0.13179817264E+02  0.20714442791E+02  0.51100000000E-03 0.  1.
        -12    1    3    3    0    0  0.87584504346E+00 -0.32295098527E+02 -0.14688315450E+02  0.35489253362E+02  0.00000000000E+00 0.  1.
</event>
<event>
 7    1  0.2641103E-015  0.9000786E+02  0.7816164E-02  0.1186339E+00
        -11   -1    0    0    0    0  0.00000000000E+00  0.00000000000E+00  0.45593999997E+02  0.45594000000E+02  0.51100000000E-03 0.  1.
         11   -1    0    0    0    0 -0.00000000000E+00 -0.00000000000E+00 -0.45593999997E+02  0.45594000000E+02  0.51100000000E-03 0. -1.
    9900012    2    1    2    0    0  0.23811408752E+00 -0.43273765218E+00 -0.10718034425E+01  0.90007863222E+02  0.90000126217E+02 0.  0.
        -12    1    1    2    0    0 -0.23811408752E+00  0.43273765218E+00  0.10718034425E+01  0.11801367775E+01  0.00000000000E+00 0.  1.
         11    1    3    3    0    0  0.17677923525E+01  0.38672870589E+00 -0.82912205397E+01  0.84864001315E+01  0.51100000000E-03 0. -1.
        -11    1    3    3    0    0  0.39537347829E+02 -0.36044678531E+01  0.72624186301E+01  0.40360089029E+02  0.51100000000E-03 0.  1.
         12    1    3    3    0    0 -0.41067026094E+02  0.27850014950E+01 -0.43001532914E-01  0.41161374062E+02  0.00000000000E+00 0. -1.
</event>
<event>
 7    1  0.2641103E-015  0.9000782E+02  0.7816164E-02  0.1186339E+00
        -11   -1    0    0    0    0  0.00000000000E+00  0.00000000000E+00  0.45593999997E+02  0.45594000000E+02  0.51100000000E-03 0.  1.
         11   -1    0    0    0    0 -0.00000000000E+00 -0.00000000000E+00 -0.45593999997E+02  0.45594000000E+02  0.51100000000E-03 0. -1.
    9900012    2    1    2    0    0 -0.10095626103E+01 -0.48152933652E+00 -0.37647425000E+00  0.90007822036E+02  0.90000084487E+02 0.  0.
        -12    1    1    2    0    0  0.10095626103E+01  0.48152933652E+00  0.37647425000E+00  0.11801779641E+01  0.00000000000E+00 0.  1.
         11    1    3    3    0    0  0.80789849846E+01  0.59379617467E+01  0.68072755630E+01  0.12118926889E+02  0.51100000000E-03 0. -1.
        -11    1    3    3    0    0 -0.99516484429E+01  0.34665721063E+02 -0.72860844016E+01  0.36794490752E+02  0.51100000000E-03 0.  1.
         12    1    3    3    0    0  0.86310084800E+00 -0.41085212146E+02  0.10233458864E+00  0.41094404395E+02  0.00000000000E+00 0. -1.
</event>
<event>
 7    1  0.3354995E-015  0.9000772E+02  0.7816164E-02  0.1186339E+00
        -11   -1    0    0    0    0  0.00000000000E+00  0.00000000000E+00  0.45593999997E+02  0.45594000000E+02  0.51100000000E-03 0.  1.
         11   -1    0    0    0    0 -0.00000000000E+00 -0.00000000000E+00 -0.45593999997E+02  0.45594000000E+02  0.51100000000E-03 0. -1.
    9900012    2    1    2    0    0  0.30480020443E+00  0.83391947691E+00 -0.77764553911E+00  0.90007721455E+02  0.89999982579E+02 0.  0.
        -12    1    1    2    0    0 -0.30480020443E+00 -0.83391947691E+00  0.77764553911E+00  0.11802785447E+01  0.00000000000E+00 0.  1.
         11    1    3    3    0    0  0.82196613340E+01 -0.20427652925E+01  0.51434663355E+01  0.99091356178E+01  0.51100000000E-03 0. -1.
        -11    1    3    3    0    0 -0.27665937681E+02  0.56124702842E+01  0.28629933186E+02  0.40206678612E+02  0.51100000000E-03 0.  1.
         12    1    3    3    0    0  0.19751076552E+02 -0.27357855148E+01 -0.34551045061E+02  0.39891907226E+02  0.00000000000E+00 0. -1.
</event>
<event>
 7    1  0.2641103E-015  0.9000766E+02  0.7816164E-02  0.1186339E+00
        -11   -1    0    0    0    0  0.00000000000E+00  0.00000000000E+00  0.45593999997E+02  0.45594000000E+02  0.51100000000E-03 0.  1.
         11   -1    0    0    0    0 -0.00000000000E+00 -0.00000000000E+00 -0.45593999997E+02  0.45594000000E+02  0.51100000000E-03 0. -1.
    9900012    2    1    2    0    0 -0.93998945431E+00  0.68146635499E+00  0.21266487096E+00  0.90007659831E+02  0.89999920141E+02 0.  0.
        -12    1    1    2    0    0  0.93998945431E+00 -0.68146635499E+00 -0.21266487096E+00  0.11803401690E+01  0.00000000000E+00 0.  1.
         11    1    3    3    0    0 -0.15326716042E+02  0.83924455433E+01 -0.37366286491E+02  0.41250221008E+02  0.51100000000E-03 0. -1.
        -11    1    3    3    0    0 -0.43495275214E+01 -0.80940612076E+01  0.34369973853E+01  0.98104621593E+01  0.51100000000E-03 0.  1.
        -12    1    3    3    0    0  0.18736254109E+02  0.38308201925E+00  0.34141953977E+02  0.38946976663E+02  0.00000000000E+00 0.  1.
</event>
<event>
 7    1  0.2641103E-015  0.9000774E+02  0.7816164E-02  0.1186339E+00
        -11   -1    0    0    0    0  0.00000000000E+00  0.00000000000E+00  0.45593999997E+02  0.45594000000E+02  0.51100000000E-03 0. -1.
         11   -1    0    0    0    0 -0.00000000000E+00 -0.00000000000E+00 -0.45593999997E+02  0.45594000000E+02  0.51100000000E-03 0.  1.
    9900012    2    1    2    0    0  0.77310450704E+00 -0.69543165745E+00  0.55829349721E+00  0.90007742656E+02  0.90000004059E+02 0.  0.
        -12    1    1    2    0    0 -0.77310450704E+00  0.69543165745E+00 -0.55829349721E+00  0.11802573440E+01  0.00000000000E+00 0.  1.
         11    1    3    3    0    0  0.66576945050E+01 -0.21577416631E+01  0.43697390663E+01  0.82507796587E+01  0.51100000000E-03 0. -1.
        -11    1    3    3    0    0  0.19096779908E+02  0.27743400828E+02 -0.22949948629E+02  0.40756391336E+02  0.51100000000E-03 0.  1.
         12    1    3    3    0    0 -0.24981369906E+02 -0.26281090823E+02  0.19138503060E+02  0.41000571662E+02  0.00000000000E+00 0. -1.
</event>
<event>
 7    1  0.2641103E-015  0.9000772E+02  0.7816164E-02  0.1186339E+00
        -11   -1    0    0    0    0  0.00000000000E+00  0.00000000000E+00  0.45593999997E+02  0.45594000000E+02  0.51100000000E-03 0.  1.
         11   -1    0    0    0    0 -0.00000000000E+00 -0.00000000000E+00 -0.45593999997E+02  0.45594000000E+02  0.51100000000E-03 0. -1.
    9900012    2    1    2    0    0  0.30455030657E+00  0.44214207961E+00 -0.10511031384E+01  0.90007721086E+02  0.89999982204E+02 0.  0.
        -12    1    1    2    0    0 -0.30455030657E+00 -0.44214207961E+00  0.10511031384E+01  0.11802789142E+01  0.00000000000E+00 0.  1.
         11    1    3    3    0    0  0.17760330565E+02  0.36085515378E+02  0.49092334954E+01  0.40517827381E+02  0.51100000000E-03 0. -1.
        -11    1    3    3    0    0 -0.82857278047E+01  0.33443079708E+01  0.36125535940E+00  0.89424933186E+01  0.51100000000E-03 0.  1.
        -12    1    3    3    0    0 -0.91700524541E+01 -0.38987681269E+02 -0.63215919932E+01  0.40547400386E+02  0.00000000000E+00 0.  1.
</event>
<event>
 7    1  0.2641103E-015  0.9000767E+02  0.7816164E-02  0.1186339E+00
        -11   -1    0    0    0    0  0.00000000000E+00  0.00000000000E+00  0.45593999997E+02  0.45594000000E+02  0.51100000000E-03 0. -1.
         11   -1    0    0    0    0 -0.00000000000E+00 -0.00000000000E+00 -0.45593999997E+02  0.45594000000E+02  0.51100000000E-03 0.  1.
    9900012    2    1    2    0    0 -0.10102966343E+01 -0.36493102750E-01 -0.60921417113E+00  0.90007672528E+02  0.89999933005E+02 0.  0.
        -12    1    1    2    0    0  0.10102966343E+01  0.36493102750E-01  0.60921417113E+00  0.11803274725E+01  0.00000000000E+00 0.  1.
         11    1    3    3    0    0  0.33838646801E+01  0.28308631088E+01  0.19498039665E+01  0.48234906326E+01  0.51100000000E-03 0. -1.
        -11    1    3    3    0    0 -0.10472671001E+02 -0.40728045799E+02  0.12677689027E+02  0.43922367329E+02  0.51100000000E-03 0.  1.
         12    1    3    3    0    0  0.60785096870E+01  0.37860689587E+02 -0.15236707164E+02  0.41261814566E+02  0.00000000000E+00 0. -1.
</event>
<event>
 7    1  0.2641103E-015  0.9000777E+02  0.7816164E-02  0.1186339E+00
        -11   -1    0    0    0    0  0.00000000000E+00  0.00000000000E+00  0.45593999997E+02  0.45594000000E+02  0.51100000000E-03 0. -1.
         11   -1    0    0    0    0 -0.00000000000E+00 -0.00000000000E+00 -0.45593999997E+02  0.45594000000E+02  0.51100000000E-03 0.  1.
    9900012    2    1    2    0    0  0.57216208196E+00  0.18888146418E+00  0.10148437519E+01  0.90007765491E+02  0.90000027195E+02 0.  0.
        -12    1    1    2    0    0 -0.57216208196E+00 -0.18888146418E+00 -0.10148437519E+01  0.11802345090E+01  0.00000000000E+00 0.  1.
         11    1    3    3    0    0  0.12131711238E+02 -0.10018750247E+02 -0.17366163516E+01  0.15829390724E+02  0.51100000000E-03 0. -1.
        -11    1    3    3    0    0 -0.66845253499E+01  0.36803357401E+02 -0.16604742467E+02  0.40925389036E+02  0.51100000000E-03 0.  1.
         12    1    3    3    0    0 -0.48750238059E+01 -0.26595725689E+02  0.19356202571E+02  0.33252985731E+02  0.00000000000E+00 0. -1.
</event>
<event>
 7    1  0.2641103E-015  0.9000780E+02  0.7816164E-02  0.1186339E+00
        -11   -1    0    0    0    0  0.00000000000E+00  0.00000000000E+00  0.45593999997E+02  0.45594000000E+02  0.51100000000E-03 0. -1.
         11   -1    0    0    0    0 -0.00000000000E+00 -0.00000000000E+00 -0.45593999997E+02  0.45594000000E+02  0.51100000000E-03 0.  1.
    9900012    2    1    2    0    0  0.86005568328E-02  0.66561028924E+00  0.97456195107E+00  0.90007795771E+02  0.90000057875E+02 0.  0.
        -12    1    1    2    0    0 -0.86005568328E-02 -0.66561028924E+00 -0.97456195107E+00  0.11802042294E+01  0.00000000000E+00 0.  1.
         11    1    3    3    0    0 -0.31918188661E+02 -0.13217282491E+02 -0.20043119479E+02  0.39939879351E+02  0.51100000000E-03 0. -1.
        -11    1    3    3    0    0 -0.49718103681E+00 -0.55581728507E+01  0.86440471340E+01  0.10288830135E+02  0.51100000000E-03 0.  1.
        -12    1    3    3    0    0  0.32423970255E+02  0.19441065631E+02  0.12373634296E+02  0.39779086285E+02  0.00000000000E+00 0.  1.
</event>
<event>
 7    1  0.2641103E-015  0.9000831E+02  0.7816164E-02  0.1186338E+00
        -11   -1    0    0    0    0  0.00000000000E+00  0.00000000000E+00  0.45593999997E+02  0.45594000000E+02  0.51100000000E-03 0. -1.
         11   -1    0    0    0    0 -0.00000000000E+00 -0.00000000000E+00 -0.45593999997E+02  0.45594000000E+02  0.51100000000E-03 0.  1.
    9900012    2    1    2    0    0  0.40513803852E+00 -0.76758146541E+00 -0.79896163584E+00  0.90008314520E+02  0.90000583470E+02 0.  0.
        -12    1    1    2    0    0 -0.40513803852E+00  0.76758146541E+00  0.79896163584E+00  0.11796854801E+01  0.00000000000E+00 0.  1.
         11    1    3    3    0    0 -0.34134962840E+02 -0.27020520131E+02  0.80437543554E+01  0.44271957045E+02  0.51100000000E-03 0. -1.
        -11    1    3    3    0    0  0.71890856631E+01  0.48484587065E+01  0.27902303617E+01  0.91091102877E+01  0.51100000000E-03 0.  1.
        -12    1    3    3    0    0  0.27351015216E+02  0.21404479959E+02 -0.11632946353E+02  0.36627247187E+02  0.00000000000E+00 0.  1.
</event>
<event>
 7    1  0.2641103E-015  0.9000645E+02  0.7816164E-02  0.1186342E+00
        -11   -1    0    0    0    0  0.00000000000E+00  0.00000000000E+00  0.45593999997E+02  0.45594000000E+02  0.51100000000E-03 0. -1.
         11   -1    0    0    0    0 -0.00000000000E+00 -0.00000000000E+00 -0.45593999997E+02  0.45594000000E+02  0.51100000000E-03 0.  1.
    9900012    2    1    2    0    0 -0.10996090147E+01 -0.42646039041E+00  0.71081520755E-01  0.90006449733E+02  0.89998694060E+02 0.  0.
        -12    1    1    2    0    0  0.10996090147E+01  0.42646039041E+00 -0.71081520755E-01  0.11815502666E+01  0.00000000000E+00 0.  1.
         11    1    3    3    0    0 -0.56152974298E+01 -0.12986069960E+00  0.24829825358E+02  0.25457192630E+02  0.51100000000E-03 0. -1.
        -11    1    3    3    0    0 -0.72242439700E+01  0.50620396039E+01  0.17913847280E+02  0.19967971117E+02  0.51100000000E-03 0.  1.
        -12    1    3    3    0    0  0.11739932385E+02 -0.53586392947E+01 -0.42672591118E+02  0.44581285986E+02  0.00000000000E+00 0.  1.
</event>
<event>
 7    1  0.2641103E-015  0.9000777E+02  0.7816164E-02  0.1186339E+00
        -11   -1    0    0    0    0  0.00000000000E+00  0.00000000000E+00  0.45593999997E+02  0.45594000000E+02  0.51100000000E-03 0.  1.
         11   -1    0    0    0    0 -0.00000000000E+00 -0.00000000000E+00 -0.45593999997E+02  0.45594000000E+02  0.51100000000E-03 0. -1.
    9900012    2    1    2    0    0 -0.10502888607E+01  0.14608523239E+00 -0.51816272968E+00  0.90007771124E+02  0.90000032903E+02 0.  0.
        -12    1    1    2    0    0  0.10502888607E+01 -0.14608523239E+00  0.51816272968E+00  0.11802288763E+01  0.00000000000E+00 0.  1.
         11    1    3    3    0    0  0.23565946919E+01  0.27649917381E+02  0.56171745373E+00  0.27755846167E+02  0.51100000000E-03 0. -1.
        -11    1    3    3    0    0  0.66040053820E+01  0.10371831894E+02 -0.16131796369E+02  0.20283555858E+02  0.51100000000E-03 0.  1.
        -12    1    3    3    0    0 -0.10010888935E+02 -0.37875664042E+02  0.15051916185E+02  0.41968369098E+02  0.00000000000E+00 0.  1.
</event>
<event>
 7    1  0.2641103E-015  0.9000775E+02  0.7816164E-02  0.1186339E+00
        -11   -1    0    0    0    0  0.00000000000E+00  0.00000000000E+00  0.45593999997E+02  0.45594000000E+02  0.51100000000E-03 0.  1.
         11   -1    0    0    0    0 -0.00000000000E+00 -0.00000000000E+00 -0.45593999997E+02  0.45594000000E+02  0.51100000000E-03 0. -1.
    9900012    2    1    2    0    0 -0.70936683241E+00 -0.91034866185E+00  0.24709474800E+00  0.90007749262E+02  0.90000010753E+02 0.  0.
        -12    1    1    2    0    0  0.70936683241E+00  0.91034866185E+00 -0.24709474800E+00  0.11802507376E+01  0.00000000000E+00 0.  1.
         11    1    3    3    0    0 -0.46937966788E+01 -0.84371776591E+01 -0.11106999329E+01  0.97186083734E+01  0.51100000000E-03 0. -1.
        -11    1    3    3    0    0 -0.17545185075E+02  0.36569810440E+02  0.12525528499E+02  0.42450835320E+02  0.51100000000E-03 0.  1.
         12    1    3    3    0    0  0.21529614921E+02 -0.29042981442E+02 -0.11167733818E+02  0.37838305569E+02  0.00000000000E+00 0. -1.
</event>
<event>
 7    1  0.2641103E-015  0.9000777E+02  0.7816164E-02  0.1186339E+00
        -11   -1    0    0    0    0  0.00000000000E+00  0.00000000000E+00  0.45593999997E+02  0.45594000000E+02  0.51100000000E-03 0.  1.
         11   -1    0    0    0    0 -0.00000000000E+00 -0.00000000000E+00 -0.45593999997E+02  0.45594000000E+02  0.51100000000E-03 0. -1.
    9900012    2    1    2    0    0 -0.80047870550E+00 -0.86150069111E+00 -0.99933332958E-01  0.90007772789E+02  0.90000034590E+02 0.  0.
        -12    1    1    2    0    0  0.80047870550E+00  0.86150069111E+00  0.99933332958E-01  0.11802272111E+01  0.00000000000E+00 0.  1.
         11    1    3    3    0    0  0.49415746296E+01 -0.19960131945E+01 -0.67717844107E+01  0.86174412013E+01  0.51100000000E-03 0. -1.
        -11    1    3    3    0    0 -0.10507765620E+02 -0.39023735509E+02  0.66073469408E+01  0.40950239380E+02  0.51100000000E-03 0.  1.
         12    1    3    3    0    0  0.47657122849E+01  0.40158248012E+02  0.64504136927E-01  0.40440092208E+02  0.00000000000E+00 0. -1.
</event>
<event>
 7    1  0.2641103E-015  0.9000736E+02  0.7816164E-02  0.1186340E+00
        -11   -1    0    0    0    0  0.00000000000E+00  0.00000000000E+00  0.45593999997E+02  0.45594000000E+02  0.51100000000E-03 0.  1.
         11   -1    0    0    0    0 -0.00000000000E+00 -0.00000000000E+00 -0.45593999997E+02  0.45594000000E+02  0.51100000000E-03 0. -1.
    9900012    2    1    2    0    0  0.80559138861E+00  0.24234325206E+00 -0.82837916614E+00  0.90007356201E+02  0.89999612502E+02 0.  0.
        -12    1    1    2    0    0 -0.80559138861E+00 -0.24234325206E+00  0.82837916614E+00  0.11806437990E+01  0.00000000000E+00 0.  1.
         11    1    3    3    0    0 -0.60202077103E+00 -0.10716091532E+02  0.65885226273E+00  0.10753191773E+02  0.51100000000E-03 0. -1.
        -11    1    3    3    0    0 -0.32244046807E+01 -0.56446452605E+01  0.36745138396E+02  0.37315733969E+02  0.51100000000E-03 0.  1.
         12    1    3    3    0    0  0.46320168404E+01  0.16603080045E+02 -0.38232369825E+02  0.41938430459E+02  0.00000000000E+00 0. -1.
</event>
<event>
 7    1  0.2641103E-015  0.9000773E+02  0.7816164E-02  0.1186339E+00
        -11   -1    0    0    0    0  0.00000000000E+00  0.00000000000E+00  0.45593999997E+02  0.45594000000E+02  0.51100000000E-03 0.  1.
         11   -1    0    0    0    0 -0.00000000000E+00 -0.00000000000E+00 -0.45593999997E+02  0.45594000000E+02  0.51100000000E-03 0. -1.
    9900012    2    1    2    0    0  0.52678093816E+00  0.23113337789E+00 -0.10305878041E+01  0.90007732227E+02  0.89999993492E+02 0.  0.
        -12    1    1    2    0    0 -0.52678093816E+00 -0.23113337789E+00  0.10305878041E+01  0.11802677734E+01  0.00000000000E+00 0.  1.
         11    1    3    3    0    0  0.20650557708E+02 -0.11252451336E+02 -0.27280518129E+02  0.36017910328E+02  0.51100000000E-03 0. -1.
        -11    1    3    3    0    0 -0.24043468871E+01 -0.91562140670E+01 -0.64494389184E+01  0.11454798236E+02  0.51100000000E-03 0.  1.
        -12    1    3    3    0    0 -0.17719429883E+02  0.20639798781E+02  0.32699369243E+02  0.42535023663E+02  0.00000000000E+00 0.  1.
</event>
<event>
 7    1  0.2641103E-015  0.9000769E+02  0.7816164E-02  0.1186339E+00
        -11   -1    0    0    0    0  0.00000000000E+00  0.00000000000E+00  0.45593999997E+02  0.45594000000E+02  0.51100000000E-03 0. -1.
         11   -1    0    0    0    0 -0.00000000000E+00 -0.00000000000E+00 -0.45593999997E+02  0.45594000000E+02  0.51100000000E-03 0.  1.
    9900012    2    1    2    0    0  0.22501245158E+00  0.67731700712E+00  0.94006999710E+00  0.90007694730E+02  0.89999955500E+02 0.  0.
        -12    1    1    2    0    0 -0.22501245158E+00 -0.67731700712E+00 -0.94006999710E+00  0.11803052702E+01  0.00000000000E+00 0.  1.
         11    1    3    3    0    0  0.12608777051E+02 -0.28055408110E+02  0.27081695736E+02  0.40981769448E+02  0.51100000000E-03 0. -1.
        -11    1    3    3    0    0 -0.30931236027E+01  0.10969015057E+01  0.52449037999E+01  0.61870528256E+01  0.51100000000E-03 0.  1.
        -12    1    3    3    0    0 -0.92906409968E+01  0.27635823611E+02 -0.31386529539E+02  0.42838872456E+02  0.00000000000E+00 0.  1.
</event>
<event>
 7    1  0.2641103E-015  0.9000771E+02  0.7816164E-02  0.1186339E+00
        -11   -1    0    0    0    0  0.00000000000E+00  0.00000000000E+00  0.45593999997E+02  0.45594000000E+02  0.51100000000E-03 0. -1.
         11   -1    0    0    0    0 -0.00000000000E+00 -0.00000000000E+00 -0.45593999997E+02  0.45594000000E+02  0.51100000000E-03 0.  1.
    9900012    2    1    2    0    0  0.34507579456E+00 -0.85903388437E-01  0.11254482268E+01  0.90007707491E+02  0.89999968430E+02 0.  0.
        -12    1    1    2    0    0 -0.34507579456E+00  0.85903388437E-01 -0.11254482268E+01  0.11802925092E+01  0.00000000000E+00 0.  1.
         11    1    3    3    0    0  0.98554797759E+00 -0.12331903320E+02  0.26825945952E+02  0.29541132693E+02  0.51100000000E-03 0. -1.
        -11    1    3    3    0    0 -0.33457830928E+01 -0.90755782725E+00  0.16148164644E+02  0.16516087531E+02  0.51100000000E-03 0.  1.
        -12    1    3    3    0    0  0.27053109098E+01  0.13153557759E+02 -0.41848662369E+02  0.43950487266E+02  0.00000000000E+00 0.  1.
</event>
<event>
 7    1  0.2641103E-015  0.9000772E+02  0.7816164E-02  0.1186339E+00
        -11   -1    0    0    0    0  0.00000000000E+00  0.00000000000E+00  0.45593999997E+02  0.45594000000E+02  0.51100000000E-03 0.  1.
         11   -1    0    0    0    0 -0.00000000000E+00 -0.00000000000E+00 -0.45593999997E+02  0.45594000000E+02  0.51100000000E-03 0. -1.
    9900012    2    1    2    0    0  0.73406876565E+00  0.50975393940E-02 -0.92421928576E+00  0.90007718582E+02  0.89999979667E+02 0.  0.
        -12    1    1    2    0    0 -0.73406876565E+00 -0.50975393940E-02  0.92421928576E+00  0.11802814180E+01  0.00000000000E+00 0.  1.
         11    1    3    3    0    0  0.66315499698E+01 -0.21982501914E+02  0.97056342970E+01  0.24928040091E+02  0.51100000000E-03 0. -1.
        -11    1    3    3    0    0 -0.18574216059E+02  0.19614858267E+01 -0.29410273327E+02  0.34839820698E+02  0.51100000000E-03 0.  1.
         12    1    3    3    0    0  0.12676734855E+02  0.20026113627E+02  0.18780419744E+02  0.30239857793E+02  0.00000000000E+00 0. -1.
</event>
<event>
 7    1  0.2641103E-015  0.9000715E+02  0.7816164E-02  0.1186340E+00
        -11   -1    0    0    0    0  0.00000000000E+00  0.00000000000E+00  0.45593999997E+02  0.45594000000E+02  0.51100000000E-03 0.  1.
         11   -1    0    0    0    0 -0.00000000000E+00 -0.00000000000E+00 -0.45593999997E+02  0.45594000000E+02  0.51100000000E-03 0. -1.
    9900012    2    1    2    0    0 -0.41634990216E+00  0.49883012621E+00 -0.98602147388E+00  0.90007145613E+02  0.89999399133E+02 0.  0.
        -12    1    1    2    0    0  0.41634990216E+00 -0.49883012621E+00  0.98602147388E+00  0.11808543868E+01  0.00000000000E+00 0.  1.
         11    1    3    3    0    0  0.27741995660E+02 -0.96194199919E+01 -0.31472957146E+02  0.43042985444E+02  0.51100000000E-03 0. -1.
        -11    1    3    3    0    0 -0.34862283406E+01 -0.53903651055E+01  0.38651031961E+01  0.74932534316E+01  0.51100000000E-03 0.  1.
        -12    1    3    3    0    0 -0.24672117221E+02  0.15508615224E+02  0.26621832476E+02  0.39470906738E+02  0.00000000000E+00 0.  1.
</event>
<event>
 7    1  0.2641103E-015  0.9000778E+02  0.7816164E-02  0.1186339E+00
        -11   -1    0    0    0    0  0.00000000000E+00  0.00000000000E+00  0.45593999997E+02  0.45594000000E+02  0.51100000000E-03 0. -1.
         11   -1    0    0    0    0 -0.00000000000E+00 -0.00000000000E+00 -0.45593999997E+02  0.45594000000E+02  0.51100000000E-03 0.  1.
    9900012    2    1    2    0    0 -0.50422112951E+00  0.81290299661E+00  0.69128052141E+00  0.90007780110E+02  0.90000042007E+02 0.  0.
        -12    1    1    2    0    0  0.50422112951E+00 -0.81290299661E+00 -0.69128052141E+00  0.11802198899E+01  0.00000000000E+00 0.  1.
         11    1    3    3    0    0 -0.80074931736E+01 -0.45412623315E+01  0.56343701473E+01  0.10793013375E+02  0.51100000000E-03 0. -1.
        -11    1    3    3    0    0 -0.10074990511E+02 -0.29792693248E+02 -0.19843663929E+02  0.37187108024E+02  0.51100000000E-03 0.  1.
         12    1    3    3    0    0  0.17578262555E+02  0.35146858576E+02  0.14900574303E+02  0.42027658712E+02  0.00000000000E+00 0. -1.
</event>
<event>
 7    1  0.2641103E-015  0.9000775E+02  0.7816164E-02  0.1186339E+00
        -11   -1    0    0    0    0  0.00000000000E+00  0.00000000000E+00  0.45593999997E+02  0.45594000000E+02  0.51100000000E-03 0. -1.
         11   -1    0    0    0    0 -0.00000000000E+00 -0.00000000000E+00 -0.45593999997E+02  0.45594000000E+02  0.51100000000E-03 0.  1.
    9900012    2    1    2    0    0  0.60186083429E+00  0.46358684405E+00 -0.90323880883E+00  0.90007750208E+02  0.90000011711E+02 0.  0.
        -12    1    1    2    0    0 -0.60186083429E+00 -0.46358684405E+00  0.90323880883E+00  0.11802497920E+01  0.00000000000E+00 0.  1.
         11    1    3    3    0    0 -0.37888889498E+02  0.88864085455E+01 -0.56025524165E+01  0.39318250191E+02  0.51100000000E-03 0. -1.
        -11    1    3    3    0    0  0.10813750359E+00  0.54824669988E+00 -0.89565335008E+01  0.89739490067E+01  0.51100000000E-03 0.  1.
        -12    1    3    3    0    0  0.38382612829E+02 -0.89710684013E+01  0.13655847108E+02  0.41715551010E+02  0.00000000000E+00 0.  1.
</event>
<event>
 7    1  0.2641103E-015  0.9000776E+02  0.7816164E-02  0.1186339E+00
        -11   -1    0    0    0    0  0.00000000000E+00  0.00000000000E+00  0.45593999997E+02  0.45594000000E+02  0.51100000000E-03 0. -1.
         11   -1    0    0    0    0 -0.00000000000E+00 -0.00000000000E+00 -0.45593999997E+02  0.45594000000E+02  0.51100000000E-03 0.  1.
    9900012    2    1    2    0    0  0.56455488705E+00  0.36536403837E+00  0.96992783530E+00  0.90007757183E+02  0.90000018778E+02 0.  0.
        -12    1    1    2    0    0 -0.56455488705E+00 -0.36536403837E+00 -0.96992783530E+00  0.11802428168E+01  0.00000000000E+00 0.  1.
         11    1    3    3    0    0 -0.32310284718E+02  0.53369480439E+01  0.15430130330E+02  0.36201193838E+02  0.51100000000E-03 0. -1.
        -11    1    3    3    0    0 -0.91898791746E+01 -0.12129666323E+01 -0.33841722936E+00  0.92757583937E+01  0.51100000000E-03 0.  1.
        -12    1    3    3    0    0  0.42064718780E+02 -0.37586173732E+01 -0.14121785266E+02  0.44530804952E+02  0.00000000000E+00 0.  1.
</event>
<event>
 7    1  0.2641103E-015  0.9000773E+02  0.7816164E-02  0.1186339E+00
        -11   -1    0    0    0    0  0.00000000000E+00  0.00000000000E+00  0.45593999997E+02  0.45594000000E+02  0.51100000000E-03 0.  1.
         11   -1    0    0    0    0 -0.00000000000E+00 -0.00000000000E+00 -0.45593999997E+02  0.45594000000E+02  0.51100000000E-03 0. -1.
    9900012    2    1    2    0    0 -0.92376032473E+00  0.18781355924E+00 -0.71022798525E+00  0.90007732716E+02  0.89999993988E+02 0.  0.
        -12    1    1    2    0    0  0.92376032473E+00 -0.18781355924E+00  0.71022798525E+00  0.11802672840E+01  0.00000000000E+00 0.  1.
         11    1    3    3    0    0 -0.17274242955E+02  0.23872302567E+02 -0.24224398138E+02  0.38145874809E+02  0.51100000000E-03 0. -1.
        -11    1    3    3    0    0 -0.41570016024E+01 -0.42327117466E+01 -0.77204904799E+01  0.97366567446E+01  0.51100000000E-03 0.  1.
        -12    1    3    3    0    0  0.20507484232E+02 -0.19451777261E+02  0.31234660633E+02  0.42125201163E+02  0.00000000000E+00 0.  1.
</event>
<event>
 7    1  0.2641103E-015  0.9000755E+02  0.7816164E-02  0.1186339E+00
        -11   -1    0    0    0    0  0.00000000000E+00  0.00000000000E+00  0.45593999997E+02  0.45594000000E+02  0.51100000000E-03 0.  1.
         11   -1    0    0    0    0 -0.00000000000E+00 -0.00000000000E+00 -0.45593999997E+02  0.45594000000E+02  0.51100000000E-03 0. -1.
    9900012    2    1    2    0    0  0.47555853672E+00 -0.57928761910E+00 -0.91199796394E+00  0.90007546547E+02  0.89999805362E+02 0.  0.
        -12    1    1    2    0    0 -0.47555853672E+00  0.57928761910E+00  0.91199796394E+00  0.11804534526E+01  0.00000000000E+00 0.  1.
         11    1    3    3    0    0 -0.97645694963E+01 -0.27352527922E+02 -0.12962265787E+02  0.31804526969E+02  0.51100000000E-03 0. -1.
        -11    1    3    3    0    0 -0.17947859345E+02  0.56792163782E+00  0.74526278859E+01  0.19441961134E+02  0.51100000000E-03 0.  1.
         12    1    3    3    0    0  0.28187987378E+02  0.26205318665E+02  0.45976399368E+01  0.38761058444E+02  0.00000000000E+00 0. -1.
</event>
<event>
 7    1  0.2641103E-015  0.9000778E+02  0.7816164E-02  0.1186339E+00
        -11   -1    0    0    0    0  0.00000000000E+00  0.00000000000E+00  0.45593999997E+02  0.45594000000E+02  0.51100000000E-03 0.  1.
         11   -1    0    0    0    0 -0.00000000000E+00 -0.00000000000E+00 -0.45593999997E+02  0.45594000000E+02  0.51100000000E-03 0. -1.
    9900012    2    1    2    0    0 -0.48302708488E+00  0.10303609932E+01 -0.31299587300E+00  0.90007777412E+02  0.90000039274E+02 0.  0.
        -12    1    1    2    0    0  0.48302708488E+00 -0.10303609932E+01  0.31299587300E+00  0.11802225881E+01  0.00000000000E+00 0.  1.
         11    1    3    3    0    0  0.66073455657E+01  0.63654496188E+01 -0.28877595670E+01  0.96184780424E+01  0.51100000000E-03 0. -1.
        -11    1    3    3    0    0  0.28083574391E+02  0.18353652618E+02 -0.11873814038E+02  0.35588357296E+02  0.51100000000E-03 0.  1.
         12    1    3    3    0    0 -0.35173947042E+02 -0.23688741243E+02  0.14448577732E+02  0.44800942073E+02  0.00000000000E+00 0. -1.
</event>
<event>
 7    1  0.2641103E-015  0.9000778E+02  0.7816164E-02  0.1186339E+00
        -11   -1    0    0    0    0  0.00000000000E+00  0.00000000000E+00  0.45593999997E+02  0.45594000000E+02  0.51100000000E-03 0.  1.
         11   -1    0    0    0    0 -0.00000000000E+00 -0.00000000000E+00 -0.45593999997E+02  0.45594000000E+02  0.51100000000E-03 0. -1.
    9900012    2    1    2    0    0  0.76480799142E+00 -0.61391997934E+00 -0.65657207491E+00  0.90007781421E+02  0.90000043336E+02 0.  0.
        -12    1    1    2    0    0 -0.76480799142E+00  0.61391997934E+00  0.65657207491E+00  0.11802185790E+01  0.00000000000E+00 0.  1.
         11    1    3    3    0    0  0.75235657233E+01 -0.48890305688E+01 -0.78290522704E+01  0.11908010783E+02  0.51100000000E-03 0. -1.
        -11    1    3    3    0    0  0.27411491326E+02 -0.82550734806E+00  0.26816962056E+02  0.38356495841E+02  0.51100000000E-03 0.  1.
         12    1    3    3    0    0 -0.34170249057E+02  0.51006179375E+01 -0.19644481860E+02  0.39743274797E+02  0.00000000000E+00 0. -1.
</event>
<event>
 7    1  0.2641103E-015  0.9000755E+02  0.7816164E-02  0.1186339E+00
        -11   -1    0    0    0    0  0.00000000000E+00  0.00000000000E+00  0.45593999997E+02  0.45594000000E+02  0.51100000000E-03 0.  1.
         11   -1    0    0    0    0 -0.00000000000E+00 -0.00000000000E+00 -0.45593999997E+02  0.45594000000E+02  0.51100000000E-03 0. -1.
    9900012    2    1    2    0    0 -0.85968882772E+00  0.74962388820E+00 -0.30406470601E+00  0.90007552543E+02  0.89999811436E+02 0.  0.
        -12    1    1    2    0    0  0.85968882772E+00 -0.74962388820E+00  0.30406470601E+00  0.11804474574E+01  0.00000000000E+00 0.  1.
         11    1    3    3    0    0  0.44958440466E+01 -0.11158470343E+01  0.81565679416E+01  0.93801561363E+01  0.51100000000E-03 0. -1.
        -11    1    3    3    0    0  0.30588608117E+02  0.23172024592E+02 -0.30828304803E+01  0.38498175466E+02  0.51100000000E-03 0.  1.
         12    1    3    3    0    0 -0.35944140991E+02 -0.21306553670E+02 -0.53778021673E+01  0.42129220940E+02  0.00000000000E+00 0. -1.
</event>
<event>
 7    1  0.2862352E-015  0.9000782E+02  0.7816164E-02  0.1186339E+00
        -11   -1    0    0    0    0  0.00000000000E+00  0.00000000000E+00  0.45593999997E+02  0.45594000000E+02  0.51100000000E-03 0.  1.
         11   -1    0    0    0    0 -0.00000000000E+00 -0.00000000000E+00 -0.45593999997E+02  0.45594000000E+02  0.51100000000E-03 0. -1.
    9900012    2    1    2    0    0 -0.11049269175E+01 -0.36985112594E+00  0.18751872264E+00  0.90007823479E+02  0.90000085949E+02 0.  0.
        -12    1    1    2    0    0  0.11049269175E+01  0.36985112594E+00 -0.18751872264E+00  0.11801765206E+01  0.00000000000E+00 0.  1.
         11    1    3    3    0    0  0.75802753550E+01  0.36400934857E+01 -0.47147670762E+01  0.96405333818E+01  0.51100000000E-03 0. -1.
        -11    1    3    3    0    0  0.11134971388E+02  0.34408864798E+02 -0.34774091111E+01  0.36332491504E+02  0.51100000000E-03 0.  1.
         12    1    3    3    0    0 -0.19820173660E+02 -0.38418809410E+02  0.83796949100E+01  0.44034798594E+02  0.00000000000E+00 0. -1.
</event>
<event>
 7    1  0.2641103E-015  0.9000764E+02  0.7816164E-02  0.1186339E+00
        -11   -1    0    0    0    0  0.00000000000E+00  0.00000000000E+00  0.45593999997E+02  0.45594000000E+02  0.51100000000E-03 0.  1.
         11   -1    0    0    0    0 -0.00000000000E+00 -0.00000000000E+00 -0.45593999997E+02  0.45594000000E+02  0.51100000000E-03 0. -1.
    9900012    2    1    2    0    0  0.44612565699E+00 -0.80120332716E+00 -0.74317061407E+00  0.90007636736E+02  0.89999896741E+02 0.  0.
        -12    1    1    2    0    0 -0.44612565699E+00  0.80120332716E+00  0.74317061407E+00  0.11803632640E+01  0.00000000000E+00 0.  1.
         11    1    3    3    0    0 -0.54311686950E+01  0.37352464430E+01  0.71562393051E+01  0.97294100868E+01  0.51100000000E-03 0. -1.
        -11    1    3    3    0    0  0.19605846656E+02 -0.93663716961E+01  0.31505562340E+02  0.38271642250E+02  0.51100000000E-03 0.  1.
         12    1    3    3    0    0 -0.13728552304E+02  0.48299219259E+01 -0.39404972259E+02  0.42006584400E+02  0.00000000000E+00 0. -1.
</event>
<event>
 7    1  0.2641103E-015  0.9000780E+02  0.7816164E-02  0.1186339E+00
        -11   -1    0    0    0    0  0.00000000000E+00  0.00000000000E+00  0.45593999997E+02  0.45594000000E+02  0.51100000000E-03 0.  1.
         11   -1    0    0    0    0 -0.00000000000E+00 -0.00000000000E+00 -0.45593999997E+02  0.45594000000E+02  0.51100000000E-03 0. -1.
    9900012    2    1    2    0    0 -0.96667970053E+00  0.12243722014E+00 -0.66588615729E+00  0.90007803029E+02  0.90000065229E+02 0.  0.
        -12    1    1    2    0    0  0.96667970053E+00 -0.12243722014E+00  0.66588615729E+00  0.11801969712E+01  0.00000000000E+00 0.  1.
         11    1    3    3    0    0  0.83823507945E+01 -0.54890809189E+01 -0.41430406942E+01  0.10842444403E+02  0.51100000000E-03 0. -1.
        -11    1    3    3    0    0  0.14714960584E+02  0.10765993555E+02  0.34826331595E+02  0.39310431883E+02  0.51100000000E-03 0.  1.
         12    1    3    3    0    0 -0.24063991079E+02 -0.51544754160E+01 -0.31349177058E+02  0.39854926743E+02  0.00000000000E+00 0. -1.
</event>
<event>
 7    1  0.2641103E-015  0.9000774E+02  0.7816164E-02  0.1186339E+00
        -11   -1    0    0    0    0  0.00000000000E+00  0.00000000000E+00  0.45593999997E+02  0.45594000000E+02  0.51100000000E-03 0.  1.
         11   -1    0    0    0    0 -0.00000000000E+00 -0.00000000000E+00 -0.45593999997E+02  0.45594000000E+02  0.51100000000E-03 0. -1.
    9900012    2    1    2    0    0 -0.68483648955E+00 -0.95388630537E+00 -0.11880470372E+00  0.90007739580E+02  0.90000000943E+02 0.  0.
        -12    1    1    2    0    0  0.68483648955E+00  0.95388630537E+00  0.11880470372E+00  0.11802604198E+01  0.00000000000E+00 0.  1.
         11    1    3    3    0    0 -0.10469196828E+02  0.15144044091E+01 -0.19355329192E+00  0.10579932234E+02  0.51100000000E-03 0. -1.
        -11    1    3    3    0    0  0.36345188760E+01  0.36001460002E+02  0.12896381611E+02  0.38413949402E+02  0.51100000000E-03 0.  1.
         12    1    3    3    0    0  0.61498414620E+01 -0.38469750716E+02 -0.12821633022E+02  0.41013857945E+02  0.00000000000E+00 0. -1.
</event>
<event>
 7    1  0.2641103E-015  0.9000772E+02  0.7816164E-02  0.1186339E+00
        -11   -1    0    0    0    0  0.00000000000E+00  0.00000000000E+00  0.45593999997E+02  0.45594000000E+02  0.51100000000E-03 0.  1.
         11   -1    0    0    0    0 -0.00000000000E+00 -0.00000000000E+00 -0.45593999997E+02  0.45594000000E+02  0.51100000000E-03 0. -1.
    9900012    2    1    2    0    0  0.83417207461E+00  0.82636491694E+00  0.11978351386E+00  0.90007716087E+02  0.89999977139E+02 0.  0.
        -12    1    1    2    0    0 -0.83417207461E+00 -0.82636491694E+00 -0.11978351386E+00  0.11802839134E+01  0.00000000000E+00 0.  1.
         11    1    3    3    0    0 -0.10882447810E+02 -0.22374903869E+02  0.16171454024E+02  0.29674566871E+02  0.51100000000E-03 0.  1.
        -11    1    3    3    0    0  0.12104893704E+02  0.14814434053E+02  0.17390044739E+02  0.25853618010E+02  0.51100000000E-03 0. -1.
         12    1    3    3    0    0 -0.38827382003E+00  0.83868347326E+01 -0.33441715249E+02  0.34479531206E+02  0.00000000000E+00 0. -1.
</event>
<event>
 7    1  0.2641103E-015  0.9000765E+02  0.7816164E-02  0.1186339E+00
        -11   -1    0    0    0    0  0.00000000000E+00  0.00000000000E+00  0.45593999997E+02  0.45594000000E+02  0.51100000000E-03 0. -1.
         11   -1    0    0    0    0 -0.00000000000E+00 -0.00000000000E+00 -0.45593999997E+02  0.45594000000E+02  0.51100000000E-03 0.  1.
    9900012    2    1    2    0    0 -0.46962362588E+00 -0.98633957058E+00  0.44701380696E+00  0.90007646899E+02  0.89999907038E+02 0.  0.
        -12    1    1    2    0    0  0.46962362588E+00  0.98633957058E+00 -0.44701380696E+00  0.11803531006E+01  0.00000000000E+00 0.  1.
         11    1    3    3    0    0  0.12084506840E+02  0.37915629141E+02  0.32356047198E+00  0.39796167282E+02  0.51100000000E-03 0. -1.
        -11    1    3    3    0    0 -0.61108014701E+01  0.31305353520E+01 -0.31662848579E+01  0.75609196702E+01  0.51100000000E-03 0.  1.
        -12    1    3    3    0    0 -0.64433289955E+01 -0.42032504064E+02  0.32897381929E+01  0.42650559947E+02  0.00000000000E+00 0.  1.
</event>
<event>
 7    1  0.2641103E-015  0.9000775E+02  0.7816164E-02  0.1186339E+00
        -11   -1    0    0    0    0  0.00000000000E+00  0.00000000000E+00  0.45593999997E+02  0.45594000000E+02  0.51100000000E-03 0.  1.
         11   -1    0    0    0    0 -0.00000000000E+00 -0.00000000000E+00 -0.45593999997E+02  0.45594000000E+02  0.51100000000E-03 0. -1.
    9900012    2    1    2    0    0  0.10062177256E+01  0.22805259422E+00 -0.57316438802E+00  0.90007745996E+02  0.90000007444E+02 0.  0.
        -12    1    1    2    0    0 -0.10062177256E+01 -0.22805259422E+00  0.57316438802E+00  0.11802540035E+01  0.00000000000E+00 0.  1.
         11    1    3    3    0    0  0.39879181680E+00  0.22680621868E+02 -0.29778058230E+02  0.37433973814E+02  0.51100000000E-03 0. -1.
        -11    1    3    3    0    0 -0.17736949213E+01  0.29361835477E-01 -0.84604656339E+01  0.86444395304E+01  0.51100000000E-03 0.  1.
        -12    1    3    3    0    0  0.23811208302E+01 -0.22481931110E+02  0.37665359476E+02  0.43929332653E+02  0.00000000000E+00 0.  1.
</event>
<event>
 7    1  0.2641103E-015  0.9000776E+02  0.7816164E-02  0.1186339E+00
        -11   -1    0    0    0    0  0.00000000000E+00  0.00000000000E+00  0.45593999997E+02  0.45594000000E+02  0.51100000000E-03 0.  1.
         11   -1    0    0    0    0 -0.00000000000E+00 -0.00000000000E+00 -0.45593999997E+02  0.45594000000E+02  0.51100000000E-03 0. -1.
    9900012    2    1    2    0    0 -0.93477160017E+00 -0.67711841474E+00  0.24634812947E+00  0.90007756511E+02  0.90000018097E+02 0.  0.
        -12    1    1    2    0    0  0.93477160017E+00  0.67711841474E+00 -0.24634812947E+00  0.11802434888E+01  0.00000000000E+00 0.  1.
         11    1    3    3    0    0  0.11364334603E+02  0.90750232224E+00 -0.89468333811E+00  0.11435563824E+02  0.51100000000E-03 0. -1.
        -11    1    3    3    0    0  0.52512519521E+01  0.15925220651E+02  0.33704552765E+02  0.37645520015E+02  0.51100000000E-03 0.  1.
         12    1    3    3    0    0 -0.17550358155E+02 -0.17509841388E+02 -0.32563521297E+02  0.40926672673E+02  0.00000000000E+00 0. -1.
</event>
<event>
 7    1  0.2641103E-015  0.9000769E+02  0.7816164E-02  0.1186339E+00
        -11   -1    0    0    0    0  0.00000000000E+00  0.00000000000E+00  0.45593999997E+02  0.45594000000E+02  0.51100000000E-03 0. -1.
         11   -1    0    0    0    0 -0.00000000000E+00 -0.00000000000E+00 -0.45593999997E+02  0.45594000000E+02  0.51100000000E-03 0.  1.
    9900012    2    1    2    0    0 -0.54909630308E+00 -0.87715792562E+00 -0.56763682595E+00  0.90007693115E+02  0.89999953864E+02 0.  0.
        -12    1    1    2    0    0  0.54909630308E+00  0.87715792562E+00  0.56763682595E+00  0.11803068850E+01  0.00000000000E+00 0.  1.
         11    1    3    3    0    0 -0.16535100750E+02  0.23103289807E+02  0.25767241109E+02  0.38355211788E+02  0.51100000000E-03 0. -1.
        -11    1    3    3    0    0 -0.26120600034E+01  0.74285372714E+01 -0.36845812394E+01  0.86938002406E+01  0.51100000000E-03 0.  1.
        -12    1    3    3    0    0  0.18598064450E+02 -0.31408985004E+02 -0.22650296695E+02  0.42958681086E+02  0.00000000000E+00 0.  1.
</event>
<event>
 7    1  0.2641103E-015  0.9000776E+02  0.7816164E-02  0.1186339E+00
        -11   -1    0    0    0    0  0.00000000000E+00  0.00000000000E+00  0.45593999997E+02  0.45594000000E+02  0.51100000000E-03 0. -1.
         11   -1    0    0    0    0 -0.00000000000E+00 -0.00000000000E+00 -0.45593999997E+02  0.45594000000E+02  0.51100000000E-03 0.  1.
    9900012    2    1    2    0    0 -0.52469256884E+00  0.42741482952E+00 -0.96694257450E+00  0.90007761181E+02  0.90000022828E+02 0.  0.
        -12    1    1    2    0    0  0.52469256884E+00 -0.42741482952E+00  0.96694257450E+00  0.11802388193E+01  0.00000000000E+00 0.  1.
         11    1    3    3    0    0 -0.92692069749E+01  0.68728821945E+01 -0.48598802961E+01  0.12520908288E+02  0.51100000000E-03 0. -1.
        -11    1    3    3    0    0  0.38069496132E+02  0.95815535163E+01 -0.11192196829E+02  0.40821048170E+02  0.51100000000E-03 0.  1.
         12    1    3    3    0    0 -0.29324981726E+02 -0.16027020881E+02  0.15085134551E+02  0.36665804723E+02  0.00000000000E+00 0. -1.
</event>
<event>
 7    1  0.2641103E-015  0.9000774E+02  0.7816164E-02  0.1186339E+00
        -11   -1    0    0    0    0  0.00000000000E+00  0.00000000000E+00  0.45593999997E+02  0.45594000000E+02  0.51100000000E-03 0.  1.
         11   -1    0    0    0    0 -0.00000000000E+00 -0.00000000000E+00 -0.45593999997E+02  0.45594000000E+02  0.51100000000E-03 0. -1.
    9900012    2    1    2    0    0 -0.67142214954E+00 -0.53700006414E+00 -0.80859664699E+00  0.90007743541E+02  0.90000004956E+02 0.  0.
        -12    1    1    2    0    0  0.67142214954E+00  0.53700006414E+00  0.80859664699E+00  0.11802564591E+01  0.00000000000E+00 0.  1.
         11    1    3    3    0    0  0.85154568632E+01 -0.64491956602E+01  0.12674771766E+01  0.10756933992E+02  0.51100000000E-03 0. -1.
        -11    1    3    3    0    0  0.12437201935E+02  0.17537613831E+02  0.31204639627E+02  0.37894345559E+02  0.51100000000E-03 0.  1.
         12    1    3    3    0    0 -0.21624080948E+02 -0.11625418235E+02 -0.33280713450E+02  0.41356463990E+02  0.00000000000E+00 0. -1.
</event>
<event>
 7    1  0.2641103E-015  0.9000647E+02  0.7816164E-02  0.1186342E+00
        -11   -1    0    0    0    0  0.00000000000E+00  0.00000000000E+00  0.45593999997E+02  0.45594000000E+02  0.51100000000E-03 0. -1.
         11   -1    0    0    0    0 -0.00000000000E+00 -0.00000000000E+00 -0.45593999997E+02  0.45594000000E+02  0.51100000000E-03 0.  1.
    9900012    2    1    2    0    0 -0.95600836461E+00 -0.65155693629E+00  0.23985134490E+00  0.90006472556E+02  0.89998717184E+02 0.  0.
        -12    1    1    2    0    0  0.95600836461E+00  0.65155693629E+00 -0.23985134490E+00  0.11815274445E+01  0.00000000000E+00 0.  1.
         11    1    3    3    0    0  0.77645195604E+01 -0.14841491049E+01 -0.34158583202E+01  0.86115359196E+01  0.51100000000E-03 0. -1.
        -11    1    3    3    0    0  0.29364159379E+02 -0.13210449513E+02 -0.16382633285E+02  0.36127005217E+02  0.51100000000E-03 0.  1.
         12    1    3    3    0    0 -0.38084687304E+02  0.14043041682E+02  0.20038342951E+02  0.45267931418E+02  0.00000000000E+00 0. -1.
</event>
<event>
 7    1  0.3573974E-015  0.9000775E+02  0.7816164E-02  0.1186339E+00
        -11   -1    0    0    0    0  0.00000000000E+00  0.00000000000E+00  0.45593999997E+02  0.45594000000E+02  0.51100000000E-03 0. -1.
         11   -1    0    0    0    0 -0.00000000000E+00 -0.00000000000E+00 -0.45593999997E+02  0.45594000000E+02  0.51100000000E-03 0.  1.
    9900012    2    1    2    0    0  0.37279489417E+00  0.84898780793E+00  0.73022325699E+00  0.90007753273E+02  0.90000014816E+02 0.  0.
        -12    1    1    2    0    0 -0.37279489417E+00 -0.84898780793E+00 -0.73022325699E+00  0.11802467268E+01  0.00000000000E+00 0.  1.
         11    1    3    3    0    0  0.75201925010E-01 -0.88929031344E+01 -0.16215813418E+01  0.90398510937E+01  0.51100000000E-03 0. -1.
        -11    1    3    3    0    0  0.19224106753E+01 -0.27119552089E+02 -0.23483050283E+02  0.35925191985E+02  0.51100000000E-03 0.  1.
         12    1    3    3    0    0 -0.16248177061E+01  0.36861443031E+02  0.25834854882E+02  0.45042710195E+02  0.00000000000E+00 0. -1.
</event>
<event>
 7    1  0.2641103E-015  0.9000773E+02  0.7816164E-02  0.1186339E+00
        -11   -1    0    0    0    0  0.00000000000E+00  0.00000000000E+00  0.45593999997E+02  0.45594000000E+02  0.51100000000E-03 0.  1.
         11   -1    0    0    0    0 -0.00000000000E+00 -0.00000000000E+00 -0.45593999997E+02  0.45594000000E+02  0.51100000000E-03 0. -1.
    9900012    2    1    2    0    0 -0.60938072021E+00 -0.10099756251E+01  0.40476181076E-01  0.90007731409E+02  0.89999992664E+02 0.  0.
        -12    1    1    2    0    0  0.60938072021E+00  0.10099756251E+01 -0.40476181076E-01  0.11802685909E+01  0.00000000000E+00 0.  1.
         11    1    3    3    0    0 -0.10853209351E+01 -0.80679160547E+00 -0.90432382970E+01  0.91437953489E+01  0.51100000000E-03 0. -1.
        -11    1    3    3    0    0  0.39625211848E+02  0.78188840817E+01  0.46395848465E+01  0.40654865762E+02  0.51100000000E-03 0.  1.
         12    1    3    3    0    0 -0.39149271634E+02 -0.80220681013E+01  0.44441296316E+01  0.40209070298E+02  0.00000000000E+00 0. -1.
</event>
<event>
 7    1  0.2641103E-015  0.9000777E+02  0.7816164E-02  0.1186339E+00
        -11   -1    0    0    0    0  0.00000000000E+00  0.00000000000E+00  0.45593999997E+02  0.45594000000E+02  0.51100000000E-03 0.  1.
         11   -1    0    0    0    0 -0.00000000000E+00 -0.00000000000E+00 -0.45593999997E+02  0.45594000000E+02  0.51100000000E-03 0. -1.
    9900012    2    1    2    0    0 -0.81234112001E-01 -0.10066272780E+01 -0.61077842079E+00  0.90007767931E+02  0.90000029668E+02 0.  0.
        -12    1    1    2    0    0  0.81234112001E-01  0.10066272780E+01  0.61077842079E+00  0.11802320691E+01  0.00000000000E+00 0.  1.
         11    1    3    3    0    0  0.15770741996E+02  0.22138076834E+02 -0.21752308675E+02  0.34813412386E+02  0.51100000000E-03 0. -1.
        -11    1    3    3    0    0  0.55427006657E+01  0.54891460146E+01 -0.63841321444E+01  0.10080148716E+02  0.51100000000E-03 0.  1.
        -12    1    3    3    0    0 -0.21394676773E+02 -0.28633850126E+02  0.27525662399E+02  0.45114206829E+02  0.00000000000E+00 0.  1.
</event>
<event>
 7    1  0.2641103E-015  0.9000768E+02  0.7816164E-02  0.1186339E+00
        -11   -1    0    0    0    0  0.00000000000E+00  0.00000000000E+00  0.45593999997E+02  0.45594000000E+02  0.51100000000E-03 0.  1.
         11   -1    0    0    0    0 -0.00000000000E+00 -0.00000000000E+00 -0.45593999997E+02  0.45594000000E+02  0.51100000000E-03 0. -1.
    9900012    2    1    2    0    0 -0.11714805993E+01  0.11125539259E+00  0.91672234770E-01  0.90007682943E+02  0.89999943558E+02 0.  0.
        -12    1    1    2    0    0  0.11714805993E+01 -0.11125539259E+00 -0.91672234770E-01  0.11803170572E+01  0.00000000000E+00 0.  1.
         11    1    3    3    0    0 -0.27271544067E+02 -0.81799305377E+01 -0.25767952529E+02  0.38400986409E+02  0.51100000000E-03 0. -1.
        -11    1    3    3    0    0 -0.85190651568E+01  0.39549973344E+01  0.28593877641E+01  0.98179719753E+01  0.51100000000E-03 0.  1.
        -12    1    3    3    0    0  0.34619128624E+02  0.43361885960E+01  0.23000236999E+02  0.41788724559E+02  0.00000000000E+00 0.  1.
</event>
